/*--------------------------------*- C++ -*----------------------------------*\
| =========                 |                                                 |
| \\      /  F ield         | OpenFOAM: The Open Source CFD Toolbox           |
|  \\    /   O peration     | Version:  2.3.0                                 |
|   \\  /    A nd           | Web:      www.OpenFOAM.org                      |
|    \\/     M anipulation  |                                                 |
\*---------------------------------------------------------------------------*/
FoamFile
{
    version     2.0;
    format      ascii;
    class       surfaceScalarField;
    location    "9900/bottomAir";
    object      phi;
}
// * * * * * * * * * * * * * * * * * * * * * * * * * * * * * * * * * * * * * //

dimensions      [1 0 -1 0 0 0 0];

internalField   nonuniform List<scalar> 
7860
(
0.006713348
-1.219055e-06
0.006713704
-3.551373e-07
0.006713795
-9.008393e-08
0.006713909
-1.127522e-07
0.006713992
-8.296132e-08
0.006714047
-5.462445e-08
0.006714094
-4.628147e-08
0.006714137
-4.35956e-08
0.006714179
-4.223818e-08
0.006714222
-4.235551e-08
0.006714265
-4.348237e-08
0.00671431
-4.50928e-08
0.006714357
-4.695781e-08
0.006714406
-4.896293e-08
0.006714457
-5.102889e-08
0.00671451
-5.310172e-08
0.006714565
-5.514818e-08
0.006714622
-5.714634e-08
0.006714681
-5.908167e-08
0.006714742
-6.094474e-08
0.006714805
-6.272937e-08
0.006714869
-6.443222e-08
0.006714935
-6.605128e-08
0.006715002
-6.758631e-08
0.006715071
-6.903758e-08
0.006715142
-7.040652e-08
0.006715213
-7.169465e-08
0.006715286
-7.290426e-08
0.00671536
-7.403755e-08
0.006715435
-7.509723e-08
0.006715511
-7.608581e-08
0.006715588
-7.70061e-08
0.006715666
-7.786071e-08
0.006715745
-7.865238e-08
0.006715824
-7.938364e-08
0.006715904
-8.005704e-08
0.006715985
-8.067492e-08
0.006716066
-8.123957e-08
0.006716147
-8.17531e-08
0.00671623
-8.221745e-08
0.006716312
-8.263447e-08
0.006716395
-8.300575e-08
0.006716478
-8.333281e-08
0.006716562
-8.361688e-08
0.006716646
-8.385915e-08
0.00671673
-8.406048e-08
0.006716814
-8.422171e-08
0.006716898
-8.434333e-08
0.006716983
-8.442582e-08
0.006717067
-8.446931e-08
0.006717152
-8.447392e-08
0.006717236
-8.443939e-08
0.00671732
-8.436549e-08
0.006717405
-8.425159e-08
0.006717489
-8.409707e-08
0.006717573
-8.390094e-08
0.006717656
-8.366222e-08
0.00671774
-8.337952e-08
0.006717823
-8.305151e-08
0.006717905
-8.267642e-08
0.006717988
-8.225255e-08
0.006718069
-8.177776e-08
0.006718151
-8.124999e-08
0.006718231
-8.066673e-08
0.006718311
-8.002559e-08
0.006718391
-7.932373e-08
0.006718469
-7.855842e-08
0.006718547
-7.772654e-08
0.006718624
-7.682508e-08
0.006718699
-7.585066e-08
0.006718774
-7.480008e-08
0.006718848
-7.36698e-08
0.00671892
-7.245648e-08
0.006718992
-7.115653e-08
0.006719061
-6.976662e-08
0.00671913
-6.828324e-08
0.006719196
-6.670323e-08
0.006719261
-6.502334e-08
0.006719324
-6.324076e-08
0.006719386
-6.135272e-08
0.006719445
-5.935701e-08
0.006719502
-5.725156e-08
0.006719557
-5.503501e-08
0.00671961
-5.270629e-08
0.00671966
-5.026514e-08
0.006719708
-4.771177e-08
0.006719753
-4.504729e-08
0.006719795
-4.227342e-08
0.006719835
-3.939292e-08
0.006719871
-3.640923e-08
0.006719904
-3.332694e-08
0.006719935
-3.015142e-08
0.006719962
-2.688933e-08
0.006719985
-2.354832e-08
0.006720005
-2.013776e-08
0.006720022
-1.666923e-08
0.006720035
-1.315805e-08
0.006720045
-9.630131e-09
0.006720051
-6.119303e-09
-2.760206e-09
0.006712359
-6.619266e-07
0.006712362
-3.578151e-07
0.006712426
-1.526322e-07
0.006712444
-1.296919e-07
0.006712472
-1.104801e-07
0.006712507
-8.965058e-08
0.006712543
-8.173436e-08
0.00671258
-8.030106e-08
0.006712618
-8.101068e-08
0.006712659
-8.321933e-08
0.006712702
-8.648401e-08
0.006712747
-9.03216e-08
0.006712795
-9.445132e-08
0.006712844
-9.871898e-08
0.006712896
-1.030194e-07
0.00671295
-1.072805e-07
0.006713007
-1.114542e-07
0.006713065
-1.15508e-07
0.006713125
-1.194204e-07
0.006713187
-1.231769e-07
0.006713251
-1.267688e-07
0.006713317
-1.301909e-07
0.006713384
-1.334414e-07
0.006713453
-1.365203e-07
0.006713523
-1.394294e-07
0.006713595
-1.421716e-07
0.006713668
-1.44751e-07
0.006713742
-1.471719e-07
0.006713818
-1.494395e-07
0.006713894
-1.515589e-07
0.006713971
-1.535358e-07
0.00671405
-1.553756e-07
0.006714129
-1.570837e-07
0.006714209
-1.586657e-07
0.00671429
-1.601268e-07
0.006714371
-1.61472e-07
0.006714453
-1.627061e-07
0.006714536
-1.638338e-07
0.006714619
-1.648592e-07
0.006714702
-1.657863e-07
0.006714786
-1.666188e-07
0.00671487
-1.673599e-07
0.006714955
-1.680126e-07
0.00671504
-1.685795e-07
0.006715125
-1.690628e-07
0.00671521
-1.694645e-07
0.006715296
-1.69786e-07
0.006715382
-1.700285e-07
0.006715467
-1.701928e-07
0.006715553
-1.702793e-07
0.006715639
-1.702881e-07
0.006715725
-1.702189e-07
0.00671581
-1.70071e-07
0.006715896
-1.698433e-07
0.006715981
-1.695345e-07
0.006716067
-1.691427e-07
0.006716152
-1.686658e-07
0.006716236
-1.681012e-07
0.006716321
-1.67446e-07
0.006716405
-1.66697e-07
0.006716488
-1.658504e-07
0.006716571
-1.649023e-07
0.006716654
-1.638482e-07
0.006716736
-1.626835e-07
0.006716817
-1.614029e-07
0.006716898
-1.600013e-07
0.006716978
-1.584726e-07
0.006717057
-1.568112e-07
0.006717135
-1.550104e-07
0.006717212
-1.53064e-07
0.006717288
-1.509652e-07
0.006717364
-1.487071e-07
0.006717437
-1.462827e-07
0.00671751
-1.436853e-07
0.006717581
-1.409076e-07
0.006717651
-1.37943e-07
0.006717719
-1.347849e-07
0.006717785
-1.314268e-07
0.00671785
-1.27863e-07
0.006717912
-1.24088e-07
0.006717973
-1.200971e-07
0.006718032
-1.158864e-07
0.006718088
-1.114527e-07
0.006718142
-1.067943e-07
0.006718194
-1.019101e-07
0.006718243
-9.680091e-08
0.006718289
-9.146851e-08
0.006718333
-8.591662e-08
0.006718374
-8.015037e-08
0.006718412
-7.417692e-08
0.006718446
-6.800506e-08
0.006718478
-6.16457e-08
0.006718506
-5.511157e-08
0.006718531
-4.841758e-08
0.006718552
-4.158064e-08
0.00671857
-3.462002e-08
0.006718585
-2.755725e-08
0.006718595
-2.04172e-08
0.006718602
-1.322592e-08
-6.017816e-09
0.006712632
-3.685694e-07
0.006712529
-2.545342e-07
0.006712532
-1.542835e-07
0.006712542
-1.390894e-07
0.006712563
-1.309034e-07
0.006712595
-1.204972e-07
0.006712629
-1.16487e-07
0.006712666
-1.172453e-07
0.006712706
-1.201642e-07
0.006712747
-1.245066e-07
0.00671279
-1.298754e-07
0.006712836
-1.358597e-07
0.006712883
-1.421717e-07
0.006712933
-1.486275e-07
0.006712985
-1.550992e-07
0.006713039
-1.61495e-07
0.006713095
-1.677511e-07
0.006713154
-1.73823e-07
0.006713214
-1.796805e-07
0.006713276
-1.853032e-07
0.00671334
-1.906784e-07
0.006713405
-1.957991e-07
0.006713472
-2.006623e-07
0.006713541
-2.052683e-07
0.006713611
-2.096198e-07
0.006713683
-2.137215e-07
0.006713755
-2.17579e-07
0.006713829
-2.211994e-07
0.006713904
-2.245901e-07
0.006713981
-2.277591e-07
0.006714058
-2.307147e-07
0.006714136
-2.334651e-07
0.006714215
-2.360186e-07
0.006714294
-2.383833e-07
0.006714375
-2.405672e-07
0.006714456
-2.425777e-07
0.006714537
-2.444223e-07
0.00671462
-2.461076e-07
0.006714702
-2.476401e-07
0.006714786
-2.490256e-07
0.006714869
-2.502698e-07
0.006714953
-2.513774e-07
0.006715037
-2.523529e-07
0.006715122
-2.532002e-07
0.006715207
-2.539227e-07
0.006715292
-2.545232e-07
0.006715377
-2.550039e-07
0.006715462
-2.553667e-07
0.006715548
-2.556126e-07
0.006715633
-2.557424e-07
0.006715719
-2.557561e-07
0.006715804
-2.556532e-07
0.006715889
-2.554328e-07
0.006715975
-2.550932e-07
0.00671606
-2.546323e-07
0.006716145
-2.540475e-07
0.006716229
-2.533355e-07
0.006716314
-2.524924e-07
0.006716398
-2.515139e-07
0.006716481
-2.503951e-07
0.006716565
-2.491304e-07
0.006716647
-2.477139e-07
0.00671673
-2.461388e-07
0.006716811
-2.443982e-07
0.006716892
-2.424843e-07
0.006716973
-2.403891e-07
0.006717052
-2.381038e-07
0.006717131
-2.356195e-07
0.006717209
-2.329267e-07
0.006717286
-2.300155e-07
0.006717362
-2.268758e-07
0.006717437
-2.234974e-07
0.00671751
-2.198697e-07
0.006717583
-2.159821e-07
0.006717654
-2.118242e-07
0.006717723
-2.073855e-07
0.006717791
-2.026561e-07
0.006717857
-1.976263e-07
0.006717921
-1.922872e-07
0.006717984
-1.866305e-07
0.006718044
-1.806489e-07
0.006718103
-1.743364e-07
0.006718159
-1.676883e-07
0.006718213
-1.607014e-07
0.006718264
-1.533744e-07
0.006718313
-1.457078e-07
0.00671836
-1.377046e-07
0.006718403
-1.293699e-07
0.006718444
-1.207116e-07
0.006718481
-1.1174e-07
0.006718516
-1.024685e-07
0.006718547
-9.291318e-08
0.006718575
-8.309312e-08
0.006718599
-7.303037e-08
0.006718621
-6.274994e-08
0.006718638
-5.227975e-08
0.006718652
-4.165026e-08
0.006718663
-3.089445e-08
0.00671867
-2.004358e-08
-9.129797e-09
0.006712721
-2.113043e-07
0.006712662
-1.946791e-07
0.006712666
-1.56925e-07
0.006712678
-1.500569e-07
0.006712696
-1.480054e-07
0.006712721
-1.452748e-07
0.00671275
-1.460106e-07
0.006712783
-1.501051e-07
0.006712819
-1.561177e-07
0.006712858
-1.633657e-07
0.0067129
-1.714672e-07
0.006712944
-1.80078e-07
0.00671299
-1.889334e-07
0.00671304
-1.978506e-07
0.006713091
-2.066993e-07
0.006713145
-2.153851e-07
0.006713201
-2.238411e-07
0.006713259
-2.320201e-07
0.006713319
-2.398901e-07
0.006713381
-2.474299e-07
0.006713445
-2.546268e-07
0.006713511
-2.614744e-07
0.006713578
-2.67971e-07
0.006713647
-2.741189e-07
0.006713717
-2.799229e-07
0.006713788
-2.853902e-07
0.006713861
-2.905295e-07
0.006713935
-2.953505e-07
0.006714011
-2.998638e-07
0.006714087
-3.040805e-07
0.006714164
-3.080118e-07
0.006714242
-3.116692e-07
0.006714321
-3.150639e-07
0.006714401
-3.182069e-07
0.006714482
-3.211089e-07
0.006714563
-3.237802e-07
0.006714644
-3.262305e-07
0.006714727
-3.284689e-07
0.00671481
-3.305042e-07
0.006714893
-3.323442e-07
0.006714977
-3.339963e-07
0.006715061
-3.35467e-07
0.006715145
-3.367623e-07
0.00671523
-3.378875e-07
0.006715314
-3.388469e-07
0.0067154
-3.396445e-07
0.006715485
-3.402832e-07
0.00671557
-3.407653e-07
0.006715656
-3.410926e-07
0.006715741
-3.412657e-07
0.006715827
-3.412849e-07
0.006715912
-3.411496e-07
0.006715998
-3.408583e-07
0.006716083
-3.40409e-07
0.006716168
-3.397989e-07
0.006716253
-3.390243e-07
0.006716338
-3.38081e-07
0.006716422
-3.369638e-07
0.006716506
-3.356669e-07
0.00671659
-3.341838e-07
0.006716673
-3.325071e-07
0.006716756
-3.306287e-07
0.006716839
-3.285398e-07
0.00671692
-3.262309e-07
0.006717002
-3.236918e-07
0.006717082
-3.209116e-07
0.006717162
-3.178787e-07
0.006717241
-3.14581e-07
0.006717319
-3.110059e-07
0.006717396
-3.0714e-07
0.006717472
-3.0297e-07
0.006717547
-2.984817e-07
0.006717621
-2.936611e-07
0.006717693
-2.88494e-07
0.006717765
-2.829662e-07
0.006717834
-2.770636e-07
0.006717902
-2.707726e-07
0.006717969
-2.640801e-07
0.006718033
-2.56974e-07
0.006718096
-2.494429e-07
0.006718157
-2.414769e-07
0.006718216
-2.330676e-07
0.006718272
-2.242082e-07
0.006718326
-2.148944e-07
0.006718378
-2.05124e-07
0.006718427
-1.948975e-07
0.006718474
-1.842185e-07
0.006718518
-1.730936e-07
0.006718558
-1.61533e-07
0.006718596
-1.495504e-07
0.006718631
-1.371635e-07
0.006718662
-1.243934e-07
0.006718691
-1.112657e-07
0.006718715
-9.780932e-08
0.006718737
-8.405729e-08
0.006718754
-7.004608e-08
0.006718769
-5.581514e-08
0.006718779
-4.140726e-08
0.006718786
-2.686376e-08
-1.22427e-08
0.006712789
-1.427078e-07
0.006712752
-1.563023e-07
0.006712744
-1.479864e-07
0.006712747
-1.522307e-07
0.006712758
-1.587613e-07
0.006712778
-1.646642e-07
0.006712804
-1.71888e-07
0.006712835
-1.808259e-07
0.006712869
-1.908949e-07
0.006712908
-2.016856e-07
0.006712949
-2.129492e-07
0.006712993
-2.244607e-07
0.00671304
-2.360294e-07
0.00671309
-2.475105e-07
0.006713142
-2.587952e-07
0.006713196
-2.698017e-07
0.006713253
-2.804698e-07
0.006713311
-2.907563e-07
0.006713372
-3.006314e-07
0.006713435
-3.10076e-07
0.006713499
-3.19079e-07
0.006713565
-3.276359e-07
0.006713633
-3.357473e-07
0.006713702
-3.434178e-07
0.006713773
-3.506548e-07
0.006713845
-3.574685e-07
0.006713918
-3.638703e-07
0.006713992
-3.698733e-07
0.006714068
-3.75491e-07
0.006714145
-3.807379e-07
0.006714222
-3.856283e-07
0.006714301
-3.901768e-07
0.00671438
-3.943975e-07
0.00671446
-3.983045e-07
0.006714541
-4.019113e-07
0.006714622
-4.052308e-07
0.006714704
-4.082752e-07
0.006714787
-4.110561e-07
0.00671487
-4.135843e-07
0.006714953
-4.158698e-07
0.006715037
-4.179218e-07
0.006715121
-4.197485e-07
0.006715206
-4.213573e-07
0.006715291
-4.227548e-07
0.006715376
-4.239467e-07
0.006715461
-4.249375e-07
0.006715546
-4.257312e-07
0.006715632
-4.263307e-07
0.006715718
-4.267379e-07
0.006715803
-4.26954e-07
0.006715889
-4.26979e-07
0.006715975
-4.268122e-07
0.00671606
-4.26452e-07
0.006716146
-4.258957e-07
0.006716231
-4.251397e-07
0.006716316
-4.241796e-07
0.006716401
-4.230099e-07
0.006716486
-4.216244e-07
0.00671657
-4.200157e-07
0.006716654
-4.181755e-07
0.006716737
-4.160947e-07
0.006716821
-4.137632e-07
0.006716903
-4.111699e-07
0.006716985
-4.083029e-07
0.006717067
-4.051495e-07
0.006717147
-4.016957e-07
0.006717227
-3.979273e-07
0.006717307
-3.938289e-07
0.006717385
-3.893846e-07
0.006717463
-3.845776e-07
0.006717539
-3.79391e-07
0.006717614
-3.738069e-07
0.006717688
-3.678077e-07
0.006717761
-3.613751e-07
0.006717833
-3.544912e-07
0.006717903
-3.471381e-07
0.006717971
-3.392985e-07
0.006718038
-3.309555e-07
0.006718103
-3.220935e-07
0.006718167
-3.126979e-07
0.006718228
-3.027557e-07
0.006718287
-2.922559e-07
0.006718344
-2.811897e-07
0.006718399
-2.695509e-07
0.006718451
-2.573365e-07
0.0067185
-2.445464e-07
0.006718547
-2.311848e-07
0.006718592
-2.172595e-07
0.006718633
-2.027829e-07
0.006718671
-1.877718e-07
0.006718706
-1.722481e-07
0.006718738
-1.562382e-07
0.006718766
-1.397738e-07
0.006718792
-1.228914e-07
0.006718813
-1.05632e-07
0.006718831
-8.804135e-08
0.006718845
-7.016868e-08
0.006718856
-5.206742e-08
0.006718863
-3.378914e-08
-1.540797e-08
0.006712791
-1.005695e-07
0.006712768
-1.323185e-07
0.006712765
-1.437992e-07
0.006712771
-1.57997e-07
0.006712785
-1.72127e-07
0.006712806
-1.850497e-07
0.006712832
-1.97965e-07
0.006712863
-2.114714e-07
0.006712898
-2.254739e-07
0.006712936
-2.397833e-07
0.006712977
-2.542521e-07
0.006713021
-2.68735e-07
0.006713068
-2.830939e-07
0.006713118
-2.972129e-07
0.00671317
-3.110002e-07
0.006713224
-3.243844e-07
0.006713281
-3.373117e-07
0.00671334
-3.497434e-07
0.006713401
-3.616529e-07
0.006713464
-3.73024e-07
0.006713528
-3.838484e-07
0.006713595
-3.941245e-07
0.006713663
-4.038559e-07
0.006713732
-4.130503e-07
0.006713803
-4.217186e-07
0.006713876
-4.298743e-07
0.006713949
-4.375324e-07
0.006714024
-4.447094e-07
0.0067141
-4.514227e-07
0.006714177
-4.5769e-07
0.006714255
-4.635291e-07
0.006714333
-4.68958e-07
0.006714413
-4.739941e-07
0.006714493
-4.786545e-07
0.006714574
-4.829557e-07
0.006714656
-4.869132e-07
0.006714738
-4.905422e-07
0.006714821
-4.938564e-07
0.006714904
-4.968691e-07
0.006714988
-4.995922e-07
0.006715072
-5.020368e-07
0.006715156
-5.04213e-07
0.006715241
-5.061297e-07
0.006715326
-5.077946e-07
0.006715411
-5.092147e-07
0.006715497
-5.103956e-07
0.006715582
-5.113418e-07
0.006715668
-5.12057e-07
0.006715754
-5.125434e-07
0.00671584
-5.128024e-07
0.006715925
-5.128342e-07
0.006716011
-5.126379e-07
0.006716097
-5.122115e-07
0.006716183
-5.115517e-07
0.006716268
-5.106545e-07
0.006716353
-5.095143e-07
0.006716438
-5.081248e-07
0.006716523
-5.064782e-07
0.006716608
-5.045659e-07
0.006716692
-5.023779e-07
0.006716776
-4.999032e-07
0.006716859
-4.971297e-07
0.006716942
-4.94044e-07
0.006717024
-4.906318e-07
0.006717106
-4.868777e-07
0.006717187
-4.827651e-07
0.006717267
-4.782765e-07
0.006717347
-4.733934e-07
0.006717426
-4.680966e-07
0.006717503
-4.623657e-07
0.00671758
-4.561801e-07
0.006717656
-4.495184e-07
0.00671773
-4.423586e-07
0.006717804
-4.346787e-07
0.006717876
-4.264567e-07
0.006717946
-4.176707e-07
0.006718015
-4.082993e-07
0.006718083
-3.983217e-07
0.006718148
-3.877184e-07
0.006718212
-3.764714e-07
0.006718274
-3.645643e-07
0.006718333
-3.519831e-07
0.006718391
-3.387164e-07
0.006718446
-3.247561e-07
0.006718499
-3.100977e-07
0.006718549
-2.947405e-07
0.006718597
-2.786886e-07
0.006718641
-2.61951e-07
0.006718683
-2.445418e-07
0.006718722
-2.264811e-07
0.006718757
-2.077944e-07
0.00671879
-1.885138e-07
0.006718818
-1.68677e-07
0.006718844
-1.483279e-07
0.006718866
-1.275164e-07
0.006718884
-1.062976e-07
0.006718899
-8.47313e-08
0.006718909
-6.288287e-08
0.006718916
-4.081573e-08
-1.862359e-08
0.006712796
-8.265188e-08
0.006712786
-1.218877e-07
0.006712786
-1.432324e-07
0.006712794
-1.644538e-07
0.006712807
-1.849317e-07
0.006712826
-2.040319e-07
0.006712851
-2.224612e-07
0.00671288
-2.407656e-07
0.006712914
-2.590355e-07
0.006712951
-2.772001e-07
0.006712992
-2.951809e-07
0.006713036
-3.128939e-07
0.006713083
-3.302492e-07
0.006713133
-3.471654e-07
0.006713186
-3.635749e-07
0.006713241
-3.79424e-07
0.006713298
-3.94672e-07
0.006713357
-4.0929e-07
0.006713419
-4.232593e-07
0.006713482
-4.365701e-07
0.006713548
-4.492197e-07
0.006713615
-4.612116e-07
0.006713683
-4.725542e-07
0.006713753
-4.832598e-07
0.006713825
-4.933437e-07
0.006713898
-5.028237e-07
0.006713972
-5.11719e-07
0.006714047
-5.200503e-07
0.006714124
-5.278388e-07
0.006714201
-5.351062e-07
0.006714279
-5.41874e-07
0.006714358
-5.481637e-07
0.006714438
-5.539963e-07
0.006714519
-5.593919e-07
0.0067146
-5.643701e-07
0.006714682
-5.689496e-07
0.006714765
-5.731478e-07
0.006714848
-5.769812e-07
0.006714932
-5.804653e-07
0.006715016
-5.836142e-07
0.0067151
-5.864408e-07
0.006715185
-5.889569e-07
0.00671527
-5.91173e-07
0.006715355
-5.930982e-07
0.00671544
-5.947405e-07
0.006715526
-5.961064e-07
0.006715612
-5.972015e-07
0.006715698
-5.980297e-07
0.006715784
-5.985939e-07
0.00671587
-5.988956e-07
0.006715956
-5.98935e-07
0.006716042
-5.98711e-07
0.006716128
-5.982214e-07
0.006716214
-5.974625e-07
0.0067163
-5.964293e-07
0.006716385
-5.951156e-07
0.006716471
-5.935137e-07
0.006716556
-5.916149e-07
0.006716641
-5.894088e-07
0.006716725
-5.86884e-07
0.006716809
-5.840275e-07
0.006716893
-5.808252e-07
0.006716976
-5.772614e-07
0.006717059
-5.733194e-07
0.006717141
-5.689811e-07
0.006717222
-5.64227e-07
0.006717303
-5.590365e-07
0.006717383
-5.53388e-07
0.006717462
-5.472586e-07
0.00671754
-5.406245e-07
0.006717618
-5.334612e-07
0.006717694
-5.257432e-07
0.006717769
-5.174447e-07
0.006717843
-5.085393e-07
0.006717915
-4.990008e-07
0.006717987
-4.88803e-07
0.006718056
-4.7792e-07
0.006718124
-4.66327e-07
0.00671819
-4.540003e-07
0.006718255
-4.409177e-07
0.006718317
-4.270593e-07
0.006718378
-4.124075e-07
0.006718436
-3.969482e-07
0.006718492
-3.806705e-07
0.006718545
-3.635682e-07
0.006718596
-3.456395e-07
0.006718644
-3.268881e-07
0.00671869
-3.073235e-07
0.006718732
-2.869617e-07
0.006718771
-2.658252e-07
0.006718808
-2.439438e-07
0.00671884
-2.213543e-07
0.00671887
-1.981012e-07
0.006718896
-1.74236e-07
0.006718918
-1.498174e-07
0.006718937
-1.249106e-07
0.006718952
-9.95867e-08
0.006718963
-7.392327e-08
0.00671897
-4.799592e-08
-2.191571e-08
0.006712783
-7.220644e-08
0.006712779
-1.174337e-07
0.006712783
-1.460508e-07
0.006712792
-1.73194e-07
0.006712807
-1.995219e-07
0.006712828
-2.243139e-07
0.006712854
-2.479327e-07
0.006712884
-2.708783e-07
0.006712918
-2.933331e-07
0.006712956
-3.153066e-07
0.006712998
-3.367789e-07
0.006713043
-3.577158e-07
0.00671309
-3.780683e-07
0.006713141
-3.977848e-07
0.006713194
-4.168192e-07
0.00671325
-4.351343e-07
0.006713308
-4.527015e-07
0.006713368
-4.695014e-07
0.00671343
-4.855231e-07
0.006713494
-5.007632e-07
0.00671356
-5.152252e-07
0.006713628
-5.289179e-07
0.006713697
-5.418548e-07
0.006713768
-5.54053e-07
0.00671384
-5.655327e-07
0.006713913
-5.763163e-07
0.006713988
-5.864275e-07
0.006714063
-5.958914e-07
0.00671414
-6.047335e-07
0.006714218
-6.129795e-07
0.006714297
-6.206548e-07
0.006714376
-6.277848e-07
0.006714457
-6.343938e-07
0.006714538
-6.405055e-07
0.00671462
-6.461426e-07
0.006714702
-6.513266e-07
0.006714785
-6.560778e-07
0.006714868
-6.604153e-07
0.006714952
-6.643568e-07
0.006715036
-6.679186e-07
0.006715121
-6.711156e-07
0.006715206
-6.739612e-07
0.006715291
-6.764674e-07
0.006715377
-6.786449e-07
0.006715462
-6.805027e-07
0.006715548
-6.820483e-07
0.006715634
-6.83288e-07
0.006715721
-6.842263e-07
0.006715807
-6.848666e-07
0.006715893
-6.852106e-07
0.006715979
-6.852586e-07
0.006716066
-6.850093e-07
0.006716152
-6.8446e-07
0.006716238
-6.836068e-07
0.006716324
-6.824438e-07
0.00671641
-6.80964e-07
0.006716495
-6.791587e-07
0.006716581
-6.770177e-07
0.006716666
-6.745295e-07
0.006716751
-6.716807e-07
0.006716835
-6.684567e-07
0.006716919
-6.648411e-07
0.006717003
-6.608162e-07
0.006717086
-6.563626e-07
0.006717168
-6.514594e-07
0.00671725
-6.460845e-07
0.006717331
-6.40214e-07
0.006717412
-6.33823e-07
0.006717491
-6.26885e-07
0.00671757
-6.193725e-07
0.006717648
-6.11257e-07
0.006717724
-6.025089e-07
0.0067178
-5.93098e-07
0.006717874
-5.829938e-07
0.006717948
-5.721652e-07
0.006718019
-5.605814e-07
0.00671809
-5.482121e-07
0.006718158
-5.350276e-07
0.006718225
-5.209997e-07
0.006718291
-5.061018e-07
0.006718354
-4.903097e-07
0.006718415
-4.73602e-07
0.006718474
-4.559609e-07
0.006718531
-4.373726e-07
0.006718585
-4.178283e-07
0.006718637
-3.973248e-07
0.006718686
-3.758647e-07
0.006718732
-3.534578e-07
0.006718775
-3.301212e-07
0.006718815
-3.058799e-07
0.006718852
-2.807674e-07
0.006718885
-2.548257e-07
0.006718915
-2.281055e-07
0.006718942
-2.006665e-07
0.006718964
-1.725767e-07
0.006718983
-1.439121e-07
0.006718998
-1.147558e-07
0.00671901
-8.519916e-08
0.006719017
-5.533138e-08
-2.528517e-08
0.00671277
-6.918722e-08
0.006712772
-1.188088e-07
0.006712779
-1.524032e-07
0.006712791
-1.843325e-07
0.006712808
-2.156805e-07
0.00671283
-2.454739e-07
0.006712856
-2.738348e-07
0.006712886
-3.012023e-07
0.006712921
-3.277694e-07
0.006712959
-3.535654e-07
0.006713001
-3.78592e-07
0.006713046
-4.028384e-07
0.006713094
-4.262784e-07
0.006713145
-4.488797e-07
0.006713199
-4.706131e-07
0.006713255
-4.91455e-07
0.006713313
-5.113888e-07
0.006713374
-5.304052e-07
0.006713437
-5.485024e-07
0.006713502
-5.656852e-07
0.006713569
-5.819641e-07
0.006713637
-5.97355e-07
0.006713707
-6.118778e-07
0.006713778
-6.255558e-07
0.006713851
-6.384148e-07
0.006713925
-6.504827e-07
0.006714001
-6.617888e-07
0.006714077
-6.723629e-07
0.006714154
-6.822354e-07
0.006714233
-6.914364e-07
0.006714312
-6.999959e-07
0.006714392
-7.079431e-07
0.006714473
-7.153061e-07
0.006714555
-7.221123e-07
0.006714637
-7.283876e-07
0.00671472
-7.341566e-07
0.006714803
-7.394426e-07
0.006714887
-7.442671e-07
0.006714971
-7.486503e-07
0.006715056
-7.526106e-07
0.006715141
-7.56165e-07
0.006715226
-7.593286e-07
0.006715312
-7.62115e-07
0.006715397
-7.645361e-07
0.006715483
-7.666021e-07
0.00671557
-7.683216e-07
0.006715656
-7.697016e-07
0.006715743
-7.707472e-07
0.006715829
-7.714622e-07
0.006715916
-7.718485e-07
0.006716002
-7.719064e-07
0.006716089
-7.716346e-07
0.006716176
-7.710301e-07
0.006716262
-7.700883e-07
0.006716348
-7.688028e-07
0.006716434
-7.671657e-07
0.00671652
-7.651671e-07
0.006716606
-7.627958e-07
0.006716692
-7.600386e-07
0.006716777
-7.568806e-07
0.006716862
-7.533052e-07
0.006716946
-7.49294e-07
0.00671703
-7.448271e-07
0.006717114
-7.398825e-07
0.006717197
-7.344367e-07
0.006717279
-7.284643e-07
0.006717361
-7.219387e-07
0.006717442
-7.148311e-07
0.006717522
-7.071117e-07
0.006717601
-6.98749e-07
0.00671768
-6.897103e-07
0.006717757
-6.799618e-07
0.006717834
-6.694688e-07
0.006717909
-6.581959e-07
0.006717983
-6.461075e-07
0.006718055
-6.331676e-07
0.006718126
-6.193408e-07
0.006718196
-6.045925e-07
0.006718264
-5.888893e-07
0.00671833
-5.721996e-07
0.006718394
-5.544944e-07
0.006718456
-5.357478e-07
0.006718516
-5.159378e-07
0.006718574
-4.95047e-07
0.006718629
-4.730634e-07
0.006718682
-4.499813e-07
0.006718732
-4.258022e-07
0.006718779
-4.005352e-07
0.006718823
-3.741983e-07
0.006718864
-3.468183e-07
0.006718901
-3.184323e-07
0.006718936
-2.890871e-07
0.006718966
-2.588402e-07
0.006718993
-2.277593e-07
0.006719017
-1.959221e-07
0.006719036
-1.634164e-07
0.006719052
-1.303377e-07
0.006719063
-9.679186e-08
0.006719071
-6.288231e-08
-2.876196e-08
0.006712752
-6.889814e-08
0.006712757
-1.230396e-07
0.006712766
-1.610352e-07
0.00671278
-1.972921e-07
0.006712798
-2.333351e-07
0.006712821
-2.678818e-07
0.006712848
-3.008261e-07
0.00671288
-3.325387e-07
0.006712915
-3.631913e-07
0.006712954
-3.928088e-07
0.006712997
-4.214006e-07
0.006713043
-4.48971e-07
0.006713092
-4.755108e-07
0.006713144
-5.010045e-07
0.006713199
-5.254382e-07
0.006713256
-5.48802e-07
0.006713316
-5.710914e-07
0.006713378
-5.92308e-07
0.006713442
-6.124596e-07
0.006713507
-6.315599e-07
0.006713575
-6.496276e-07
0.006713644
-6.66686e-07
0.006713715
-6.82762e-07
0.006713787
-6.978857e-07
0.006713861
-7.120893e-07
0.006713936
-7.254065e-07
0.006714012
-7.378722e-07
0.006714089
-7.495218e-07
0.006714167
-7.603905e-07
0.006714246
-7.705134e-07
0.006714326
-7.799248e-07
0.006714406
-7.886582e-07
0.006714488
-7.967457e-07
0.00671457
-8.042182e-07
0.006714653
-8.111051e-07
0.006714736
-8.174342e-07
0.00671482
-8.232316e-07
0.006714904
-8.285215e-07
0.006714988
-8.333265e-07
0.006715073
-8.376673e-07
0.006715159
-8.415626e-07
0.006715244
-8.450296e-07
0.00671533
-8.480832e-07
0.006715417
-8.507368e-07
0.006715503
-8.530017e-07
0.006715589
-8.548874e-07
0.006715676
-8.564017e-07
0.006715763
-8.575504e-07
0.00671585
-8.583375e-07
0.006715937
-8.587653e-07
0.006716024
-8.588341e-07
0.00671611
-8.585424e-07
0.006716197
-8.57887e-07
0.006716284
-8.568627e-07
0.006716371
-8.554625e-07
0.006716457
-8.536775e-07
0.006716543
-8.51497e-07
0.00671663
-8.489084e-07
0.006716715
-8.458971e-07
0.006716801
-8.424465e-07
0.006716886
-8.385382e-07
0.006716971
-8.341517e-07
0.006717055
-8.292648e-07
0.006717139
-8.238529e-07
0.006717223
-8.178899e-07
0.006717306
-8.113474e-07
0.006717388
-8.041953e-07
0.006717469
-7.964015e-07
0.00671755
-7.879324e-07
0.00671763
-7.787525e-07
0.006717709
-7.688248e-07
0.006717788
-7.58111e-07
0.006717865
-7.465716e-07
0.006717941
-7.341663e-07
0.006718015
-7.208542e-07
0.006718089
-7.06594e-07
0.006718161
-6.913448e-07
0.006718231
-6.750664e-07
0.0067183
-6.577197e-07
0.006718367
-6.392676e-07
0.006718432
-6.196756e-07
0.006718495
-5.989125e-07
0.006718556
-5.769514e-07
0.006718615
-5.537703e-07
0.006718671
-5.293534e-07
0.006718725
-5.036919e-07
0.006718776
-4.76785e-07
0.006718824
-4.486407e-07
0.006718869
-4.192768e-07
0.006718911
-3.88722e-07
0.00671895
-3.570163e-07
0.006718985
-3.242113e-07
0.006719016
-2.90371e-07
0.006719044
-2.555716e-07
0.006719068
-2.199012e-07
0.006719088
-1.834598e-07
0.006719104
-1.46357e-07
0.006719116
-1.087145e-07
0.006719124
-7.065209e-08
-3.234779e-08
0.006712732
-7.130625e-08
0.00671274
-1.299498e-07
0.006712752
-1.719317e-07
0.006712768
-2.122763e-07
0.006712788
-2.527495e-07
0.006712812
-2.917751e-07
0.00671284
-3.290764e-07
0.006712873
-3.649732e-07
0.006712909
-3.996081e-07
0.006712949
-4.329887e-07
0.006712993
-4.651202e-07
0.00671304
-4.960108e-07
0.00671309
-5.256593e-07
0.006713143
-5.5406e-07
0.006713199
-5.812093e-07
0.006713257
-6.071077e-07
0.006713318
-6.317612e-07
0.00671338
-6.55181e-07
0.006713445
-6.773846e-07
0.006713512
-6.983944e-07
0.00671358
-7.182378e-07
0.006713651
-7.369463e-07
0.006713722
-7.545546e-07
0.006713795
-7.710999e-07
0.00671387
-7.866216e-07
0.006713946
-8.011599e-07
0.006714022
-8.147561e-07
0.0067141
-8.274511e-07
0.006714179
-8.39286e-07
0.006714259
-8.503009e-07
0.006714339
-8.605348e-07
0.006714421
-8.700258e-07
0.006714503
-8.788102e-07
0.006714585
-8.869227e-07
0.006714669
-8.943963e-07
0.006714752
-9.012619e-07
0.006714837
-9.075486e-07
0.006714921
-9.132835e-07
0.006715007
-9.184916e-07
0.006715092
-9.231957e-07
0.006715178
-9.274168e-07
0.006715264
-9.311734e-07
0.00671535
-9.344824e-07
0.006715437
-9.373582e-07
0.006715524
-9.398135e-07
0.006715611
-9.418587e-07
0.006715698
-9.435022e-07
0.006715785
-9.447507e-07
0.006715872
-9.456084e-07
0.006715959
-9.460778e-07
0.006716047
-9.461593e-07
0.006716134
-9.458514e-07
0.006716221
-9.451505e-07
0.006716308
-9.440509e-07
0.006716395
-9.42545e-07
0.006716482
-9.40623e-07
0.006716569
-9.382733e-07
0.006716656
-9.354818e-07
0.006716742
-9.322327e-07
0.006716828
-9.285078e-07
0.006716914
-9.242867e-07
0.006716999
-9.19547e-07
0.006717084
-9.14264e-07
0.006717169
-9.084108e-07
0.006717253
-9.019583e-07
0.006717336
-8.948752e-07
0.006717419
-8.871281e-07
0.006717501
-8.786813e-07
0.006717583
-8.694973e-07
0.006717664
-8.595363e-07
0.006717744
-8.487572e-07
0.006717823
-8.371167e-07
0.006717901
-8.245704e-07
0.006717978
-8.110727e-07
0.006718053
-7.965771e-07
0.006718128
-7.810365e-07
0.006718201
-7.644042e-07
0.006718272
-7.466335e-07
0.006718342
-7.276794e-07
0.00671841
-7.074983e-07
0.006718477
-6.860494e-07
0.006718541
-6.632956e-07
0.006718603
-6.39204e-07
0.006718663
-6.137473e-07
0.006718721
-5.869048e-07
0.006718776
-5.586636e-07
0.006718828
-5.290196e-07
0.006718877
-4.979789e-07
0.006718924
-4.655587e-07
0.006718967
-4.317884e-07
0.006719006
-3.967104e-07
0.006719043
-3.60381e-07
0.006719075
-3.228707e-07
0.006719104
-2.842644e-07
0.006719129
-2.446611e-07
0.006719149
-2.041736e-07
0.006719166
-1.629267e-07
0.006719178
-1.210593e-07
0.006719186
-7.870814e-08
-3.607621e-08
0.00671271
-7.498873e-08
0.006712719
-1.384803e-07
0.006712733
-1.84442e-07
0.00671275
-2.288117e-07
0.006712771
-2.736241e-07
0.006712797
-3.170386e-07
0.006712827
-3.586316e-07
0.006712861
-3.986776e-07
0.006712898
-4.372845e-07
0.00671294
-4.74434e-07
0.006712985
-5.101188e-07
0.006713033
-5.443453e-07
0.006713084
-5.771155e-07
0.006713139
-6.084305e-07
0.006713196
-6.382955e-07
0.006713255
-6.667211e-07
0.006713317
-6.937233e-07
0.006713381
-7.193242e-07
0.006713447
-7.435511e-07
0.006713515
-7.664367e-07
0.006713585
-7.880178e-07
0.006713656
-8.083349e-07
0.006713729
-8.274314e-07
0.006713803
-8.453529e-07
0.006713879
-8.62146e-07
0.006713955
-8.778586e-07
0.006714033
-8.925384e-07
0.006714112
-9.062329e-07
0.006714191
-9.189889e-07
0.006714272
-9.30852e-07
0.006714353
-9.418664e-07
0.006714435
-9.520746e-07
0.006714518
-9.615175e-07
0.006714601
-9.702336e-07
0.006714685
-9.782595e-07