/*--------------------------------*- C++ -*----------------------------------*\
| =========                 |                                                 |
| \\      /  F ield         | OpenFOAM: The Open Source CFD Toolbox           |
|  \\    /   O peration     | Version:  2.3.0                                 |
|   \\  /    A nd           | Web:      www.OpenFOAM.org                      |
|    \\/     M anipulation  |                                                 |
\*---------------------------------------------------------------------------*/
FoamFile
{
    version     2.0;
    format      ascii;
    class       volVectorField;
    location    "9900/bottomAir";
    object      U;
}
// * * * * * * * * * * * * * * * * * * * * * * * * * * * * * * * * * * * * * //

dimensions      [0 1 -1 0 0 0 0];

internalField   nonuniform List<vector> 
4000
(
(33.6026 -0.003040626 0)
(25.41546 -0.001527108 0)
(22.11141 -0.0006092314 0)
(22.98901 -0.0004706414 0)
(23.32412 -0.0003467463 0)
(23.2305 -0.0002372883 0)
(23.19679 -0.0001829917 0)
(23.20697 -0.0001545099 0)
(23.21055 -0.0001359073 0)
(23.20963 -0.0001242713 0)
(23.20943 -0.0001175191 0)
(23.2097 -0.0001137353 0)
(23.2099 -0.0001118416 0)
(23.21006 -0.0001112273 0)
(23.21023 -0.0001114858 0)
(23.21041 -0.0001123354 0)
(23.2106 -0.0001135855 0)
(23.2108 -0.0001151021 0)
(23.211 -0.0001167895 0)
(23.21121 -0.000118578 0)
(23.21143 -0.0001204161 0)
(23.21165 -0.0001222663 0)
(23.21188 -0.0001240999 0)
(23.21212 -0.0001258967 0)
(23.21236 -0.0001276408 0)
(23.2126 -0.0001293217 0)
(23.21285 -0.0001309312 0)
(23.2131 -0.0001324643 0)
(23.21336 -0.0001339172 0)
(23.21362 -0.0001352886 0)
(23.21389 -0.0001365773 0)
(23.21415 -0.0001377839 0)
(23.21443 -0.000138909 0)
(23.2147 -0.000139954 0)
(23.21498 -0.0001409205 0)
(23.21526 -0.0001418105 0)
(23.21554 -0.000142626 0)
(23.21582 -0.0001433691 0)
(23.2161 -0.000144042 0)
(23.21639 -0.0001446466 0)
(23.21668 -0.0001451848 0)
(23.21697 -0.0001456586 0)
(23.21726 -0.0001460695 0)
(23.21755 -0.000146419 0)
(23.21785 -0.0001467084 0)
(23.21814 -0.0001469386 0)
(23.21843 -0.0001471106 0)
(23.21873 -0.0001472247 0)
(23.21902 -0.0001472816 0)
(23.21932 -0.0001472809 0)
(23.21961 -0.0001472227 0)
(23.21991 -0.0001471063 0)
(23.22021 -0.0001469311 0)
(23.2205 -0.0001466957 0)
(23.22079 -0.000146399 0)
(23.22109 -0.0001460392 0)
(23.22138 -0.0001456144 0)
(23.22167 -0.0001451222 0)
(23.22197 -0.0001445602 0)
(23.22226 -0.0001439251 0)
(23.22254 -0.0001432142 0)
(23.22283 -0.0001424236 0)
(23.22312 -0.0001415497 0)
(23.2234 -0.0001405882 0)
(23.22368 -0.0001395348 0)
(23.22396 -0.0001383847 0)
(23.22424 -0.0001371332 0)
(23.22451 -0.0001357747 0)
(23.22478 -0.0001343042 0)
(23.22505 -0.0001327156 0)
(23.22531 -0.0001310036 0)
(23.22557 -0.0001291618 0)
(23.22583 -0.0001271847 0)
(23.22608 -0.0001250658 0)
(23.22633 -0.0001227996 0)
(23.22657 -0.0001203797 0)
(23.22681 -0.0001178009 0)
(23.22704 -0.0001150574 0)
(23.22726 -0.0001121443 0)
(23.22748 -0.0001090569 0)
(23.22769 -0.0001057913 0)
(23.2279 -0.0001023438 0)
(23.2281 -9.871211e-05 0)
(23.22829 -9.489429e-05 0)
(23.22847 -9.088993e-05 0)
(23.22864 -8.669922e-05 0)
(23.2288 -8.232415e-05 0)
(23.22896 -7.776752e-05 0)
(23.2291 -7.303414e-05 0)
(23.22924 -6.812981e-05 0)
(23.22936 -6.30625e-05 0)
(23.22947 -5.784144e-05 0)
(23.22958 -5.247829e-05 0)
(23.22967 -4.698669e-05 0)
(23.22975 -4.138403e-05 0)
(23.22981 -3.569336e-05 0)
(23.22987 -2.99484e-05 0)
(23.22991 -2.421426e-05 0)
(23.22994 -1.858749e-05 0)
(23.22996 -1.345891e-05 0)
(33.59726 -0.003796253 0)
(25.41288 -0.001643973 0)
(22.10679 -0.0004938074 0)
(22.98378 -0.0004072053 0)
(23.31895 -0.0003083622 0)
(23.22523 -0.0002087767 0)
(23.19144 -0.0001757891 0)
(23.2016 -0.0001709495 0)
(23.20516 -0.0001735255 0)
(23.20423 -0.0001812716 0)
(23.20403 -0.0001924672 0)
(23.2043 -0.0002051775 0)
(23.2045 -0.0002184365 0)
(23.20466 -0.0002317994 0)
(23.20483 -0.0002449926 0)
(23.20502 -0.000257843 0)
(23.20522 -0.0002702521 0)
(23.20542 -0.0002821636 0)
(23.20563 -0.0002935467 0)
(23.20584 -0.0003043869 0)
(23.20606 -0.0003146804 0)
(23.20629 -0.0003244309 0)
(23.20652 -0.0003336468 0)
(23.20676 -0.0003423404 0)
(23.20701 -0.000350526 0)
(23.20726 -0.0003582198 0)
(23.20751 -0.0003654389 0)
(23.20777 -0.0003722011 0)
(23.20803 -0.0003785245 0)
(23.20829 -0.0003844274 0)
(23.20856 -0.0003899275 0)
(23.20884 -0.0003950426 0)
(23.20911 -0.0003997895 0)
(23.20939 -0.0004041849 0)
(23.20967 -0.0004082445 0)
(23.20996 -0.0004119831 0)
(23.21024 -0.0004154148 0)
(23.21053 -0.000418553 0)
(23.21082 -0.0004214097 0)
(23.21111 -0.0004239963 0)
(23.2114 -0.0004263232 0)
(23.2117 -0.0004283997 0)
(23.21199 -0.0004302341 0)
(23.21229 -0.0004318339 0)
(23.21259 -0.0004332052 0)
(23.21289 -0.0004343536 0)
(23.21319 -0.0004352833 0)
(23.21349 -0.0004359976 0)
(23.21379 -0.0004364991 0)
(23.21409 -0.0004367889 0)
(23.21439 -0.0004368675 0)
(23.21469 -0.0004367343 0)
(23.21499 -0.0004363877 0)
(23.21528 -0.0004358251 0)
(23.21558 -0.0004350429 0)
(23.21588 -0.0004340365 0)
(23.21618 -0.0004328005 0)
(23.21648 -0.0004313283 0)
(23.21677 -0.0004296123 0)
(23.21707 -0.0004276443 0)
(23.21736 -0.0004254146 0)
(23.21765 -0.0004229129 0)
(23.21794 -0.0004201279 0)
(23.21823 -0.0004170473 0)
(23.21852 -0.000413658 0)
(23.2188 -0.000409946 0)
(23.21908 -0.0004058965 0)
(23.21936 -0.000401494 0)
(23.21963 -0.0003967222 0)
(23.21991 -0.0003915644 0)
(23.22018 -0.0003860032 0)
(23.22044 -0.0003800209 0)
(23.2207 -0.0003735997 0)
(23.22096 -0.0003667216 0)
(23.22121 -0.0003593686 0)
(23.22146 -0.0003515233 0)
(23.2217 -0.0003431687 0)
(23.22193 -0.0003342885 0)
(23.22216 -0.0003248677 0)
(23.22239 -0.0003148924 0)
(23.2226 -0.0003043506 0)
(23.22281 -0.0002932324 0)
(23.22302 -0.0002815299 0)
(23.22321 -0.0002692384 0)
(23.2234 -0.000256356 0)
(23.22358 -0.0002428843 0)
(23.22374 -0.0002288286 0)
(23.2239 -0.0002141985 0)
(23.22405 -0.0001990078 0)
(23.22419 -0.0001832749 0)
(23.22432 -0.0001670231 0)
(23.22444 -0.0001502807 0)
(23.22454 -0.0001330814 0)
(23.22464 -0.0001154645 0)
(23.22472 -9.747591e-05 0)
(23.22479 -7.917009e-05 0)
(23.22485 -6.061315e-05 0)
(23.2249 -4.189947e-05 0)
(23.22493 -2.314422e-05 0)
(23.22496 -4.690386e-06 0)
(33.5971 -0.001450622 0)
(25.41404 -0.0007384807 0)
(22.10734 -0.000391298 0)
(22.98405 -0.0004058189 0)
(23.31926 -0.000391903 0)
(23.22555 -0.0003599941 0)
(23.19174 -0.0003514782 0)
(23.20189 -0.0003558989 0)
(23.20546 -0.0003646929 0)
(23.20453 -0.0003769349 0)
(23.20433 -0.0003918494 0)
(23.20461 -0.0004083226 0)
(23.2048 -0.0004256264 0)
(23.20496 -0.0004433157 0)
(23.20514 -0.0004610634 0)
(23.20533 -0.0004786286 0)
(23.20552 -0.0004958397 0)
(23.20572 -0.0005125746 0)
(23.20593 -0.0005287471 0)
(23.20615 -0.0005442975 0)
(23.20637 -0.0005591864 0)
(23.20659 -0.0005733899 0)
(23.20683 -0.0005868961 0)
(23.20707 -0.0005997019 0)
(23.20731 -0.000611812 0)
(23.20756 -0.0006232358 0)
(23.20781 -0.0006339875 0)
(23.20807 -0.0006440838 0)
(23.20833 -0.0006535441 0)
(23.20859 -0.0006623889 0)
(23.20886 -0.0006706402 0)
(23.20913 -0.0006783199 0)
(23.20941 -0.0006854503 0)
(23.20969 -0.0006920534 0)
(23.20997 -0.0006981508 0)
(23.21025 -0.0007037631 0)
(23.21053 -0.0007089104 0)
(23.21082 -0.0007136113 0)
(23.21111 -0.0007178836 0)
(23.2114 -0.0007217439 0)
(23.21169 -0.000725207 0)
(23.21199 -0.0007282869 0)
(23.21228 -0.0007309958 0)
(23.21258 -0.0007333447 0)
(23.21287 -0.0007353427 0)
(23.21317 -0.000736998 0)
(23.21347 -0.0007383167 0)
(23.21376 -0.0007393038 0)
(23.21406 -0.0007399623 0)
(23.21436 -0.0007402942 0)
(23.21466 -0.0007402993 0)
(23.21496 -0.0007399766 0)
(23.21526 -0.0007393227 0)
(23.21556 -0.0007383332 0)
(23.21586 -0.0007370017 0)
(23.21615 -0.0007353207 0)
(23.21645 -0.0007332806 0)
(23.21674 -0.0007308705 0)
(23.21704 -0.0007280775 0)
(23.21733 -0.0007248877 0)
(23.21763 -0.0007212851 0)
(23.21792 -0.0007172524 0)
(23.2182 -0.0007127703 0)
(23.21849 -0.0007078187 0)
(23.21878 -0.0007023754 0)
(23.21906 -0.000696417 0)
(23.21934 -0.0006899186 0)
(23.21962 -0.0006828543 0)
(23.21989 -0.0006751968 0)
(23.22016 -0.000666918 0)
(23.22043 -0.0006579887 0)
(23.22069 -0.0006483793 0)
(23.22095 -0.0006380595 0)
(23.22121 -0.0006269993 0)
(23.22146 -0.0006151684 0)
(23.22171 -0.0006025372 0)
(23.22195 -0.0005890768 0)
(23.22218 -0.00057476 0)
(23.22241 -0.0005595609 0)
(23.22264 -0.0005434561 0)
(23.22285 -0.000526425 0)
(23.22306 -0.0005084503 0)
(23.22326 -0.0004895185 0)
(23.22346 -0.0004696211 0)
(23.22364 -0.0004487542 0)
(23.22382 -0.0004269201 0)
(23.22399 -0.000404127 0)
(23.22415 -0.0003803902 0)
(23.22429 -0.0003557322 0)
(23.22443 -0.0003301833 0)
(23.22456 -0.0003037816 0)
(23.22468 -0.0002765738 0)
(23.22478 -0.0002486148 0)
(23.22488 -0.0002199683 0)
(23.22496 -0.0001907063 0)
(23.22503 -0.0001609092 0)
(23.22509 -0.0001306642 0)
(23.22513 -0.0001000621 0)
(23.22517 -6.918385e-05 0)
(23.22519 -3.805745e-05 0)
(33.5967 -0.001001462 0)
(25.41456 -0.0008512633 0)
(22.10789 -0.0006477821 0)
(22.98451 -0.0005862777 0)
(23.31971 -0.0005421844 0)
(23.226 -0.0005010526 0)
(23.19217 -0.0004807933 0)
(23.2023 -0.0004780531 0)
(23.20585 -0.0004856826 0)
(23.20492 -0.0005003281 0)
(23.20472 -0.0005198995 0)
(23.20498 -0.0005426077 0)
(23.20518 -0.0005671462 0)
(23.20533 -0.0005926254 0)
(23.20551 -0.0006184202 0)
(23.20569 -0.0006440857 0)
(23.20589 -0.0006693092 0)
(23.20609 -0.0006938726 0)
(23.2063 -0.0007176254 0)
(23.20651 -0.0007404665 0)
(23.20673 -0.0007623306 0)
(23.20696 -0.0007831794 0)
(23.20719 -0.0008029944 0)
(23.20743 -0.0008217722 0)
(23.20767 -0.0008395205 0)
(23.20792 -0.0008562555 0)
(23.20818 -0.0008719995 0)
(23.20843 -0.0008867791 0)
(23.2087 -0.0009006243 0)
(23.20896 -0.000913567 0)
(23.20923 -0.0009256402 0)
(23.2095 -0.0009368774 0)
(23.20978 -0.0009473121 0)
(23.21006 -0.0009569771 0)
(23.21034 -0.0009659044 0)
(23.21062 -0.0009741248 0)
(23.2109 -0.0009816676 0)
(23.21119 -0.0009885605 0)
(23.21148 -0.0009948294 0)
(23.21177 -0.001000498 0)
(23.21206 -0.001005589 0)
(23.21236 -0.001010123 0)
(23.21265 -0.001014116 0)
(23.21295 -0.001017585 0)
(23.21324 -0.001020543 0)
(23.21354 -0.001023002 0)
(23.21384 -0.001024971 0)
(23.21414 -0.001026457 0)
(23.21444 -0.001027465 0)
(23.21474 -0.001027997 0)
(23.21503 -0.001028054 0)
(23.21533 -0.001027634 0)
(23.21563 -0.001026732 0)
(23.21593 -0.001025343 0)
(23.21623 -0.001023458 0)
(23.21653 -0.001021065 0)
(23.21682 -0.001018152 0)
(23.21712 -0.001014704 0)
(23.21741 -0.001010702 0)
(23.21771 -0.001006127 0)
(23.218 -0.001000956 0)
(23.21829 -0.0009951662 0)
(23.21858 -0.0009887295 0)
(23.21887 -0.0009816177 0)
(23.21915 -0.0009737999 0)
(23.21944 -0.0009652432 0)
(23.21972 -0.0009559129 0)
(23.22 -0.0009457723 0)
(23.22027 -0.0009347833 0)
(23.22054 -0.0009229062 0)
(23.22081 -0.0009101001 0)
(23.22108 -0.0008963232 0)
(23.22134 -0.0008815332 0)
(23.22159 -0.0008656872 0)
(23.22184 -0.0008487428 0)
(23.22209 -0.0008306581 0)
(23.22233 -0.0008113923 0)
(23.22257 -0.0007909065 0)
(23.2228 -0.0007691643 0)
(23.22302 -0.0007461322 0)
(23.22324 -0.0007217808 0)
(23.22345 -0.0006960852 0)
(23.22365 -0.0006690261 0)
(23.22385 -0.0006405907 0)
(23.22403 -0.0006107732 0)
(23.22421 -0.000579576 0)
(23.22438 -0.0005470103 0)
(23.22454 -0.0005130971 0)
(23.22469 -0.0004778675 0)
(23.22483 -0.0004413636 0)
(23.22496 -0.0004036389 0)
(23.22508 -0.0003647583 0)
(23.22518 -0.0003247988 0)
(23.22528 -0.000283849 0)
(23.22536 -0.0002420092 0)
(23.22543 -0.0001993912 0)
(23.22549 -0.0001561169 0)
(23.22554 -0.0001123197 0)
(23.22557 -6.812976e-05 0)
(23.22559 -2.372196e-05 0)
(33.59657 -0.0005608417 0)
(25.41491 -0.00053416 0)
(22.10823 -0.0004600651 0)
(22.98476 -0.0004624021 0)
(23.31993 -0.0004792338 0)
(23.2262 -0.0004951542 0)
(23.19236 -0.0005181903 0)
(23.20248 -0.0005483117 0)
(23.20603 -0.0005822571 0)
(23.20509 -0.0006183227 0)
(23.20489 -0.0006556111 0)
(23.20515 -0.0006933504 0)
(23.20535 -0.0007309374 0)
(23.20551 -0.0007679536 0)
(23.20568 -0.0008041035 0)
(23.20587 -0.0008391756 0)
(23.20607 -0.0008730213 0)
(23.20627 -0.0009055402 0)
(23.20648 -0.000936668 0)
(23.20669 -0.0009663676 0)
(23.20692 -0.0009946234 0)
(23.20715 -0.001021436 0)
(23.20738 -0.001046819 0)
(23.20762 -0.001070795 0)
(23.20787 -0.001093396 0)
(23.20812 -0.001114659 0)
(23.20837 -0.001134623 0)
(23.20863 -0.001153333 0)
(23.20889 -0.001170835 0)
(23.20916 -0.001187175 0)
(23.20943 -0.001202399 0)
(23.2097 -0.001216556 0)
(23.20998 -0.00122969 0)
(23.21026 -0.001241845 0)
(23.21054 -0.001253065 0)
(23.21082 -0.001263391 0)
(23.21111 -0.001272862 0)
(23.2114 -0.001281513 0)
(23.21169 -0.001289379 0)
(23.21198 -0.001296493 0)
(23.21227 -0.001302881 0)
(23.21257 -0.001308571 0)
(23.21286 -0.001313587 0)
(23.21316 -0.001317947 0)
(23.21345 -0.001321672 0)
(23.21375 -0.001324775 0)
(23.21405 -0.001327268 0)
(23.21435 -0.001329161 0)
(23.21465 -0.00133046 0)
(23.21495 -0.001331169 0)
(23.21525 -0.001331288 0)
(23.21555 -0.001330816 0)
(23.21585 -0.001329746 0)
(23.21615 -0.001328071 0)
(23.21645 -0.00132578 0)
(23.21674 -0.001322859 0)
(23.21704 -0.001319291 0)
(23.21734 -0.001315057 0)
(23.21763 -0.001310134 0)
(23.21793 -0.001304496 0)
(23.21822 -0.001298115 0)
(23.21851 -0.00129096 0)
(23.2188 -0.001282995 0)
(23.21909 -0.001274185 0)
(23.21938 -0.001264489 0)
(23.21966 -0.001253865 0)
(23.21994 -0.001242268 0)
(23.22022 -0.00122965 0)
(23.2205 -0.001215962 0)
(23.22077 -0.001201152 0)
(23.22104 -0.001185168 0)
(23.22131 -0.001167954 0)
(23.22157 -0.001149456 0)
(23.22183 -0.001129618 0)
(23.22208 -0.001108384 0)
(23.22233 -0.001085699 0)
(23.22257 -0.00106151 0)
(23.22281 -0.001035764 0)
(23.22304 -0.001008415 0)
(23.22327 -0.0009794173 0)
(23.22348 -0.0009487316 0)
(23.2237 -0.0009163243 0)
(23.2239 -0.0008821689 0)
(23.2241 -0.0008462473 0)
(23.22428 -0.0008085505 0)
(23.22446 -0.0007690798 0)
(23.22463 -0.0007278482 0)
(23.2248 -0.0006848812 0)
(23.22495 -0.0006402177 0)
(23.22509 -0.0005939107 0)
(23.22522 -0.000546028 0)
(23.22534 -0.0004966525 0)
(23.22544 -0.0004458822 0)
(23.22554 -0.0003938303 0)
(23.22562 -0.0003406242 0)
(23.2257 -0.000286405 0)
(23.22576 -0.0002313247 0)
(23.2258 -0.0001755471 0)
(23.22583 -0.0001192291 0)
(23.22586 -6.259469e-05 0)
(33.59639 -0.0004143572 0)
(25.41497 -0.0005064891 0)
(22.10832 -0.0005306976 0)
(22.98484 -0.0005710557 0)
(23.32002 -0.000608058 0)
(23.2263 -0.0006388183 0)
(23.19246 -0.000670184 0)
(23.20258 -0.0007047295 0)
(23.20613 -0.0007420225 0)
(23.20519 -0.0007814104 0)
(23.20498 -0.0008223462 0)
(23.20525 -0.0008642251 0)
(23.20544 -0.0009064595 0)
(23.2056 -0.0009485517 0)
(23.20578 -0.0009900987 0)
(23.20597 -0.00103078 0)
(23.20616 -0.001070348 0)
(23.20637 -0.001108617 0)
(23.20658 -0.001145451 0)
(23.20679 -0.001180758 0)
(23.20702 -0.001214479 0)
(23.20725 -0.00124658 0)
(23.20748 -0.001277052 0)
(23.20773 -0.001305901 0)
(23.20797 -0.001333147 0)
(23.20822 -0.001358821 0)
(23.20848 -0.00138296 0)
(23.20874 -0.001405609 0)
(23.209 -0.001426815 0)
(23.20927 -0.001446628 0)
(23.20954 -0.001465102 0)
(23.20982 -0.001482288 0)
(23.21009 -0.001498239 0)
(23.21037 -0.001513005 0)
(23.21066 -0.001526637 0)
(23.21094 -0.001539181 0)
(23.21123 -0.001550684 0)
(23.21152 -0.001561187 0)
(23.21181 -0.001570732 0)
(23.2121 -0.001579356 0)
(23.21239 -0.001587091 0)
(23.21269 -0.00159397 0)
(23.21298 -0.00160002 0)
(23.21328 -0.001605264 0)
(23.21358 -0.001609724 0)
(23.21388 -0.001613418 0)
(23.21417 -0.001616359 0)
(23.21447 -0.001618559 0)
(23.21477 -0.001620023 0)
(23.21507 -0.001620757 0)
(23.21537 -0.00162076 0)
(23.21568 -0.00162003 0)
(23.21598 -0.00161856 0)
(23.21628 -0.001616339 0)
(23.21657 -0.001613354 0)
(23.21687 -0.001609588 0)
(23.21717 -0.00160502 0)
(23.21747 -0.001599625 0)
(23.21776 -0.001593377 0)
(23.21806 -0.001586244 0)
(23.21835 -0.00157819 0)
(23.21865 -0.001569177 0)
(23.21894 -0.001559164 0)
(23.21923 -0.001548104 0)
(23.21951 -0.001535949 0)
(23.2198 -0.001522647 0)
(23.22008 -0.001508142 0)
(23.22036 -0.001492377 0)
(23.22064 -0.00147529 0)
(23.22091 -0.001456818 0)
(23.22118 -0.001436895 0)
(23.22145 -0.001415454 0)
(23.22171 -0.001392428 0)
(23.22197 -0.001367746 0)
(23.22223 -0.00134134 0)
(23.22248 -0.001313141 0)
(23.22272 -0.001283083 0)
(23.22296 -0.001251101 0)
(23.22319 -0.001217135 0)
(23.22342 -0.001181128 0)
(23.22364 -0.001143031 0)
(23.22386 -0.001102801 0)
(23.22406 -0.001060403 0)
(23.22426 -0.001015813 0)
(23.22445 -0.0009690187 0)
(23.22463 -0.0009200192 0)
(23.2248 -0.000868829 0)
(23.22497 -0.0008154777 0)
(23.22512 -0.0007600116 0)
(23.22526 -0.0007024947 0)
(23.22539 -0.0006430093 0)
(23.22551 -0.0005816566 0)
(23.22562 -0.0005185568 0)
(23.22572 -0.0004538489 0)
(23.22581 -0.0003876898 0)
(23.22588 -0.000320254 0)
(23.22594 -0.0002517298 0)
(23.22599 -0.0001823228 0)
(23.22602 -0.0001122324 0)
(23.22604 -4.175027e-05 0)
(33.59628 -0.0003045868 0)
(25.41502 -0.0004204228 0)
(22.10841 -0.0004753176 0)
(22.98492 -0.0005343099 0)
(23.3201 -0.000592543 0)
(23.22637 -0.0006478332 0)
(23.19253 -0.000703036 0)
(23.20264 -0.0007596378 0)
(23.20619 -0.0008173698 0)
(23.20524 -0.0008755905 0)
(23.20504 -0.0009337597 0)
(23.2053 -0.0009913885 0)
(23.2055 -0.001048034 0)
(23.20566 -0.001103335 0)
(23.20583 -0.001157009 0)
(23.20602 -0.001208848 0)
(23.20622 -0.001258701 0)
(23.20643 -0.001306465 0)
(23.20664 -0.001352077 0)
(23.20686 -0.001395509 0)
(23.20708 -0.001436755 0)
(23.20732 -0.001475831 0)
(23.20755 -0.00151277 0)
(23.2078 -0.001547617 0)
(23.20805 -0.001580425 0)
(23.2083 -0.001611256 0)
(23.20856 -0.001640177 0)
(23.20882 -0.001667258 0)
(23.20908 -0.001692569 0)
(23.20935 -0.001716183 0)
(23.20963 -0.001738174 0)
(23.2099 -0.001758611 0)
(23.21018 -0.001777564 0)
(23.21046 -0.001795101 0)
(23.21075 -0.001811285 0)
(23.21103 -0.001826179 0)
(23.21132 -0.001839839 0)
(23.21161 -0.00185232 0)
(23.2119 -0.001863673 0)
(23.21219 -0.001873945 0)
(23.21249 -0.001883177 0)
(23.21278 -0.001891409 0)
(23.21308 -0.001898675 0)
(23.21338 -0.001905004 0)
(23.21368 -0.001910425 0)
(23.21398 -0.001914957 0)
(23.21428 -0.00191862 0)
(23.21458 -0.001921426 0)
(23.21488 -0.001923386 0)
(23.21518 -0.001924504 0)
(23.21548 -0.001924781 0)
(23.21578 -0.001924215 0)
(23.21608 -0.001922798 0)
(23.21638 -0.001920518 0)
(23.21668 -0.001917361 0)
(23.21698 -0.001913305 0)
(23.21728 -0.001908328 0)
(23.21758 -0.001902399 0)
(23.21788 -0.001895487 0)
(23.21817 -0.001887555 0)
(23.21847 -0.001878561 0)
(23.21876 -0.001868459 0)
(23.21905 -0.0018572 0)
(23.21934 -0.001844731 0)
(23.21963 -0.001830992 0)
(23.21992 -0.001815922 0)
(23.2202 -0.001799455 0)
(23.22048 -0.001781521 0)
(23.22076 -0.001762048 0)
(23.22104 -0.001740959 0)
(23.22131 -0.001718176 0)
(23.22158 -0.001693619 0)
(23.22185 -0.001667204 0)
(23.22211 -0.001638849 0)
(23.22236 -0.001608469 0)
(23.22261 -0.001575981 0)
(23.22286 -0.001541305 0)
(23.2231 -0.001504362 0)
(23.22334 -0.001465076 0)
(23.22357 -0.00142338 0)
(23.22379 -0.001379209 0)
(23.22401 -0.00133251 0)
(23.22422 -0.001283239 0)
(23.22442 -0.001231363 0)
(23.22461 -0.001176865 0)
(23.22479 -0.00111974 0)
(23.22497 -0.001060001 0)
(23.22513 -0.000997682 0)
(23.22529 -0.000932834 0)
(23.22543 -0.0008655308 0)
(23.22557 -0.0007958683 0)
(23.22569 -0.0007239652 0)
(23.2258 -0.0006499636 0)
(23.2259 -0.0005740281 0)
(23.22599 -0.0004963456 0)
(23.22606 -0.0004171236 0)
(23.22612 -0.0003365872 0)
(23.22617 -0.0002549823 0)
(23.2262 -0.0001725476 0)
(23.22623 -8.963498e-05 0)
(33.59616 -0.0002652303 0)
(25.41498 -0.0004133416 0)
(22.1084 -0.0005046335 0)
(22.98491 -0.0005926619 0)
(23.3201 -0.0006768665 0)
(23.22638 -0.0007549695 0)
(23.19254 -0.0008288556 0)
(23.20265 -0.0009004621 0)
(23.2062 -0.0009704946 0)
(23.20526 -0.001039071 0)
(23.20505 -0.001106196 0)
(23.20532 -0.001171793 0)
(23.20552 -0.001235716 0)
(23.20568 -0.001297797 0)
(23.20586 -0.001357878 0)
(23.20605 -0.001415823 0)
(23.20625 -0.001471526 0)
(23.20646 -0.001524904 0)
(23.20667 -0.001575906 0)
(23.2069 -0.001624503 0)
(23.20712 -0.001670692 0)
(23.20736 -0.001714487 0)
(23.2076 -0.001755917 0)
(23.20784 -0.001795027 0)
(23.2081 -0.001831872 0)
(23.20835 -0.001866514 0)
(23.20861 -0.001899023 0)
(23.20887 -0.001929471 0)
(23.20914 -0.001957936 0)
(23.20941 -0.001984494 0)
(23.20969 -0.002009223 0)
(23.20996 -0.002032201 0)
(23.21024 -0.002053502 0)
(23.21053 -0.0020732 0)
(23.21081 -0.002091365 0)
(23.2111 -0.002108065 0)
(23.21139 -0.002123363 0)
(23.21168 -0.002137319 0)
(23.21197 -0.002149987 0)
(23.21226 -0.002161421 0)
(23.21256 -0.002171665 0)
(23.21286 -0.002180764 0)
(23.21315 -0.002188754 0)
(23.21345 -0.002195669 0)
(23.21375 -0.002201537 0)
(23.21405 -0.002206383 0)
(23.21435 -0.002210226 0)
(23.21466 -0.002213079 0)
(23.21496 -0.002214954 0)
(23.21526 -0.002215856 0)
(23.21556 -0.002215784 0)
(23.21586 -0.002214735 0)
(23.21616 -0.0022127 0)
(23.21647 -0.002209665 0)
(23.21677 -0.002205612 0)
(23.21707 -0.002200517 0)
(23.21737 -0.002194352 0)
(23.21767 -0.002187084 0)
(23.21796 -0.002178676 0)
(23.21826 -0.002169084 0)
(23.21856 -0.002158261 0)
(23.21885 -0.002146154 0)
(23.21915 -0.002132706 0)
(23.21944 -0.002117854 0)
(23.21973 -0.002101531 0)
(23.22001 -0.002083664 0)
(23.2203 -0.002064179 0)
(23.22058 -0.002042993 0)
(23.22086 -0.002020023 0)
(23.22114 -0.001995179 0)
(23.22141 -0.00196837 0)
(23.22168 -0.001939502 0)
(23.22195 -0.001908478 0)
(23.22221 -0.0018752 0)
(23.22247 -0.001839569 0)
(23.22273 -0.001801487 0)
(23.22298 -0.001760858 0)
(23.22322 -0.001717588 0)
(23.22346 -0.001671588 0)
(23.22369 -0.001622774 0)
(23.22392 -0.001571071 0)
(23.22413 -0.001516411 0)
(23.22435 -0.001458741 0)
(23.22455 -0.001398018 0)
(23.22474 -0.001334217 0)
(23.22493 -0.00126733 0)
(23.22511 -0.001197369 0)
(23.22528 -0.001124368 0)
(23.22543 -0.001048385 0)
(23.22558 -0.0009695017 0)
(23.22572 -0.0008878281 0)
(23.22584 -0.0008035011 0)
(23.22596 -0.0007166852 0)
(23.22606 -0.0006275726 0)
(23.22615 -0.0005363819 0)
(23.22622 -0.0004433574 0)
(23.22628 -0.0003487648 0)
(23.22633 -0.0002528957 0)
(23.22637 -0.0001560345 0)
(23.22639 -5.860229e-05 0)
(33.59606 -0.0002408512 0)
(25.41494 -0.0004023802 0)
(22.10839 -0.0005088313 0)
(22.98491 -0.000609764 0)
(23.32009 -0.0007081111 0)
(23.22638 -0.0008012704 0)
(23.19254 -0.0008902222 0)
(23.20266 -0.0009766095 0)
(23.20621 -0.001061073 0)
(23.20527 -0.00114365 0)
(23.20506 -0.001224259 0)
(23.20533 -0.00130277 0)
(23.20553 -0.001379001 0)
(23.20569 -0.001452764 0)
(23.20587 -0.001523897 0)
(23.20607 -0.001592265 0)
(23.20627 -0.001657771 0)
(23.20648 -0.001720351 0)
(23.2067 -0.001779975 0)
(23.20692 -0.001836638 0)
(23.20715 -0.001890361 0)
(23.20739 -0.001941186 0)
(23.20763 -0.00198917 0)
(23.20788 -0.002034385 0)
(23.20813 -0.002076912 0)
(23.20839 -0.002116839 0)
(23.20865 -0.002154261 0)
(23.20892 -0.002189275 0)
(23.20919 -0.00222198 0)
(23.20946 -0.002252475 0)
(23.20974 -0.002280858 0)
(23.21002 -0.002307225 0)
(23.2103 -0.00233167 0)
(23.21058 -0.002354283 0)
(23.21087 -0.002375149 0)
(23.21116 -0.00239435 0)
(23.21145 -0.002411962 0)
(23.21174 -0.002428059 0)
(23.21204 -0.002442706 0)
(23.21233 -0.002455964 0)
(23.21263 -0.002467891 0)
(23.21293 -0.002478535 0)
(23.21322 -0.002487943 0)
(23.21352 -0.002496154 0)
(23.21383 -0.002503203 0)
(23.21413 -0.002509117 0)
(23.21443 -0.00251392 0)
(23.21473 -0.00251763 0)
(23.21503 -0.002520258 0)
(23.21534 -0.002521812 0)
(23.21564 -0.002522294 0)
(23.21594 -0.002521698 0)
(23.21625 -0.002520015 0)
(23.21655 -0.002517231 0)
(23.21685 -0.002513325 0)
(23.21715 -0.00250827 0)
(23.21745 -0.002502034 0)
(23.21775 -0.002494582 0)
(23.21805 -0.002485869 0)
(23.21835 -0.002475847 0)
(23.21865 -0.002464462 0)
(23.21895 -0.002451654 0)
(23.21924 -0.002437357 0)
(23.21953 -0.0024215 0)
(23.21982 -0.002404006 0)
(23.22011 -0.002384793 0)
(23.2204 -0.002363773 0)
(23.22069 -0.002340853 0)
(23.22097 -0.002315937 0)
(23.22125 -0.002288921 0)
(23.22152 -0.0022597 0)
(23.2218 -0.002228165 0)
(23.22207 -0.002194203 0)
(23.22233 -0.0021577 0)
(23.22259 -0.00211854 0)
(23.22285 -0.00207661 0)
(23.2231 -0.002031795 0)
(23.22335 -0.001983984 0)
(23.22359 -0.001933071 0)
(23.22382 -0.001878956 0)
(23.22405 -0.001821547 0)
(23.22428 -0.001760762 0)
(23.22449 -0.001696533 0)
(23.2247 -0.001628807 0)
(23.2249 -0.001557549 0)
(23.22509 -0.001482742 0)
(23.22527 -0.001404395 0)
(23.22544 -0.001322541 0)
(23.2256 -0.00123724 0)
(23.22575 -0.001148584 0)
(23.22589 -0.001056692 0)
(23.22602 -0.00096172 0)
(23.22613 -0.0008638539 0)
(23.22624 -0.0007633135 0)
(23.22633 -0.0006603503 0)
(23.2264 -0.0005552465 0)
(23.22647 -0.0004483102 0)
(23.22652 -0.0003398806 0)
(23.22655 -0.0002302897 0)
(23.22658 -0.0001200289 0)
(33.59596 -0.0002376816 0)
(25.41487 -0.0004170917 0)
(22.10834 -0.0005418423 0)
(22.98487 -0.0006611292 0)
(23.32006 -0.0007791046 0)
(23.22635 -0.0008917244 0)
(23.19251 -0.0009989159 0)
(23.20264 -0.001102003 0)
(23.20619 -0.001201594 0)
(23.20525 -0.0012978 0)
(23.20505 -0.001390674 0)
(23.20532 -0.001480243 0)
(23.20552 -0.001566487 0)
(23.20569 -0.00164936 0)
(23.20587 -0.001728821 0)
(23.20607 -0.001804837 0)
(23.20628 -0.001877392 0)
(23.20649 -0.001946492 0)
(23.20671 -0.002012156 0)
(23.20694 -0.002074427 0)
(23.20717 -0.002133361 0)
(23.20741 -0.002189029 0)
(23.20766 -0.002241514 0)
(23.20791 -0.002290909 0)
(23.20817 -0.002337315 0)
(23.20843 -0.002380838 0)
(23.20869 -0.002421587 0)
(23.20896 -0.002459673 0)
(23.20923 -0.002495209 0)
(23.20951 -0.002528305 0)
(23.20978 -0.002559071 0)
(23.21007 -0.002587612 0)
(23.21035 -0.002614033 0)
(23.21063 -0.002638431 0)
(23.21092 -0.002660902 0)
(23.21121 -0.002681533 0)
(23.21151 -0.002700408 0)
(23.2118 -0.002717607 0)
(23.21209 -0.002733201 0)
(23.21239 -0.002747258 0)
(23.21269 -0.002759837 0)
(23.21299 -0.002770994 0)
(23.21329 -0.002780777 0)
(23.21359 -0.00278923 0)
(23.21389 -0.002796389 0)
(23.21419 -0.002802285 0)
(23.2145 -0.002806943 0)
(23.2148 -0.002810381 0)
(23.2151 -0.002812613 0)
(23.21541 -0.002813646 0)
(23.21571 -0.00281348 0)
(23.21602 -0.002812111 0)
(23.21632 -0.002809528 0)
(23.21662 -0.002805714 0)
(23.21693 -0.002800645 0)
(23.21723 -0.002794293 0)
(23.21753 -0.002786623 0)
(23.21783 -0.002777592 0)
(23.21813 -0.002767154 0)
(23.21843 -0.002755254 0)
(23.21873 -0.002741831 0)
(23.21903 -0.002726819 0)
(23.21933 -0.002710145 0)
(23.21962 -0.002691729 0)
(23.21991 -0.002671485 0)
(23.2202 -0.002649321 0)
(23.22049 -0.002625138 0)
(23.22078 -0.002598833 0)
(23.22106 -0.002570295 0)
(23.22135 -0.00253941 0)
(23.22162 -0.002506056 0)
(23.2219 -0.002470112 0)
(23.22217 -0.002431447 0)
(23.22244 -0.002389933 0)
(23.2227 -0.002345436 0)
(23.22296 -0.002297826 0)
(23.22322 -0.002246969 0)
(23.22347 -0.002192738 0)
(23.22371 -0.002135008 0)
(23.22395 -0.002073661 0)
(23.22418 -0.002008589 0)
(23.22441 -0.001939693 0)
(23.22463 -0.001866889 0)
(23.22484 -0.001790112 0)
(23.22504 -0.001709313 0)
(23.22523 -0.001624468 0)
(23.22542 -0.00153558 0)
(23.22559 -0.00144268 0)
(23.22576 -0.001345829 0)
(23.22591 -0.001245124 0)
(23.22605 -0.0011407 0)
(23.22618 -0.001032727 0)
(23.2263 -0.0009214147 0)
(23.22641 -0.0008070122 0)
(23.2265 -0.000689806 0)
(23.22658 -0.0005701195 0)
(23.22665 -0.0004483073 0)
(23.2267 -0.0003247615 0)
(23.22674 -0.0001998664 0)
(23.22676 -7.419298e-05 0)
(33.59586 -0.0002411361 0)
(25.4148 -0.0004350419 0)
(22.10829 -0.0005726157 0)
(22.98482 -0.000704528 0)
(23.32002 -0.0008362031 0)
(23.22631 -0.0009627113 0)
(23.19249 -0.001083461 0)
(23.20261 -0.00119969 0)
(23.20616 -0.001311972 0)
(23.20523 -0.001420393 0)
(23.20503 -0.001524992 0)
(23.20531 -0.001625795 0)
(23.20551 -0.00172278 0)
(23.20568 -0.0018159 0)
(23.20587 -0.001905113 0)
(23.20607 -0.001990388 0)
(23.20628 -0.002071716 0)
(23.2065 -0.002149107 0)
(23.20672 -0.002222593 0)
(23.20695 -0.002292227 0)
(23.20719 -0.002358082 0)
(23.20743 -0.002420246 0)
(23.20768 -0.00247882 0)
(23.20794 -0.002533918 0)
(23.2082 -0.00258566 0)
(23.20846 -0.002634172 0)
(23.20873 -0.002679585 0)
(23.209 -0.002722029 0)
(23.20927 -0.002761637 0)
(23.20955 -0.002798538 0)
(23.20983 -0.002832859 0)
(23.21011 -0.002864725 0)
(23.2104 -0.002894254 0)
(23.21069 -0.00292156 0)
(23.21098 -0.002946753 0)
(23.21127 -0.002969933 0)
(23.21156 -0.002991198 0)
(23.21186 -0.003010636 0)
(23.21216 -0.003028331 0)
(23.21246 -0.003044358 0)
(23.21275 -0.003058787 0)
(23.21306 -0.00307168 0)
(23.21336 -0.003083091 0)
(23.21366 -0.00309307 0)
(23.21396 -0.003101659 0)
(23.21427 -0.003108891 0)
(23.21457 -0.003114796 0)
(23.21488 -0.003119394 0)
(23.21518 -0.003122701 0)
(23.21549 -0.003124724 0)
(23.21579 -0.003125464 0)
(23.2161 -0.003124918 0)
(23.2164 -0.003123071 0)
(23.21671 -0.003119906 0)
(23.21701 -0.003115397 0)
(23.21732 -0.003109511 0)
(23.21762 -0.00310221 0)
(23.21792 -0.003093448 0)
(23.21823 -0.00308317 0)
(23.21853 -0.003071318 0)
(23.21883 -0.003057823 0)
(23.21913 -0.003042612 0)
(23.21942 -0.003025602 0)
(23.21972 -0.003006704 0)
(23.22002 -0.002985823 0)
(23.22031 -0.002962855 0)
(23.2206 -0.00293769 0)
(23.22089 -0.002910211 0)
(23.22118 -0.002880293 0)
(23.22146 -0.002847808 0)
(23.22174 -0.00281262 0)
(23.22202 -0.002774587 0)
(23.2223 -0.002733564 0)
(23.22257 -0.002689404 0)
(23.22283 -0.002641954 0)
(23.2231 -0.002591062 0)
(23.22336 -0.002536577 0)
(23.22361 -0.002478348 0)
(23.22386 -0.002416232 0)
(23.2241 -0.002350087 0)
(23.22434 -0.002279786 0)
(23.22457 -0.00220521 0)
(23.22479 -0.002126256 0)
(23.225 -0.002042839 0)
(23.22521 -0.001954899 0)
(23.22541 -0.001862397 0)
(23.2256 -0.001765325 0)
(23.22578 -0.001663709 0)
(23.22594 -0.001557611 0)
(23.2261 -0.001447129 0)
(23.22625 -0.001332409 0)
(23.22638 -0.001213636 0)
(23.22651 -0.001091042 0)
(23.22661 -0.0009649065 0)
(23.22671 -0.0008355518 0)
(23.22679 -0.0007033447 0)
(23.22686 -0.0005686894 0)
(23.22691 -0.0004320351 0)
(23.22695 -0.0002938232 0)
(23.22698 -0.0001547106 0)
(33.59575 -0.0002524204 0)
(25.41471 -0.0004632161 0)
(22.10822 -0.0006151694 0)
(22.98476 -0.0007619417 0)
(23.31996 -0.0009098347 0)
(23.22626 -0.001052862 0)
(23.19244 -0.001189796 0)
(23.20257 -0.001321627 0)
(23.20612 -0.001448747 0)