/*--------------------------------*- C++ -*----------------------------------*\
| =========                 |                                                 |
| \\      /  F ield         | OpenFOAM: The Open Source CFD Toolbox           |
|  \\    /   O peration     | Version:  2.3.0                                 |
|   \\  /    A nd           | Web:      www.OpenFOAM.org                      |
|    \\/     M anipulation  |                                                 |
\*---------------------------------------------------------------------------*/
FoamFile
{
    version     2.0;
    format      ascii;
    class       surfaceScalarField;
    location    "9800/bottomAir";
    object      phi;
}
// * * * * * * * * * * * * * * * * * * * * * * * * * * * * * * * * * * * * * //

dimensions      [1 0 -1 0 0 0 0];

internalField   nonuniform List<scalar> 
7860
(
0.006688851
-1.218762e-06
0.006689207
-3.549987e-07
0.006689298
-9.004055e-08
0.006689411
-1.127164e-07
0.006689495
-8.293186e-08
0.00668955
-5.460268e-08
0.006689596
-4.626361e-08
0.00668964
-4.357956e-08
0.006689682
-4.222343e-08
0.006689724
-4.234162e-08
0.006689768
-4.346907e-08
0.006689813
-4.50799e-08
0.00668986
-4.694523e-08
0.006689909
-4.895058e-08
0.00668996
-5.101673e-08
0.006690013
-5.308971e-08
0.006690068
-5.51363e-08
0.006690125
-5.713456e-08
0.006690184
-5.906998e-08
0.006690244
-6.093313e-08
0.006690307
-6.271782e-08
0.006690371
-6.442071e-08
0.006690437
-6.603981e-08
0.006690505
-6.757488e-08
0.006690574
-6.902618e-08
0.006690644
-7.039513e-08
0.006690716
-7.168326e-08
0.006690789
-7.289287e-08
0.006690863
-7.402616e-08
0.006690938
-7.508582e-08
0.006691014
-7.607438e-08
0.006691091
-7.699465e-08
0.006691168
-7.784923e-08
0.006691247
-7.864087e-08
0.006691326
-7.937209e-08
0.006691406
-8.004544e-08
0.006691487
-8.066327e-08
0.006691568
-8.122787e-08
0.00669165
-8.174134e-08
0.006691732
-8.220564e-08
0.006691815
-8.262259e-08
0.006691897
-8.29938e-08
0.006691981
-8.332079e-08
0.006692064
-8.360478e-08
0.006692148
-8.384697e-08
0.006692232
-8.404822e-08
0.006692316
-8.420937e-08
0.006692401
-8.43309e-08
0.006692485
-8.441331e-08
0.006692569
-8.445671e-08
0.006692654
-8.446123e-08
0.006692738
-8.442661e-08
0.006692823
-8.435262e-08
0.006692907
-8.423862e-08
0.006692991
-8.408401e-08
0.006693075
-8.388778e-08
0.006693158
-8.364896e-08
0.006693242
-8.336617e-08
0.006693325
-8.303806e-08
0.006693407
-8.266287e-08
0.00669349
-8.223891e-08
0.006693571
-8.176402e-08
0.006693653
-8.123615e-08
0.006693733
-8.06528e-08
0.006693813
-8.001156e-08
0.006693893
-7.930961e-08
0.006693971
-7.854421e-08
0.006694049
-7.771223e-08
0.006694126
-7.681068e-08
0.006694201
-7.583618e-08
0.006694276
-7.478552e-08
0.00669435
-7.365515e-08
0.006694422
-7.244175e-08
0.006694493
-7.114172e-08
0.006694563
-6.975174e-08
0.006694631
-6.82683e-08
0.006694698
-6.668822e-08
0.006694763
-6.500827e-08
0.006694826
-6.322564e-08
0.006694888
-6.133754e-08
0.006694947
-5.934178e-08
0.006695004
-5.723628e-08
0.006695059
-5.501969e-08
0.006695112
-5.269093e-08
0.006695162
-5.024976e-08
0.00669521
-4.769635e-08
0.006695255
-4.503186e-08
0.006695297
-4.225797e-08
0.006695336
-3.937746e-08
0.006695373
-3.639377e-08
0.006695406
-3.331149e-08
0.006695436
-3.0136e-08
0.006695463
-2.687395e-08
0.006695487
-2.353303e-08
0.006695507
-2.012262e-08
0.006695523
-1.665435e-08
0.006695536
-1.314364e-08
0.006695546
-9.616658e-09
0.006695552
-6.107598e-09
-2.75282e-09
0.006687862
-6.617465e-07
0.006687866
-3.577045e-07
0.006687929
-1.525816e-07
0.006687947
-1.29656e-07
0.006687975
-1.104516e-07
0.006688011
-8.962951e-08
0.006688046
-8.171777e-08
0.006688083
-8.0287e-08
0.006688122
-8.099833e-08
0.006688163
-8.320823e-08
0.006688206
-8.647379e-08
0.006688251
-9.031205e-08
0.006688298
-9.444227e-08
0.006688348
-9.871035e-08
0.0066884
-1.030111e-07
0.006688454
-1.072725e-07
0.00668851
-1.114464e-07
0.006688568
-1.155004e-07
0.006688629
-1.194129e-07
0.006688691
-1.231696e-07
0.006688755
-1.267616e-07
0.00668882
-1.301838e-07
0.006688888
-1.334344e-07
0.006688957
-1.365133e-07
0.006689027
-1.394225e-07
0.006689099
-1.421647e-07
0.006689172
-1.447441e-07
0.006689246
-1.47165e-07
0.006689321
-1.494326e-07
0.006689398
-1.51552e-07
0.006689475
-1.535288e-07
0.006689553
-1.553685e-07
0.006689632
-1.570766e-07
0.006689712
-1.586586e-07
0.006689793
-1.601195e-07
0.006689874
-1.614647e-07
0.006689956
-1.626987e-07
0.006690039
-1.638262e-07
0.006690122
-1.648515e-07
0.006690206
-1.657785e-07
0.00669029
-1.666109e-07
0.006690374
-1.673518e-07
0.006690458
-1.680044e-07
0.006690543
-1.685712e-07
0.006690629
-1.690543e-07
0.006690714
-1.694558e-07
0.0066908
-1.697771e-07
0.006690885
-1.700195e-07
0.006690971
-1.701836e-07
0.006691057
-1.702699e-07
0.006691142
-1.702786e-07
0.006691228
-1.702092e-07
0.006691314
-1.700611e-07
0.006691399
-1.698332e-07
0.006691485
-1.695242e-07
0.00669157
-1.691322e-07
0.006691655
-1.686551e-07
0.00669174
-1.680904e-07
0.006691824
-1.67435e-07
0.006691908
-1.666857e-07
0.006691992
-1.658389e-07
0.006692075
-1.648907e-07
0.006692157
-1.638364e-07
0.006692239
-1.626714e-07
0.006692321
-1.613907e-07
0.006692402
-1.599889e-07
0.006692481
-1.5846e-07
0.00669256
-1.567984e-07
0.006692639
-1.549975e-07
0.006692716
-1.530509e-07
0.006692792
-1.509519e-07
0.006692867
-1.486936e-07
0.006692941
-1.462691e-07
0.006693013
-1.436715e-07
0.006693084
-1.408937e-07
0.006693154
-1.37929e-07
0.006693222
-1.347707e-07
0.006693289
-1.314126e-07
0.006693353
-1.278486e-07
0.006693416
-1.240735e-07
0.006693477
-1.200825e-07
0.006693535
-1.158717e-07
0.006693592
-1.11438e-07
0.006693646
-1.067795e-07
0.006693697
-1.018953e-07
0.006693747
-9.678598e-08
0.006693793
-9.145355e-08
0.006693837
-8.590163e-08
0.006693877
-8.013537e-08
0.006693915
-7.416191e-08
0.00669395
-6.799007e-08
0.006693981
-6.163076e-08
0.006694009
-5.509672e-08
0.006694034
-4.840286e-08
0.006694056
-4.156614e-08
0.006694074
-3.460586e-08
0.006694088
-2.754365e-08
0.006694099
-2.040451e-08
0.006694106
-1.321471e-08
-6.009196e-09
0.006688135
-3.684574e-07
0.006688033
-2.544604e-07
0.006688035
-1.542417e-07
0.006688046
-1.390568e-07
0.006688067
-1.308765e-07
0.006688098
-1.204763e-07
0.006688133
-1.164703e-07
0.00668817
-1.172314e-07
0.006688209
-1.201524e-07
0.00668825
-1.244964e-07
0.006688294
-1.298664e-07
0.006688339
-1.358516e-07
0.006688387
-1.421643e-07
0.006688436
-1.486207e-07
0.006688488
-1.550929e-07
0.006688543
-1.614891e-07
0.006688599
-1.677455e-07
0.006688657
-1.738178e-07
0.006688717
-1.796755e-07
0.006688779
-1.852984e-07
0.006688843
-1.906738e-07
0.006688909
-1.957946e-07
0.006688976
-2.006579e-07
0.006689044
-2.05264e-07
0.006689114
-2.096156e-07
0.006689186
-2.137173e-07
0.006689259
-2.175749e-07
0.006689333
-2.211952e-07
0.006689408
-2.245859e-07
0.006689484
-2.277549e-07
0.006689561
-2.307104e-07
0.006689639
-2.334607e-07
0.006689718
-2.360141e-07
0.006689798
-2.383787e-07
0.006689878
-2.405625e-07
0.006689959
-2.425729e-07
0.006690041
-2.444173e-07
0.006690123
-2.461025e-07
0.006690206
-2.476348e-07
0.006690289
-2.490202e-07
0.006690373
-2.502641e-07
0.006690457
-2.513715e-07
0.006690541
-2.523469e-07
0.006690625
-2.53194e-07
0.00669071
-2.539162e-07
0.006690795
-2.545165e-07
0.00669088
-2.54997e-07
0.006690966
-2.553594e-07
0.006691051
-2.556051e-07
0.006691137
-2.557346e-07
0.006691222
-2.55748e-07
0.006691307
-2.556449e-07
0.006691393
-2.554242e-07
0.006691478
-2.550843e-07
0.006691563
-2.546232e-07
0.006691648
-2.540381e-07
0.006691733
-2.533258e-07
0.006691817
-2.524824e-07
0.006691901
-2.515037e-07
0.006691985
-2.503845e-07
0.006692068
-2.491196e-07
0.006692151
-2.477027e-07
0.006692233
-2.461274e-07
0.006692315
-2.443865e-07
0.006692396
-2.424724e-07
0.006692476
-2.403769e-07
0.006692556
-2.380913e-07
0.006692635
-2.356067e-07
0.006692713
-2.329137e-07
0.006692789
-2.300022e-07
0.006692865
-2.268624e-07
0.00669294
-2.234837e-07
0.006693014
-2.198557e-07
0.006693086
-2.159679e-07
0.006693157
-2.118098e-07
0.006693226
-2.07371e-07
0.006693294
-2.026414e-07
0.00669336
-1.976114e-07
0.006693425
-1.922721e-07
0.006693487
-1.866153e-07
0.006693548
-1.806336e-07
0.006693606
-1.74321e-07
0.006693663
-1.676728e-07
0.006693716
-1.606858e-07
0.006693768
-1.533587e-07
0.006693817
-1.45692e-07
0.006693863
-1.376888e-07
0.006693906
-1.293541e-07
0.006693947
-1.206957e-07
0.006693985
-1.117242e-07
0.006694019
-1.024527e-07
0.00669405
-9.289746e-08
0.006694078
-8.307752e-08
0.006694103
-7.301494e-08
0.006694124
-6.273478e-08
0.006694142
-5.226498e-08
0.006694156
-4.163607e-08
0.006694166
-3.08811e-08
0.006694173
-2.003144e-08
-9.119222e-09
0.006688225
-2.112391e-07
0.006688166
-1.946284e-07
0.006688169
-1.568892e-07
0.006688181
-1.500272e-07
0.006688199
-1.479807e-07
0.006688224
-1.452551e-07
0.006688254
-1.459947e-07
0.006688287
-1.500921e-07
0.006688323
-1.561069e-07
0.006688361
-1.633566e-07
0.006688403
-1.714594e-07
0.006688447
-1.800713e-07
0.006688494
-1.889276e-07
0.006688543
-1.978454e-07
0.006688594
-2.066947e-07
0.006688648
-2.15381e-07
0.006688704
-2.238374e-07
0.006688762
-2.320168e-07
0.006688822
-2.398871e-07
0.006688884
-2.474272e-07
0.006688948
-2.546243e-07
0.006689014
-2.61472e-07
0.006689081
-2.679688e-07
0.00668915
-2.741167e-07
0.00668922
-2.799209e-07
0.006689292
-2.853882e-07
0.006689365
-2.905275e-07
0.006689439
-2.953485e-07
0.006689514
-2.998618e-07
0.00668959
-3.040784e-07
0.006689667
-3.080096e-07
0.006689746
-3.116669e-07
0.006689825
-3.150615e-07
0.006689904
-3.182044e-07
0.006689985
-3.211062e-07
0.006690066
-3.237773e-07
0.006690148
-3.262274e-07
0.00669023
-3.284657e-07
0.006690313
-3.305007e-07
0.006690396
-3.323405e-07
0.00669048
-3.339923e-07
0.006690564
-3.354627e-07
0.006690648
-3.367578e-07
0.006690733
-3.378826e-07
0.006690818
-3.388418e-07
0.006690903
-3.39639e-07
0.006690988
-3.402774e-07
0.006691074
-3.407592e-07
0.006691159
-3.410861e-07
0.006691244
-3.412589e-07
0.00669133
-3.412778e-07
0.006691415
-3.411421e-07
0.006691501
-3.408504e-07
0.006691586
-3.404008e-07
0.006691671
-3.397903e-07
0.006691756
-3.390154e-07
0.006691841
-3.380716e-07
0.006691925
-3.369541e-07
0.00669201
-3.356568e-07
0.006692093
-3.341733e-07
0.006692177
-3.324962e-07
0.00669226
-3.306175e-07
0.006692342
-3.285282e-07
0.006692424
-3.262189e-07
0.006692505
-3.236795e-07
0.006692585
-3.208989e-07
0.006692665
-3.178657e-07
0.006692744
-3.145677e-07
0.006692822
-3.109922e-07
0.006692899
-3.07126e-07
0.006692975
-3.029556e-07
0.00669305
-2.984671e-07
0.006693124
-2.936462e-07
0.006693197
-2.884788e-07
0.006693268
-2.829507e-07
0.006693337
-2.770479e-07
0.006693406
-2.707566e-07
0.006693472
-2.64064e-07
0.006693537
-2.569577e-07
0.0066936
-2.494264e-07
0.00669366
-2.414603e-07
0.006693719
-2.330508e-07
0.006693776
-2.241913e-07
0.00669383
-2.148774e-07
0.006693881
-2.051069e-07
0.006693931
-1.948803e-07
0.006693977
-1.842012e-07
0.006694021
-1.730763e-07
0.006694062
-1.615157e-07
0.006694099
-1.495332e-07
0.006694134
-1.371463e-07
0.006694166
-1.243764e-07
0.006694194
-1.112487e-07
0.006694219
-9.779256e-08
0.00669424
-8.40408e-08
0.006694258
-7.002996e-08
0.006694272
-5.579952e-08
0.006694282
-4.139232e-08
0.006694289
-2.68497e-08
-1.222968e-08
0.006688292
-1.426652e-07
0.006688255
-1.562663e-07
0.006688247
-1.479586e-07
0.00668825
-1.522064e-07
0.006688261
-1.587406e-07
0.006688281
-1.646471e-07
0.006688307
-1.71874e-07
0.006688338
-1.808144e-07
0.006688373
-1.908853e-07
0.006688411
-2.016777e-07
0.006688452
-2.129426e-07
0.006688497
-2.244552e-07
0.006688544
-2.360249e-07
0.006688593
-2.475067e-07
0.006688645
-2.587921e-07
0.0066887
-2.697992e-07
0.006688756
-2.804677e-07
0.006688815
-2.907546e-07
0.006688875
-3.006301e-07
0.006688938
-3.10075e-07
0.006689002
-3.190782e-07
0.006689068
-3.276353e-07
0.006689136
-3.357469e-07
0.006689205
-3.434175e-07
0.006689276
-3.506546e-07
0.006689348
-3.574683e-07
0.006689421
-3.638702e-07
0.006689496
-3.698731e-07
0.006689571
-3.754908e-07
0.006689648
-3.807376e-07
0.006689725
-3.856279e-07
0.006689804
-3.901762e-07
0.006689883
-3.943968e-07
0.006689963
-3.983037e-07
0.006690044
-4.019103e-07
0.006690125
-4.052295e-07
0.006690207
-4.082736e-07
0.00669029
-4.110543e-07
0.006690373
-4.135822e-07
0.006690456
-4.158674e-07
0.00669054
-4.179191e-07
0.006690625
-4.197454e-07
0.006690709
-4.213539e-07
0.006690794
-4.22751e-07
0.006690879
-4.239425e-07
0.006690964
-4.24933e-07
0.00669105
-4.257263e-07
0.006691135
-4.263253e-07
0.006691221
-4.267321e-07
0.006691307
-4.269478e-07
0.006691392
-4.269723e-07
0.006691478
-4.268051e-07
0.006691563
-4.264444e-07
0.006691649
-4.258876e-07
0.006691734
-4.251312e-07
0.006691819
-4.241706e-07
0.006691904
-4.230005e-07
0.006691989
-4.216145e-07
0.006692073
-4.200053e-07
0.006692157
-4.181647e-07
0.006692241
-4.160834e-07
0.006692324
-4.137514e-07
0.006692406
-4.111577e-07
0.006692489
-4.082903e-07
0.00669257
-4.051363e-07
0.006692651
-4.016822e-07
0.006692731
-3.979134e-07
0.00669281
-3.938145e-07
0.006692888
-3.893698e-07
0.006692966
-3.845624e-07
0.006693042
-3.793754e-07
0.006693118
-3.73791e-07
0.006693192
-3.677913e-07
0.006693265
-3.613584e-07
0.006693336
-3.544742e-07
0.006693406
-3.471208e-07
0.006693475
-3.392809e-07
0.006693541
-3.309377e-07
0.006693607
-3.220754e-07
0.00669367
-3.126796e-07
0.006693731
-3.027372e-07
0.00669379
-2.922373e-07
0.006693847
-2.81171e-07
0.006693902
-2.695321e-07
0.006693954
-2.573175e-07
0.006694004
-2.445274e-07
0.006694051
-2.311658e-07
0.006694095
-2.172404e-07
0.006694136
-2.027638e-07
0.006694174
-1.877528e-07
0.006694209
-1.722291e-07
0.006694241
-1.562194e-07
0.00669427
-1.397551e-07
0.006694295
-1.228729e-07
0.006694316
-1.056138e-07
0.006694334
-8.802346e-08
0.006694349
-7.015122e-08
0.006694359
-5.205049e-08
0.006694366
-3.377283e-08
-1.539234e-08
0.006688294
-1.005436e-07
0.006688271
-1.322939e-07
0.006688268
-1.437778e-07
0.006688275
-1.579772e-07
0.006688289
-1.721096e-07
0.006688309
-1.85035e-07
0.006688336
-1.979527e-07
0.006688366
-2.114613e-07
0.006688401
-2.254655e-07
0.006688439
-2.397765e-07
0.00668848
-2.542466e-07
0.006688524
-2.687308e-07
0.006688571
-2.830906e-07
0.006688621
-2.972104e-07
0.006688673
-3.109984e-07
0.006688728
-3.243832e-07
0.006688784
-3.373111e-07
0.006688843
-3.497432e-07
0.006688904
-3.616532e-07
0.006688967
-3.730246e-07
0.006689032
-3.838492e-07
0.006689098
-3.941256e-07
0.006689166
-4.038571e-07
0.006689236
-4.130516e-07
0.006689307
-4.2172e-07
0.006689379
-4.298757e-07
0.006689453
-4.375338e-07
0.006689527
-4.447109e-07
0.006689603
-4.514241e-07
0.00668968
-4.576912e-07
0.006689758
-4.635303e-07
0.006689837
-4.68959e-07
0.006689916
-4.739949e-07
0.006689997
-4.786551e-07
0.006690078
-4.829559e-07
0.006690159
-4.869132e-07
0.006690241
-4.905418e-07
0.006690324
-4.938558e-07
0.006690407
-4.968681e-07
0.006690491
-4.995908e-07
0.006690575
-5.020351e-07
0.00669066
-5.042109e-07
0.006690744
-5.061271e-07
0.006690829
-5.077916e-07
0.006690915
-5.092112e-07
0.006691
-5.103916e-07
0.006691086
-5.113374e-07
0.006691171
-5.12052e-07
0.006691257
-5.12538e-07
0.006691343
-5.127965e-07
0.006691429
-5.128278e-07
0.006691514
-5.126309e-07
0.0066916
-5.122039e-07
0.006691686
-5.115436e-07
0.006691771
-5.106458e-07
0.006691857
-5.095051e-07
0.006691942
-5.08115e-07
0.006692027
-5.064679e-07
0.006692111
-5.04555e-07
0.006692195
-5.023664e-07
0.006692279
-4.998912e-07
0.006692362
-4.971171e-07
0.006692445
-4.940309e-07
0.006692528
-4.906181e-07
0.006692609
-4.868635e-07
0.00669269
-4.827503e-07
0.006692771
-4.782612e-07
0.00669285
-4.733777e-07
0.006692929
-4.680803e-07
0.006693007
-4.62349e-07
0.006693083
-4.56163e-07
0.006693159
-4.495007e-07
0.006693234
-4.423405e-07
0.006693307
-4.346603e-07
0.006693379
-4.264379e-07
0.006693449
-4.176516e-07
0.006693518
-4.082798e-07
0.006693586
-3.983019e-07
0.006693651
-3.876984e-07
0.006693715
-3.764511e-07
0.006693777
-3.645438e-07
0.006693837
-3.519624e-07
0.006693894
-3.386956e-07
0.006693949
-3.247352e-07
0.006694002
-3.100766e-07
0.006694052
-2.947194e-07
0.0066941
-2.786675e-07
0.006694145
-2.619299e-07
0.006694186
-2.445207e-07
0.006694225
-2.2646e-07
0.006694261
-2.077735e-07
0.006694293
-1.88493e-07
0.006694322
-1.686563e-07
0.006694347
-1.483075e-07
0.006694369
-1.274962e-07
0.006694387
-1.062777e-07
0.006694402
-8.471173e-08
0.006694413
-6.286369e-08
0.00669442
-4.079697e-08
-1.860524e-08
0.006688299
-8.263475e-08
0.006688289
-1.218702e-07
0.00668829
-1.432161e-07
0.006688297
-1.644384e-07
0.00668831
-1.849177e-07
0.00668833
-2.040198e-07
0.006688354
-2.224511e-07
0.006688384
-2.407572e-07
0.006688417
-2.590287e-07
0.006688455
-2.771947e-07
0.006688496
-2.951768e-07
0.00668854
-3.128908e-07
0.006688587
-3.302471e-07
0.006688637
-3.471642e-07
0.006688689
-3.635744e-07
0.006688744
-3.794242e-07
0.006688801
-3.946727e-07
0.006688861
-4.092912e-07
0.006688922
-4.232609e-07
0.006688986
-4.36572e-07
0.006689051
-4.492219e-07
0.006689118
-4.61214e-07
0.006689187
-4.725568e-07
0.006689257
-4.832625e-07
0.006689328
-4.933465e-07
0.006689401
-5.028265e-07
0.006689475
-5.117218e-07
0.006689551
-5.200531e-07
0.006689627
-5.278415e-07
0.006689704
-5.351087e-07
0.006689783
-5.418764e-07
0.006689862
-5.481659e-07
0.006689942
-5.539982e-07
0.006690022
-5.593935e-07
0.006690104
-5.643715e-07
0.006690186
-5.689506e-07
0.006690268
-5.731484e-07
0.006690351
-5.769815e-07
0.006690435
-5.804652e-07
0.006690519
-5.836136e-07
0.006690603
-5.864398e-07
0.006690688
-5.889554e-07
0.006690773
-5.911709e-07
0.006690858
-5.930956e-07
0.006690944
-5.947373e-07
0.006691029
-5.961028e-07
0.006691115
-5.971972e-07
0.006691201
-5.980249e-07
0.006691287
-5.985885e-07
0.006691373
-5.988895e-07
0.006691459
-5.989283e-07
0.006691545
-5.987038e-07
0.006691631
-5.982135e-07
0.006691717
-5.974539e-07
0.006691803
-5.964201e-07
0.006691889
-5.951057e-07
0.006691974
-5.935032e-07
0.006692059
-5.916037e-07
0.006692144
-5.89397e-07
0.006692228
-5.868715e-07
0.006692312
-5.840144e-07
0.006692396
-5.808114e-07
0.006692479
-5.77247e-07
0.006692562
-5.733044e-07
0.006692644
-5.689654e-07
0.006692726
-5.642106e-07
0.006692806
-5.590196e-07
0.006692886
-5.533705e-07
0.006692965
-5.472405e-07
0.006693044
-5.406059e-07
0.006693121
-5.334421e-07
0.006693197
-5.257236e-07
0.006693272
-5.174246e-07
0.006693346
-5.085188e-07
0.006693419
-4.989798e-07
0.00669349
-4.887816e-07
0.006693559
-4.778983e-07
0.006693627
-4.663049e-07
0.006693694
-4.539779e-07
0.006693758
-4.408951e-07
0.00669382
-4.270364e-07
0.006693881
-4.123844e-07
0.006693939
-3.969249e-07
0.006693995
-3.806471e-07
0.006694048
-3.635447e-07
0.006694099
-3.456159e-07
0.006694148
-3.268645e-07
0.006694193
-3.073e-07
0.006694235
-2.869382e-07
0.006694275
-2.658018e-07
0.006694311
-2.439205e-07
0.006694344
-2.213312e-07
0.006694373
-1.980783e-07
0.006694399
-1.742133e-07
0.006694421
-1.497949e-07
0.00669444
-1.248884e-07
0.006694455
-9.956475e-08
0.006694466
-7.390161e-08
0.006694473
-4.797453e-08
-2.189457e-08
0.006688286
-7.219588e-08
0.006688282
-1.174218e-07
0.006688286
-1.460387e-07
0.006688295
-1.731822e-07
0.006688311
-1.99511e-07
0.006688331
-2.243043e-07
0.006688357
-2.479245e-07
0.006688387
-2.708715e-07
0.006688422
-2.933277e-07
0.00668846
-3.153025e-07
0.006688501
-3.36776e-07
0.006688546
-3.577139e-07
0.006688594
-3.780674e-07
0.006688644
-3.977847e-07
0.006688697
-4.168199e-07
0.006688753
-4.351356e-07
0.006688811
-4.527033e-07
0.006688871
-4.695037e-07
0.006688933
-4.855258e-07
0.006688997
-5.007664e-07
0.006689063
-5.152287e-07
0.006689131
-5.289216e-07
0.0066892
-5.418586e-07
0.006689271
-5.540569e-07
0.006689343
-5.655367e-07
0.006689416
-5.763203e-07
0.006689491
-5.864315e-07
0.006689567
-5.958953e-07
0.006689644
-6.047373e-07
0.006689721
-6.129831e-07
0.0066898
-6.206582e-07
0.00668988
-6.277879e-07
0.00668996
-6.343966e-07
0.006690041
-6.40508e-07
0.006690123
-6.461448e-07
0.006690205
-6.513284e-07
0.006690288
-6.560792e-07
0.006690371
-6.604162e-07
0.006690455
-6.643572e-07
0.00669054
-6.679185e-07
0.006690624
-6.711149e-07
0.006690709
-6.7396e-07
0.006690794
-6.764657e-07
0.00669088
-6.786425e-07
0.006690966
-6.804996e-07
0.006691052
-6.820446e-07
0.006691138
-6.832836e-07
0.006691224
-6.842213e-07
0.00669131
-6.84861e-07
0.006691396
-6.852042e-07
0.006691483
-6.852515e-07
0.006691569
-6.850014e-07
0.006691655
-6.844515e-07
0.006691741
-6.835975e-07
0.006691827
-6.824337e-07
0.006691913
-6.809532e-07
0.006691999
-6.791471e-07
0.006692084
-6.770055e-07
0.006692169
-6.745165e-07
0.006692254
-6.716669e-07
0.006692338
-6.684422e-07
0.006692422
-6.648258e-07
0.006692506
-6.608002e-07
0.006692589
-6.563458e-07
0.006692671
-6.51442e-07
0.006692753
-6.460663e-07
0.006692834
-6.401952e-07
0.006692915
-6.338035e-07
0.006692994
-6.268648e-07
0.006693073
-6.193517e-07
0.006693151
-6.112356e-07
0.006693228
-6.024869e-07
0.006693303
-5.930756e-07
0.006693378
-5.829708e-07
0.006693451
-5.721417e-07
0.006693523
-5.605575e-07
0.006693593
-5.481877e-07
0.006693662
-5.350029e-07
0.006693729
-5.209747e-07
0.006693794
-5.060765e-07
0.006693857
-4.902841e-07
0.006693918
-4.735762e-07
0.006693977
-4.559349e-07
0.006694034
-4.373465e-07
0.006694088
-4.178022e-07
0.00669414
-3.972986e-07
0.006694189
-3.758385e-07
0.006694235
-3.534316e-07
0.006694278
-3.300951e-07
0.006694318
-3.05854e-07
0.006694355
-2.807416e-07
0.006694388
-2.548001e-07
0.006694418
-2.280801e-07
0.006694445
-2.006413e-07
0.006694467
-1.725517e-07
0.006694486
-1.438873e-07
0.006694502
-1.147313e-07
0.006694513
-8.517489e-08
0.00669452
-5.530728e-08
-2.526118e-08
0.006688273
-6.918045e-08
0.006688275
-1.188005e-07
0.006688283
-1.523942e-07
0.006688295
-1.843236e-07
0.006688311
-2.156722e-07
0.006688333
-2.454665e-07
0.006688359
-2.738285e-07
0.006688389
-3.011972e-07
0.006688424
-3.277655e-07
0.006688462
-3.535627e-07
0.006688504
-3.785903e-07
0.006688549
-4.028377e-07
0.006688597
-4.262785e-07
0.006688648
-4.488807e-07
0.006688702
-4.706148e-07
0.006688758
-4.914574e-07
0.006688817
-5.113917e-07
0.006688877
-5.304087e-07
0.00668894
-5.485063e-07
0.006689005
-5.656894e-07
0.006689072
-5.819686e-07
0.00668914
-5.973597e-07
0.00668921
-6.118827e-07
0.006689282
-6.255607e-07
0.006689354
-6.384198e-07
0.006689428
-6.504877e-07
0.006689504
-6.617937e-07
0.00668958
-6.723677e-07
0.006689658
-6.8224e-07
0.006689736
-6.914409e-07
0.006689815
-7.000001e-07
0.006689895
-7.07947e-07
0.006689976
-7.153097e-07
0.006690058
-7.221155e-07
0.00669014
-7.283903e-07
0.006690223
-7.341589e-07
0.006690306
-7.394443e-07
0.00669039
-7.442683e-07
0.006690474
-7.48651e-07
0.006690559
-7.526107e-07
0.006690644
-7.561645e-07
0.006690729
-7.593274e-07
0.006690815
-7.621132e-07
0.006690901
-7.645336e-07
0.006690987
-7.665989e-07
0.006691073
-7.683177e-07
0.006691159
-7.696969e-07
0.006691246
-7.707418e-07
0.006691332
-7.71456e-07
0.006691419
-7.718415e-07
0.006691506
-7.718986e-07
0.006691592
-7.71626e-07
0.006691679
-7.710206e-07
0.006691765
-7.70078e-07
0.006691852
-7.687916e-07
0.006691938
-7.671536e-07
0.006692024
-7.651542e-07
0.006692109
-7.627821e-07
0.006692195
-7.60024e-07
0.00669228
-7.568651e-07
0.006692365
-7.532889e-07
0.006692449
-7.492769e-07
0.006692533
-7.448092e-07
0.006692617
-7.398637e-07
0.0066927
-7.344171e-07
0.006692782
-7.28444e-07
0.006692864
-7.219176e-07
0.006692945
-7.148093e-07
0.006693025
-7.070891e-07
0.006693104
-6.987257e-07
0.006693183
-6.896863e-07
0.00669326
-6.799372e-07
0.006693337
-6.694436e-07
0.006693412
-6.581702e-07
0.006693486
-6.460812e-07
0.006693558
-6.331408e-07
0.006693629
-6.193135e-07
0.006693699
-6.045648e-07
0.006693767
-5.888612e-07
0.006693833
-5.721712e-07
0.006693897
-5.544658e-07
0.006693959
-5.35719e-07
0.006694019
-5.159088e-07
0.006694077
-4.950178e-07
0.006694132
-4.730342e-07
0.006694185
-4.499521e-07
0.006694235
-4.25773e-07
0.006694282
-4.005061e-07
0.006694326
-3.741692e-07
0.006694367
-3.467895e-07
0.006694404
-3.184036e-07
0.006694439
-2.890587e-07
0.006694469
-2.58812e-07
0.006694496
-2.277313e-07
0.00669452
-1.958945e-07
0.006694539
-1.633889e-07
0.006694555
-1.303105e-07
0.006694566
-9.676481e-08
0.006694574
-6.285537e-08
-2.873506e-08
0.006688255
-6.889432e-08
0.00668826
-1.230343e-07
0.006688269
-1.610288e-07
0.006688283
-1.972856e-07
0.006688302
-2.33329e-07
0.006688324
-2.678764e-07
0.006688351
-3.008216e-07
0.006688383
-3.325352e-07
0.006688418
-3.631887e-07
0.006688458
-3.928073e-07
0.0066885
-4.214e-07
0.006688546
-4.489713e-07
0.006688595
-4.75512e-07
0.006688648
-5.010065e-07
0.006688702
-5.254409e-07
0.00668876
-5.488053e-07
0.006688819
-5.710952e-07
0.006688881
-5.923123e-07
0.006688945
-6.124644e-07
0.006689011
-6.31565e-07
0.006689078
-6.49633e-07
0.006689147
-6.666915e-07
0.006689218
-6.827677e-07
0.006689291
-6.978915e-07
0.006689364
-7.120951e-07
0.006689439
-7.254123e-07
0.006689515
-7.378779e-07
0.006689592
-7.495273e-07
0.00668967
-7.603958e-07
0.006689749
-7.705185e-07
0.006689829
-7.799296e-07
0.00668991
-7.886626e-07
0.006689991
-7.967497e-07
0.006690073
-8.042217e-07
0.006690156
-8.111082e-07
0.006690239
-8.174368e-07
0.006690323
-8.232335e-07
0.006690407
-8.285229e-07
0.006690492
-8.333272e-07
0.006690577
-8.376674e-07
0.006690662
-8.41562e-07
0.006690748
-8.450283e-07
0.006690834
-8.480812e-07
0.00669092
-8.50734e-07
0.006691006
-8.52998e-07
0.006691093
-8.54883e-07
0.006691179
-8.563964e-07
0.006691266
-8.575442e-07
0.006691353
-8.583305e-07
0.00669144
-8.587574e-07
0.006691527
-8.588252e-07
0.006691614
-8.585326e-07
0.0066917
-8.578763e-07
0.006691787
-8.56851e-07
0.006691874
-8.554499e-07
0.00669196
-8.53664e-07
0.006692047
-8.514826e-07
0.006692133
-8.48893e-07
0.006692219
-8.458807e-07
0.006692304
-8.424291e-07
0.006692389
-8.385199e-07
0.006692474
-8.341325e-07
0.006692559
-8.292446e-07
0.006692643
-8.238319e-07
0.006692726
-8.178679e-07
0.006692809
-8.113246e-07
0.006692891
-8.041716e-07
0.006692973
-7.96377e-07
0.006693053
-7.879071e-07
0.006693133
-7.787264e-07
0.006693213
-7.687979e-07
0.006693291
-7.580834e-07
0.006693368
-7.465434e-07
0.006693444
-7.341374e-07
0.006693518
-7.208247e-07
0.006693592
-7.06564e-07
0.006693664
-6.913143e-07
0.006693734
-6.750354e-07
0.006693803
-6.576883e-07
0.00669387
-6.392359e-07
0.006693935
-6.196436e-07
0.006693998
-5.988803e-07
0.006694059
-5.76919e-07
0.006694118
-5.537378e-07
0.006694174
-5.293209e-07
0.006694228
-5.036594e-07
0.006694279
-4.767525e-07
0.006694327
-4.486083e-07
0.006694372
-4.192446e-07
0.006694414
-3.886901e-07
0.006694453
-3.569845e-07
0.006694488
-3.241798e-07
0.006694519
-2.903398e-07
0.006694547
-2.555407e-07
0.006694571
-2.198707e-07
0.006694591
-1.834295e-07
0.006694607
-1.463269e-07
0.006694619
-1.086846e-07
0.006694627
-7.062227e-08
-3.231796e-08
0.006688235
-7.130434e-08
0.006688243
-1.299465e-07
0.006688255
-1.719272e-07
0.006688271
-2.122717e-07
0.006688291
-2.527454e-07
0.006688315
-2.917715e-07
0.006688344
-3.290734e-07
0.006688376
-3.64971e-07
0.006688412
-3.996068e-07
0.006688453
-4.329884e-07
0.006688496
-4.651207e-07
0.006688543
-4.960121e-07
0.006688593
-5.256614e-07
0.006688646
-5.540629e-07
0.006688702
-5.812128e-07
0.00668876
-6.071119e-07
0.006688821
-6.317659e-07
0.006688884
-6.551862e-07
0.006688948
-6.773902e-07
0.006689015
-6.984003e-07
0.006689084
-7.18244e-07
0.006689154
-7.369526e-07
0.006689226
-7.54561e-07
0.006689299
-7.711064e-07
0.006689373
-7.86628e-07
0.006689449
-8.011663e-07
0.006689526
-8.147623e-07
0.006689604
-8.274572e-07
0.006689682
-8.392918e-07
0.006689762
-8.503063e-07
0.006689843
-8.6054e-07
0.006689924
-8.700305e-07
0.006690006
-8.788145e-07
0.006690089
-8.869265e-07
0.006690172
-8.943994e-07
0.006690256
-9.012645e-07
0.00669034
-9.075506e-07
0.006690425
-9.132848e-07
0.00669051
-9.184922e-07
0.006690595
-9.231956e-07
0.006690681
-9.274158e-07
0.006690767
-9.311716e-07
0.006690854
-9.344797e-07
0.00669094
-9.373547e-07
0.006691027
-9.398091e-07
0.006691114
-9.418533e-07
0.006691201
-9.43496e-07
0.006691288
-9.447435e-07
0.006691375
-9.456002e-07
0.006691463
-9.460686e-07
0.00669155
-9.461492e-07
0.006691637
-9.458402e-07
0.006691724
-9.451383e-07
0.006691812
-9.440376e-07
0.006691899
-9.425306e-07
0.006691986
-9.406076e-07
0.006692072
-9.382568e-07
0.006692159
-9.354643e-07
0.006692245
-9.322142e-07
0.006692331
-9.284881e-07
0.006692417
-9.24266e-07
0.006692502
-9.195253e-07
0.006692587
-9.142413e-07
0.006692672
-9.083871e-07
0.006692756
-9.019336e-07
0.006692839
-8.948496e-07
0.006692922
-8.871015e-07
0.006693005
-8.786538e-07
0.006693086
-8.694688e-07
0.006693167
-8.59507e-07
0.006693247
-8.48727e-07
0.006693326
-8.370858e-07
0.006693404
-8.245388e-07
0.006693481
-8.110403e-07
0.006693556
-7.96544e-07
0.006693631
-7.810029e-07
0.006693704
-7.6437e-07
0.006693775
-7.465989e-07
0.006693845
-7.276443e-07
0.006693914
-7.074628e-07
0.00669398
-6.860137e-07
0.006694044
-6.632596e-07
0.006694107
-6.391679e-07
0.006694167
-6.137111e-07
0.006694224
-5.868686e-07
0.006694279
-5.586274e-07
0.006694331
-5.289835e-07
0.006694381
-4.97943e-07
0.006694427
-4.65523e-07
0.00669447
-4.317529e-07
0.00669451
-3.966752e-07
0.006694546
-3.603462e-07
0.006694578
-3.228362e-07
0.006694607
-2.842303e-07
0.006694632
-2.446274e-07
0.006694652
-2.041402e-07
0.006694669
-1.628936e-07
0.006694681
-1.210264e-07
0.006694689
-7.867531e-08
-3.604339e-08
0.006688213
-7.498835e-08
0.006688222
-1.384787e-07
0.006688236
-1.84439e-07
0.006688253
-2.288088e-07
0.006688275
-2.736215e-07
0.0066883
-3.170364e-07
0.00668833
-3.5863e-07
0.006688364
-3.986767e-07
0.006688401
-4.372844e-07
0.006688443
-4.744346e-07
0.006688488
-5.101203e-07
0.006688536
-5.443476e-07
0.006688588
-5.771185e-07
0.006688642
-6.084342e-07
0.006688699
-6.382999e-07
0.006688758
-6.66726e-07
0.00668882
-6.937287e-07
0.006688884
-7.1933e-07
0.00668895
-7.435573e-07
0.006689018
-7.664432e-07
0.006689088
-7.880245e-07
0.006689159
-8.083418e-07
0.006689232
-8.274384e-07
0.006689306
-8.453598e-07
0.006689382
-8.62153e-07
0.006689458
-8.778654e-07
0.006689536
-8.92545e-07
0.006689615
-9.062393e-07
0.006689694
-9.189949e-07
0.006689775
-9.308577e-07
0.006689856
-9.418716e-07
0.006689938
-9.520794e-07
0.006690021
-9.615217e-07
0.006690104
-9.702372e-07
0.006690188