/*--------------------------------*- C++ -*----------------------------------*\
| =========                 |                                                 |
| \\      /  F ield         | OpenFOAM: The Open Source CFD Toolbox           |
|  \\    /   O peration     | Version:  2.3.0                                 |
|   \\  /    A nd           | Web:      www.OpenFOAM.org                      |
|    \\/     M anipulation  |                                                 |
\*---------------------------------------------------------------------------*/
FoamFile
{
    version     2.0;
    format      ascii;
    class       volVectorField;
    location    "9800/bottomAir";
    object      U;
}
// * * * * * * * * * * * * * * * * * * * * * * * * * * * * * * * * * * * * * //

dimensions      [0 1 -1 0 0 0 0];

internalField   nonuniform List<vector> 
4000
(
(33.47811 -0.00303986 0)
(25.32202 -0.001526593 0)
(22.03068 -0.0006089919 0)
(22.90497 -0.0004704744 0)
(23.23878 -0.0003466144 0)
(23.14551 -0.0002371857 0)
(23.11194 -0.0001829066 0)
(23.12208 -0.0001544345 0)
(23.12564 -0.0001358383 0)
(23.12472 -0.0001242069 0)
(23.12453 -0.0001174578 0)
(23.1248 -0.0001136763 0)
(23.125 -0.0001117844 0)
(23.12515 -0.0001111714 0)
(23.12533 -0.000111431 0)
(23.12551 -0.0001122815 0)
(23.1257 -0.0001135322 0)
(23.1259 -0.0001150494 0)
(23.1261 -0.0001167373 0)
(23.12631 -0.0001185262 0)
(23.12653 -0.0001203647 0)
(23.12675 -0.0001222151 0)
(23.12698 -0.000124049 0)
(23.12722 -0.0001258459 0)
(23.12746 -0.0001275902 0)
(23.1277 -0.0001292713 0)
(23.12795 -0.0001308809 0)
(23.1282 -0.000132414 0)
(23.12846 -0.0001338671 0)
(23.12872 -0.0001352385 0)
(23.12899 -0.0001365273 0)
(23.12925 -0.0001377339 0)
(23.12953 -0.0001388589 0)
(23.1298 -0.0001399039 0)
(23.13008 -0.0001408704 0)
(23.13035 -0.0001417604 0)
(23.13064 -0.0001425758 0)
(23.13092 -0.0001433189 0)
(23.1312 -0.0001439917 0)
(23.13149 -0.0001445961 0)
(23.13178 -0.0001451343 0)
(23.13207 -0.000145608 0)
(23.13236 -0.0001460188 0)
(23.13265 -0.0001463681 0)
(23.13295 -0.0001466574 0)
(23.13324 -0.0001468875 0)
(23.13353 -0.0001470593 0)
(23.13383 -0.0001471734 0)
(23.13412 -0.0001472301 0)
(23.13442 -0.0001472292 0)
(23.13471 -0.0001471709 0)
(23.13501 -0.0001470543 0)
(23.13531 -0.0001468789 0)
(23.1356 -0.0001466433 0)
(23.13589 -0.0001463465 0)
(23.13619 -0.0001459864 0)
(23.13648 -0.0001455615 0)
(23.13677 -0.000145069 0)
(23.13707 -0.0001445068 0)
(23.13736 -0.0001438716 0)
(23.13764 -0.0001431604 0)
(23.13793 -0.0001423696 0)
(23.13822 -0.0001414955 0)
(23.1385 -0.0001405337 0)
(23.13878 -0.0001394802 0)
(23.13906 -0.0001383298 0)
(23.13934 -0.0001370781 0)
(23.13961 -0.0001357193 0)
(23.13988 -0.0001342486 0)
(23.14015 -0.0001326598 0)
(23.14041 -0.0001309475 0)
(23.14067 -0.0001291055 0)
(23.14093 -0.0001271281 0)
(23.14118 -0.000125009 0)
(23.14143 -0.0001227425 0)
(23.14167 -0.0001203225 0)
(23.14191 -0.0001177434 0)
(23.14214 -0.0001149996 0)
(23.14236 -0.0001120864 0)
(23.14258 -0.0001089987 0)
(23.14279 -0.0001057328 0)
(23.143 -0.0001022851 0)
(23.1432 -9.86532e-05 0)
(23.14339 -9.483515e-05 0)
(23.14357 -9.083057e-05 0)
(23.14374 -8.663962e-05 0)
(23.1439 -8.226433e-05 0)
(23.14406 -7.770748e-05 0)
(23.1442 -7.297389e-05 0)
(23.14434 -6.806935e-05 0)
(23.14446 -6.300186e-05 0)
(23.14457 -5.778062e-05 0)
(23.14468 -5.241734e-05 0)
(23.14477 -4.692567e-05 0)
(23.14485 -4.132308e-05 0)
(23.14491 -3.563273e-05 0)
(23.14497 -2.988861e-05 0)
(23.14501 -2.41565e-05 0)
(23.14504 -1.853403e-05 0)
(23.14506 -1.341681e-05 0)
(33.47276 -0.003795246 0)
(25.31943 -0.0016434 0)
(22.02606 -0.0004936017 0)
(22.89974 -0.0004070732 0)
(23.23361 -0.000308262 0)
(23.14025 -0.0002087073 0)
(23.10659 -0.0001757364 0)
(23.11671 -0.0001709044 0)
(23.12025 -0.0001734848 0)
(23.11933 -0.0001812337 0)
(23.11913 -0.0001924311 0)
(23.1194 -0.0002051425 0)
(23.1196 -0.0002184021 0)
(23.11976 -0.0002317655 0)
(23.11994 -0.000244959 0)
(23.12012 -0.0002578097 0)
(23.12032 -0.000270219 0)
(23.12052 -0.0002821305 0)
(23.12073 -0.0002935138 0)
(23.12094 -0.000304354 0)
(23.12116 -0.0003146475 0)
(23.12139 -0.000324398 0)
(23.12163 -0.0003336139 0)
(23.12186 -0.0003423075 0)
(23.12211 -0.000350493 0)
(23.12236 -0.0003581866 0)
(23.12261 -0.0003654056 0)
(23.12287 -0.0003721677 0)
(23.12313 -0.0003784909 0)
(23.1234 -0.0003843936 0)
(23.12367 -0.0003898935 0)
(23.12394 -0.0003950083 0)
(23.12422 -0.0003997551 0)
(23.12449 -0.0004041502 0)
(23.12478 -0.0004082094 0)
(23.12506 -0.0004119478 0)
(23.12535 -0.0004153792 0)
(23.12563 -0.000418517 0)
(23.12592 -0.0004213733 0)
(23.12622 -0.0004239596 0)
(23.12651 -0.0004262861 0)
(23.1268 -0.0004283623 0)
(23.1271 -0.0004301963 0)
(23.1274 -0.0004317956 0)
(23.12769 -0.0004331665 0)
(23.12799 -0.0004343145 0)
(23.12829 -0.0004352437 0)
(23.12859 -0.0004359577 0)
(23.12889 -0.0004364587 0)
(23.12919 -0.000436748 0)
(23.12949 -0.0004368262 0)
(23.12979 -0.0004366926 0)
(23.13009 -0.0004363455 0)
(23.13039 -0.0004357824 0)
(23.13069 -0.0004349997 0)
(23.13099 -0.0004339929 0)
(23.13129 -0.0004327564 0)
(23.13158 -0.0004312838 0)
(23.13188 -0.0004295674 0)
(23.13217 -0.0004275989 0)
(23.13247 -0.0004253688 0)
(23.13276 -0.0004228667 0)
(23.13305 -0.0004200813 0)
(23.13334 -0.0004170003 0)
(23.13362 -0.0004136106 0)
(23.13391 -0.0004098983 0)
(23.13419 -0.0004058484 0)
(23.13447 -0.0004014456 0)
(23.13474 -0.0003966735 0)
(23.13501 -0.0003915154 0)
(23.13528 -0.0003859539 0)
(23.13555 -0.0003799714 0)
(23.13581 -0.0003735499 0)
(23.13606 -0.0003666716 0)
(23.13632 -0.0003593185 0)
(23.13656 -0.0003514731 0)
(23.1368 -0.0003431184 0)
(23.13704 -0.0003342381 0)
(23.13727 -0.0003248172 0)
(23.13749 -0.0003148419 0)
(23.13771 -0.0003043002 0)
(23.13792 -0.000293182 0)
(23.13812 -0.0002814796 0)
(23.13832 -0.0002691883 0)
(23.1385 -0.000256306 0)
(23.13868 -0.0002428345 0)
(23.13885 -0.0002287791 0)
(23.13901 -0.0002141493 0)
(23.13916 -0.0001989589 0)
(23.1393 -0.0001832264 0)
(23.13943 -0.0001669751 0)
(23.13955 -0.0001502332 0)
(23.13965 -0.0001330346 0)
(23.13975 -0.0001154186 0)
(23.13983 -9.743111e-05 0)
(23.1399 -7.91269e-05 0)
(23.13996 -6.057242e-05 0)
(23.14001 -4.186284e-05 0)
(23.14004 -2.311456e-05 0)
(23.14007 -4.675366e-06 0)
(33.4726 -0.001450161 0)
(25.32059 -0.0007382386 0)
(22.02661 -0.0003911855 0)
(22.90002 -0.0004057213 0)
(23.23392 -0.0003918168 0)
(23.14056 -0.0003599252 0)
(23.10689 -0.0003514211 0)
(23.117 -0.0003558492 0)
(23.12055 -0.0003646488 0)
(23.11963 -0.0003768951 0)
(23.11944 -0.0003918128 0)
(23.11971 -0.0004082886 0)
(23.11991 -0.0004255944 0)
(23.12007 -0.0004432854 0)
(23.12024 -0.0004610344 0)
(23.12043 -0.0004786008 0)
(23.12062 -0.0004958128 0)
(23.12083 -0.0005125485 0)
(23.12103 -0.0005287217 0)
(23.12125 -0.0005442726 0)
(23.12147 -0.000559162 0)
(23.1217 -0.0005733657 0)
(23.12193 -0.0005868722 0)
(23.12217 -0.0005996782 0)
(23.12241 -0.0006117884 0)
(23.12266 -0.0006232123 0)
(23.12291 -0.000633964 0)
(23.12317 -0.0006440602 0)
(23.12343 -0.0006535204 0)
(23.1237 -0.0006623651 0)
(23.12397 -0.0006706161 0)
(23.12424 -0.0006782956 0)
(23.12451 -0.0006854257 0)
(23.12479 -0.0006920285 0)
(23.12507 -0.0006981254 0)
(23.12535 -0.0007037374 0)
(23.12564 -0.0007088841 0)
(23.12592 -0.0007135846 0)
(23.12621 -0.0007178564 0)
(23.1265 -0.000721716 0)
(23.1268 -0.0007251786 0)
(23.12709 -0.0007282579 0)
(23.12738 -0.0007309661 0)
(23.12768 -0.0007333143 0)
(23.12798 -0.0007353117 0)
(23.12827 -0.0007369662 0)
(23.12857 -0.0007382842 0)
(23.12887 -0.0007392705 0)
(23.12917 -0.0007399283 0)
(23.12947 -0.0007402593 0)
(23.12977 -0.0007402637 0)
(23.13006 -0.0007399401 0)
(23.13036 -0.0007392854 0)
(23.13066 -0.000738295 0)
(23.13096 -0.0007369628 0)
(23.13126 -0.0007352809 0)
(23.13155 -0.0007332399 0)
(23.13185 -0.0007308289 0)
(23.13214 -0.0007280351 0)
(23.13244 -0.0007248444 0)
(23.13273 -0.0007212409 0)
(23.13302 -0.0007172073 0)
(23.13331 -0.0007127244 0)
(23.1336 -0.000707772 0)
(23.13388 -0.0007023277 0)
(23.13416 -0.0006963685 0)
(23.13444 -0.0006898693 0)
(23.13472 -0.0006828042 0)
(23.135 -0.0006751459 0)
(23.13527 -0.0006668663 0)
(23.13554 -0.0006579362 0)
(23.1358 -0.0006483261 0)
(23.13606 -0.0006380056 0)
(23.13632 -0.0006269448 0)
(23.13657 -0.0006151131 0)
(23.13681 -0.0006024813 0)
(23.13705 -0.0005890204 0)
(23.13729 -0.000574703 0)
(23.13752 -0.0005595034 0)
(23.13774 -0.0005433981 0)
(23.13796 -0.0005263665 0)
(23.13817 -0.0005083914 0)
(23.13837 -0.0004894593 0)
(23.13856 -0.0004695616 0)
(23.13875 -0.0004486944 0)
(23.13893 -0.00042686 0)
(23.13909 -0.0004040667 0)
(23.13925 -0.0003803298 0)
(23.1394 -0.0003556717 0)
(23.13954 -0.0003301227 0)
(23.13967 -0.0003037211 0)
(23.13978 -0.0002765135 0)
(23.13989 -0.0002485548 0)
(23.13998 -0.0002199088 0)
(23.14007 -0.0001906475 0)
(23.14014 -0.0001608517 0)
(23.1402 -0.0001306086 0)
(23.14024 -0.0001000094 0)
(23.14027 -6.913545e-05 0)
(23.1403 -3.801477e-05 0)
(33.47221 -0.00100114 0)
(25.32111 -0.0008510189 0)
(22.02716 -0.0006476112 0)
(22.90047 -0.0005861365 0)
(23.23438 -0.0005420688 0)
(23.14101 -0.0005009615 0)
(23.10732 -0.0004807206 0)
(23.11741 -0.0004779933 0)
(23.12095 -0.0004856323 0)
(23.12002 -0.0005002849 0)
(23.11982 -0.0005198617 0)
(23.12008 -0.0005425738 0)
(23.12028 -0.0005671155 0)
(23.12043 -0.0005925971 0)
(23.12061 -0.0006183938 0)
(23.1208 -0.0006440608 0)
(23.12099 -0.0006692856 0)
(23.12119 -0.0006938499 0)
(23.1214 -0.0007176036 0)
(23.12161 -0.0007404453 0)
(23.12183 -0.0007623099 0)
(23.12206 -0.000783159 0)
(23.12229 -0.0008029743 0)
(23.12253 -0.0008217523 0)
(23.12278 -0.0008395007 0)
(23.12303 -0.0008562357 0)
(23.12328 -0.0008719796 0)
(23.12354 -0.0008867591 0)
(23.1238 -0.0009006041 0)
(23.12406 -0.0009135465 0)
(23.12433 -0.0009256193 0)
(23.1246 -0.0009368561 0)
(23.12488 -0.0009472904 0)
(23.12516 -0.0009569549 0)
(23.12544 -0.0009658816 0)
(23.12572 -0.0009741014 0)
(23.12601 -0.0009816436 0)
(23.12629 -0.0009885358 0)
(23.12658 -0.0009948039 0)
(23.12687 -0.001000472 0)
(23.12717 -0.001005562 0)
(23.12746 -0.001010095 0)
(23.12775 -0.001014087 0)
(23.12805 -0.001017555 0)
(23.12835 -0.001020512 0)
(23.12864 -0.00102297 0)
(23.12894 -0.001024939 0)
(23.12924 -0.001026424 0)
(23.12954 -0.00102743 0)
(23.12984 -0.001027962 0)
(23.13014 -0.001028018 0)
(23.13044 -0.001027596 0)
(23.13074 -0.001026694 0)
(23.13104 -0.001025304 0)
(23.13133 -0.001023417 0)
(23.13163 -0.001021024 0)
(23.13193 -0.00101811 0)
(23.13222 -0.00101466 0)
(23.13252 -0.001010657 0)
(23.13281 -0.001006081 0)
(23.13311 -0.00100091 0)
(23.1334 -0.0009951187 0)
(23.13369 -0.0009886811 0)
(23.13397 -0.0009815683 0)
(23.13426 -0.0009737496 0)
(23.13454 -0.0009651921 0)
(23.13482 -0.0009558609 0)
(23.1351 -0.0009457195 0)
(23.13538 -0.0009347297 0)
(23.13565 -0.0009228519 0)
(23.13592 -0.0009100452 0)
(23.13618 -0.0008962677 0)
(23.13644 -0.0008814771 0)
(23.1367 -0.0008656306 0)
(23.13695 -0.0008486857 0)
(23.1372 -0.0008306006 0)
(23.13744 -0.0008113345 0)
(23.13767 -0.0007908485 0)
(23.1379 -0.0007691061 0)
(23.13813 -0.0007460739 0)
(23.13835 -0.0007217224 0)
(23.13856 -0.0006960269 0)
(23.13876 -0.0006689679 0)
(23.13895 -0.0006405327 0)
(23.13914 -0.0006107154 0)
(23.13932 -0.0005795186 0)
(23.13949 -0.0005469533 0)
(23.13965 -0.0005130406 0)
(23.1398 -0.0004778116 0)
(23.13994 -0.0004413085 0)
(23.14006 -0.0004035846 0)
(23.14018 -0.000364705 0)
(23.14029 -0.0003247466 0)
(23.14038 -0.0002837982 0)
(23.14047 -0.0002419601 0)
(23.14054 -0.0001993442 0)
(23.1406 -0.0001560726 0)
(23.14064 -0.0001122789 0)
(23.14067 -6.809352e-05 0)
(23.1407 -2.369127e-05 0)
(33.47208 -0.0005606604 0)
(25.32146 -0.0005340241 0)
(22.0275 -0.0004599714 0)
(22.90072 -0.0004623236 0)
(23.23459 -0.0004791677 0)
(23.14122 -0.0004951004 0)
(23.10751 -0.000518146 0)
(23.11759 -0.0005482743 0)
(23.12113 -0.0005822249 0)
(23.12019 -0.0006182947 0)
(23.11999 -0.0006555862 0)
(23.12025 -0.0006933281 0)
(23.12045 -0.0007309171 0)
(23.12061 -0.000767935 0)
(23.12078 -0.0008040864 0)
(23.12097 -0.0008391596 0)
(23.12117 -0.0008730062 0)
(23.12137 -0.000905526 0)
(23.12158 -0.0009366544 0)
(23.1218 -0.0009663546 0)
(23.12202 -0.0009946108 0)
(23.12225 -0.001021424 0)
(23.12248 -0.001046807 0)
(23.12272 -0.001070783 0)
(23.12297 -0.001093384 0)
(23.12322 -0.001114647 0)
(23.12347 -0.001134611 0)
(23.12373 -0.001153321 0)
(23.124 -0.001170822 0)
(23.12426 -0.001187161 0)
(23.12453 -0.001202386 0)
(23.12481 -0.001216541 0)
(23.12508 -0.001229675 0)
(23.12536 -0.001241829 0)
(23.12564 -0.001253049 0)
(23.12593 -0.001263374 0)
(23.12621 -0.001272844 0)
(23.1265 -0.001281494 0)
(23.12679 -0.001289359 0)
(23.12708 -0.001296471 0)
(23.12737 -0.001302859 0)
(23.12767 -0.001308548 0)
(23.12796 -0.001313562 0)
(23.12826 -0.001317922 0)
(23.12856 -0.001321645 0)
(23.12886 -0.001324746 0)
(23.12915 -0.001327238 0)
(23.12945 -0.00132913 0)
(23.12975 -0.001330428 0)
(23.13005 -0.001331135 0)
(23.13035 -0.001331253 0)
(23.13065 -0.001330779 0)
(23.13095 -0.001329708 0)
(23.13125 -0.001328031 0)
(23.13155 -0.001325739 0)
(23.13185 -0.001322816 0)
(23.13215 -0.001319247 0)
(23.13244 -0.001315011 0)
(23.13274 -0.001310087 0)
(23.13303 -0.001304447 0)
(23.13333 -0.001298065 0)
(23.13362 -0.001290908 0)
(23.13391 -0.001282942 0)
(23.1342 -0.00127413 0)
(23.13448 -0.001264433 0)
(23.13477 -0.001253807 0)
(23.13505 -0.001242209 0)
(23.13533 -0.001229589 0)
(23.1356 -0.0012159 0)
(23.13588 -0.001201089 0)
(23.13615 -0.001185104 0)
(23.13641 -0.001167889 0)
(23.13667 -0.00114939 0)
(23.13693 -0.001129551 0)
(23.13718 -0.001108315 0)
(23.13743 -0.001085629 0)
(23.13768 -0.001061439 0)
(23.13791 -0.001035693 0)
(23.13815 -0.001008343 0)
(23.13837 -0.0009793447 0)
(23.13859 -0.0009486583 0)
(23.1388 -0.0009162505 0)
(23.13901 -0.0008820948 0)
(23.1392 -0.0008461728 0)
(23.13939 -0.0008084757 0)
(23.13957 -0.0007690048 0)
(23.13974 -0.0007277732 0)
(23.1399 -0.0006848062 0)
(23.14005 -0.0006401428 0)
(23.14019 -0.000593836 0)
(23.14032 -0.0005459536 0)
(23.14044 -0.0004965785 0)
(23.14055 -0.0004458088 0)
(23.14065 -0.0003937576 0)
(23.14073 -0.0003405526 0)
(23.1408 -0.0002863347 0)
(23.14086 -0.0002312561 0)
(23.14091 -0.0001754806 0)
(23.14094 -0.0001191652 0)
(23.14097 -6.253361e-05 0)
(33.47189 -0.0004142343 0)
(25.32152 -0.0005063758 0)
(22.02759 -0.0005305995 0)
(22.9008 -0.0005709634 0)
(23.23468 -0.0006079744 0)
(23.14131 -0.0006387455 0)
(23.10761 -0.0006701211 0)
(23.11769 -0.0007046752 0)
(23.12122 -0.0007419755 0)
(23.12029 -0.0007813695 0)
(23.12008 -0.0008223105 0)
(23.12035 -0.0008641937 0)
(23.12055 -0.0009064316 0)
(23.1207 -0.0009485268 0)
(23.12088 -0.0009900764 0)
(23.12107 -0.00103076 0)
(23.12126 -0.00107033 0)
(23.12147 -0.0011086 0)
(23.12168 -0.001145435 0)
(23.1219 -0.001180743 0)
(23.12212 -0.001214465 0)
(23.12235 -0.001246567 0)
(23.12259 -0.001277039 0)
(23.12283 -0.001305888 0)
(23.12307 -0.001333135 0)
(23.12333 -0.001358808 0)
(23.12358 -0.001382947 0)
(23.12384 -0.001405596 0)
(23.12411 -0.001426801 0)
(23.12437 -0.001446615 0)
(23.12464 -0.001465088 0)
(23.12492 -0.001482273 0)
(23.1252 -0.001498223 0)
(23.12548 -0.001512989 0)
(23.12576 -0.001526619 0)
(23.12604 -0.001539163 0)
(23.12633 -0.001550664 0)
(23.12662 -0.001561167 0)
(23.12691 -0.001570711 0)
(23.1272 -0.001579333 0)
(23.12749 -0.001587068 0)
(23.12779 -0.001593945 0)
(23.12809 -0.001599993 0)
(23.12838 -0.001605236 0)
(23.12868 -0.001609695 0)
(23.12898 -0.001613387 0)
(23.12928 -0.001616327 0)
(23.12958 -0.001618525 0)
(23.12988 -0.001619988 0)
(23.13018 -0.00162072 0)
(23.13048 -0.001620722 0)
(23.13078 -0.00161999 0)
(23.13108 -0.001618518 0)
(23.13138 -0.001616296 0)
(23.13168 -0.001613309 0)
(23.13198 -0.001609541 0)
(23.13228 -0.001604972 0)
(23.13257 -0.001599576 0)
(23.13287 -0.001593326 0)
(23.13316 -0.001586191 0)
(23.13346 -0.001578136 0)
(23.13375 -0.001569122 0)
(23.13404 -0.001559107 0)
(23.13433 -0.001548046 0)
(23.13462 -0.001535889 0)
(23.1349 -0.001522586 0)
(23.13519 -0.00150808 0)
(23.13547 -0.001492313 0)
(23.13574 -0.001475225 0)
(23.13602 -0.001456751 0)
(23.13629 -0.001436828 0)
(23.13655 -0.001415386 0)
(23.13682 -0.001392359 0)
(23.13708 -0.001367676 0)
(23.13733 -0.001341269 0)
(23.13758 -0.00131307 0)
(23.13783 -0.001283011 0)
(23.13807 -0.001251029 0)
(23.1383 -0.001217063 0)
(23.13853 -0.001181056 0)
(23.13875 -0.001142959 0)
(23.13896 -0.001102729 0)
(23.13917 -0.001060331 0)
(23.13937 -0.001015742 0)
(23.13956 -0.0009689475 0)
(23.13974 -0.0009199485 0)
(23.13991 -0.000868759 0)
(23.14007 -0.0008154086 0)
(23.14023 -0.0007599434 0)
(23.14037 -0.0007024276 0)
(23.1405 -0.0006429435 0)
(23.14062 -0.0005815922 0)
(23.14073 -0.0005184939 0)
(23.14083 -0.0004537877 0)
(23.14091 -0.0003876306 0)
(23.14099 -0.0003201968 0)
(23.14105 -0.0002516751 0)
(23.14109 -0.0001822708 0)
(23.14113 -0.0001121833 0)
(23.14115 -4.170419e-05 0)
(33.47179 -0.0003045119 0)
(25.32157 -0.0004203511 0)
(22.02768 -0.0004752547 0)
(22.90088 -0.0005342516 0)
(23.23476 -0.0005924914 0)
(23.14139 -0.0006477892 0)
(23.10768 -0.0007029989 0)
(23.11775 -0.0007596067 0)
(23.12128 -0.0008173437 0)
(23.12034 -0.0008755685 0)
(23.12014 -0.0009337411 0)
(23.1204 -0.0009913729 0)
(23.1206 -0.001048021 0)
(23.12076 -0.001103323 0)
(23.12093 -0.001157 0)
(23.12112 -0.00120884 0)
(23.12132 -0.001258694 0)
(23.12153 -0.001306458 0)
(23.12174 -0.001352072 0)
(23.12196 -0.001395504 0)
(23.12219 -0.00143675 0)
(23.12242 -0.001475827 0)
(23.12266 -0.001512766 0)
(23.1229 -0.001547612 0)
(23.12315 -0.00158042 0)
(23.1234 -0.001611252 0)
(23.12366 -0.001640172 0)
(23.12392 -0.001667252 0)
(23.12419 -0.001692562 0)
(23.12446 -0.001716176 0)
(23.12473 -0.001738166 0)
(23.125 -0.001758602 0)
(23.12528 -0.001777555 0)
(23.12556 -0.00179509 0)
(23.12585 -0.001811273 0)
(23.12613 -0.001826165 0)
(23.12642 -0.001839824 0)
(23.12671 -0.001852304 0)
(23.127 -0.001863656 0)
(23.1273 -0.001873926 0)
(23.12759 -0.001883156 0)
(23.12789 -0.001891386 0)
(23.12818 -0.00189865 0)
(23.12848 -0.001904978 0)
(23.12878 -0.001910397 0)
(23.12908 -0.001914927 0)
(23.12938 -0.001918588 0)
(23.12968 -0.001921393 0)
(23.12998 -0.00192335 0)
(23.13028 -0.001924466 0)
(23.13058 -0.001924741 0)
(23.13089 -0.001924173 0)
(23.13119 -0.001922754 0)
(23.13149 -0.001920472 0)
(23.13179 -0.001917312 0)
(23.13209 -0.001913254 0)
(23.13239 -0.001908274 0)
(23.13268 -0.001902344 0)
(23.13298 -0.00189543 0)
(23.13328 -0.001887495 0)
(23.13357 -0.001878499 0)
(23.13387 -0.001868395 0)
(23.13416 -0.001857134 0)
(23.13445 -0.001844663 0)
(23.13474 -0.001830922 0)
(23.13502 -0.001815849 0)
(23.13531 -0.00179938 0)
(23.13559 -0.001781445 0)
(23.13587 -0.001761969 0)
(23.13614 -0.001740879 0)
(23.13642 -0.001718095 0)
(23.13669 -0.001693535 0)
(23.13695 -0.001667119 0)
(23.13721 -0.001638762 0)
(23.13747 -0.001608381 0)
(23.13772 -0.001575892 0)
(23.13797 -0.001541215 0)
(23.13821 -0.00150427 0)
(23.13844 -0.001464984 0)
(23.13867 -0.001423286 0)
(23.1389 -0.001379115 0)
(23.13911 -0.001332415 0)
(23.13932 -0.001283144 0)
(23.13952 -0.001231268 0)
(23.13971 -0.001176769 0)
(23.1399 -0.001119644 0)
(23.14007 -0.001059906 0)
(23.14024 -0.0009975865 0)
(23.14039 -0.0009327388 0)
(23.14054 -0.000865436 0)
(23.14067 -0.000795774 0)
(23.1408 -0.0007238717 0)
(23.14091 -0.0006498708 0)
(23.14101 -0.0005739363 0)
(23.14109 -0.0004962548 0)
(23.14117 -0.0004170339 0)
(23.14123 -0.0003364989 0)
(23.14128 -0.0002548953 0)
(23.14131 -0.0001724621 0)
(23.14134 -8.955072e-05 0)
(33.47167 -0.0002651792 0)
(25.32153 -0.0004132856 0)
(22.02767 -0.000504578 0)
(22.90087 -0.000592606 0)
(23.23476 -0.0006768128 0)
(23.14139 -0.0007549198 0)
(23.10768 -0.0008288104 0)
(23.11776 -0.0009004215 0)
(23.1213 -0.0009704583 0)
(23.12036 -0.001039039 0)
(23.12016 -0.001106167 0)
(23.12042 -0.001171768 0)
(23.12062 -0.001235694 0)
(23.12078 -0.001297777 0)
(23.12096 -0.00135786 0)
(23.12115 -0.001415808 0)
(23.12135 -0.001471512 0)
(23.12156 -0.001524892 0)
(23.12178 -0.001575895 0)
(23.122 -0.001624493 0)
(23.12223 -0.001670683 0)
(23.12246 -0.001714478 0)
(23.1227 -0.001755908 0)
(23.12295 -0.001795019 0)
(23.1232 -0.001831863 0)
(23.12345 -0.001866506 0)
(23.12371 -0.001899014 0)
(23.12398 -0.001929462 0)
(23.12424 -0.001957926 0)
(23.12451 -0.001984483 0)
(23.12479 -0.002009212 0)
(23.12507 -0.002032188 0)
(23.12535 -0.002053489 0)
(23.12563 -0.002073186 0)
(23.12591 -0.00209135 0)
(23.1262 -0.002108049 0)
(23.12649 -0.002123345 0)
(23.12678 -0.002137299 0)
(23.12707 -0.002149966 0)
(23.12737 -0.002161398 0)
(23.12766 -0.002171641 0)
(23.12796 -0.002180738 0)
(23.12826 -0.002188726 0)
(23.12856 -0.002195639 0)
(23.12886 -0.002201505 0)
(23.12916 -0.002206349 0)
(23.12946 -0.00221019 0)
(23.12976 -0.002213041 0)
(23.13006 -0.002214914 0)
(23.13036 -0.002215813 0)
(23.13066 -0.00221574 0)
(23.13097 -0.002214689 0)
(23.13127 -0.002212651 0)
(23.13157 -0.002209614 0)
(23.13187 -0.002205558 0)
(23.13217 -0.002200461 0)
(23.13247 -0.002194294 0)
(23.13277 -0.002187025 0)
(23.13307 -0.002178614 0)
(23.13337 -0.00216902 0)
(23.13366 -0.002158195 0)
(23.13396 -0.002146087 0)
(23.13425 -0.002132636 0)
(23.13454 -0.002117782 0)
(23.13483 -0.002101457 0)
(23.13512 -0.002083589 0)
(23.1354 -0.002064102 0)
(23.13569 -0.002042914 0)
(23.13597 -0.002019942 0)
(23.13624 -0.001995097 0)
(23.13652 -0.001968287 0)
(23.13679 -0.001939418 0)
(23.13706 -0.001908392 0)
(23.13732 -0.001875113 0)
(23.13758 -0.001839481 0)
(23.13783 -0.001801399 0)
(23.13808 -0.001760769 0)
(23.13833 -0.001717499 0)
(23.13856 -0.001671499 0)
(23.1388 -0.001622685 0)
(23.13902 -0.001570981 0)
(23.13924 -0.001516322 0)
(23.13945 -0.001458652 0)
(23.13965 -0.001397929 0)
(23.13985 -0.001334129 0)
(23.14004 -0.001267244 0)
(23.14021 -0.001197284 0)
(23.14038 -0.001124284 0)
(23.14054 -0.001048302 0)
(23.14069 -0.0009694204 0)
(23.14082 -0.0008877485 0)
(23.14095 -0.0008034234 0)
(23.14106 -0.0007166095 0)
(23.14116 -0.0006274989 0)
(23.14125 -0.0005363104 0)
(23.14133 -0.0004432882 0)
(23.14139 -0.0003486979 0)
(23.14144 -0.0002528311 0)
(23.14147 -0.0001559721 0)
(23.1415 -5.854197e-05 0)
(33.47157 -0.000240819 0)
(25.32149 -0.0004023425 0)
(22.02766 -0.0005087925 0)
(22.90087 -0.0006097251 0)
(23.23476 -0.0007080743 0)
(23.14139 -0.0008012371 0)
(23.10769 -0.0008901929 0)
(23.11777 -0.0009765841 0)
(23.1213 -0.001061051 0)
(23.12037 -0.001143632 0)
(23.12016 -0.001224245 0)
(23.12043 -0.001302758 0)
(23.12063 -0.001378991 0)
(23.12079 -0.001452757 0)
(23.12098 -0.001523891 0)
(23.12117 -0.00159226 0)
(23.12137 -0.001657767 0)
(23.12158 -0.001720349 0)
(23.1218 -0.001779973 0)
(23.12202 -0.001836637 0)
(23.12226 -0.00189036 0)
(23.12249 -0.001941186 0)
(23.12274 -0.00198917 0)
(23.12298 -0.002034385 0)
(23.12324 -0.002076911 0)
(23.12349 -0.002116838 0)
(23.12376 -0.002154259 0)
(23.12402 -0.002189272 0)
(23.12429 -0.002221976 0)
(23.12456 -0.00225247 0)
(23.12484 -0.002280852 0)
(23.12512 -0.002307218 0)
(23.1254 -0.002331661 0)
(23.12569 -0.002354272 0)
(23.12597 -0.002375137 0)
(23.12626 -0.002394336 0)
(23.12655 -0.002411947 0)
(23.12684 -0.002428042 0)
(23.12714 -0.002442686 0)
(23.12743 -0.002455943 0)
(23.12773 -0.002467867 0)
(23.12803 -0.002478509 0)
(23.12833 -0.002487915 0)
(23.12863 -0.002496124 0)
(23.12893 -0.002503169 0)
(23.12923 -0.002509081 0)
(23.12953 -0.002513881 0)
(23.12983 -0.002517588 0)
(23.13014 -0.002520214 0)
(23.13044 -0.002521766 0)
(23.13074 -0.002522244 0)
(23.13105 -0.002521646 0)
(23.13135 -0.00251996 0)
(23.13165 -0.002517173 0)
(23.13195 -0.002513264 0)
(23.13226 -0.002508206 0)
(23.13256 -0.002501967 0)
(23.13286 -0.002494512 0)
(23.13316 -0.002485796 0)
(23.13346 -0.002475771 0)
(23.13375 -0.002464383 0)
(23.13405 -0.002451572 0)
(23.13434 -0.002437273 0)
(23.13464 -0.002421413 0)
(23.13493 -0.002403916 0)
(23.13522 -0.0023847 0)
(23.13551 -0.002363677 0)
(23.13579 -0.002340755 0)
(23.13607 -0.002315836 0)
(23.13635 -0.002288818 0)
(23.13663 -0.002259595 0)
(23.1369 -0.002228057 0)
(23.13717 -0.002194093 0)
(23.13744 -0.002157588 0)
(23.1377 -0.002118427 0)
(23.13795 -0.002076495 0)
(23.13821 -0.002031679 0)
(23.13845 -0.001983866 0)
(23.13869 -0.001932952 0)
(23.13893 -0.001878836 0)
(23.13916 -0.001821426 0)
(23.13938 -0.00176064 0)
(23.1396 -0.001696411 0)
(23.1398 -0.001628685 0)
(23.14 -0.001557426 0)
(23.14019 -0.001482619 0)
(23.14037 -0.001404273 0)
(23.14054 -0.001322419 0)
(23.1407 -0.001237119 0)
(23.14085 -0.001148463 0)
(23.14099 -0.001056572 0)
(23.14112 -0.0009616013 0)
(23.14124 -0.0008637362 0)
(23.14134 -0.0007631969 0)
(23.14143 -0.0006602349 0)
(23.14151 -0.0005551323 0)
(23.14157 -0.0004481971 0)
(23.14162 -0.0003397685 0)
(23.14166 -0.0002301784 0)
(23.14169 -0.0001199182 0)
(33.47147 -0.0002376601 0)
(25.32143 -0.0004170632 0)
(22.02761 -0.0005418105 0)
(22.90083 -0.0006610956 0)
(23.23472 -0.0007790711 0)
(23.14136 -0.0008916921 0)
(23.10766 -0.0009988855 0)
(23.11775 -0.001101975 0)
(23.12128 -0.001201569 0)
(23.12035 -0.001297777 0)
(23.12015 -0.001390653 0)
(23.12042 -0.001480225 0)
(23.12062 -0.001566471 0)
(23.12079 -0.001649346 0)
(23.12098 -0.001728808 0)
(23.12117 -0.001804826 0)
(23.12138 -0.001877383 0)
(23.12159 -0.001946483 0)
(23.12181 -0.002012149 0)
(23.12204 -0.002074421 0)
(23.12228 -0.002133355 0)
(23.12252 -0.002189023 0)
(23.12276 -0.002241508 0)
(23.12301 -0.002290903 0)
(23.12327 -0.002337309 0)
(23.12353 -0.002380831 0)
(23.12379 -0.00242158 0)
(23.12406 -0.002459665 0)
(23.12433 -0.0024952 0)
(23.12461 -0.002528295 0)
(23.12489 -0.00255906 0)
(23.12517 -0.0025876 0)
(23.12545 -0.00261402 0)
(23.12574 -0.002638417 0)
(23.12603 -0.002660885 0)
(23.12632 -0.002681514 0)
(23.12661 -0.002700388 0)
(23.1269 -0.002717585 0)
(23.1272 -0.002733177 0)
(23.12749 -0.002747231 0)
(23.12779 -0.002759808 0)
(23.12809 -0.002770963 0)
(23.12839 -0.002780744 0)
(23.12869 -0.002789195 0)
(23.129 -0.002796351 0)
(23.1293 -0.002802244 0)
(23.1296 -0.002806899 0)
(23.1299 -0.002810335 0)
(23.13021 -0.002812565 0)
(23.13051 -0.002813595 0)
(23.13082 -0.002813426 0)
(23.13112 -0.002812055 0)
(23.13142 -0.002809469 0)
(23.13173 -0.002805652 0)
(23.13203 -0.00280058 0)
(23.13233 -0.002794226 0)
(23.13264 -0.002786553 0)
(23.13294 -0.002777519 0)
(23.13324 -0.002767078 0)
(23.13354 -0.002755175 0)
(23.13384 -0.00274175 0)
(23.13413 -0.002726736 0)
(23.13443 -0.002710059 0)
(23.13473 -0.002691641 0)
(23.13502 -0.002671394 0)
(23.13531 -0.002649228 0)
(23.1356 -0.002625043 0)
(23.13589 -0.002598736 0)
(23.13617 -0.002570196 0)
(23.13645 -0.002539309 0)
(23.13673 -0.002505954 0)
(23.137 -0.002470007 0)
(23.13728 -0.002431341 0)
(23.13755 -0.002389826 0)
(23.13781 -0.002345328 0)
(23.13807 -0.002297717 0)
(23.13832 -0.00224686 0)
(23.13857 -0.002192628 0)
(23.13882 -0.002134898 0)
(23.13906 -0.002073551 0)
(23.13929 -0.002008479 0)
(23.13951 -0.001939583 0)
(23.13973 -0.001866781 0)
(23.13994 -0.001790004 0)
(23.14015 -0.001709206 0)
(23.14034 -0.001624363 0)
(23.14052 -0.001535477 0)
(23.1407 -0.001442578 0)
(23.14086 -0.001345729 0)
(23.14102 -0.001245027 0)
(23.14116 -0.001140605 0)
(23.14129 -0.001032634 0)
(23.14141 -0.0009213248 0)
(23.14152 -0.0008069249 0)
(23.14161 -0.0006897215 0)
(23.14169 -0.0005700377 0)
(23.14175 -0.000448228 0)
(23.14181 -0.0003246846 0)
(23.14184 -0.0001997917 0)
(23.14187 -7.412024e-05 0)
(33.47136 -0.000241123 0)
(25.32135 -0.0004350224 0)
(22.02756 -0.0005725926 0)
(22.90078 -0.0007045035 0)
(23.23468 -0.0008361787 0)
(23.14133 -0.0009626879 0)
(23.10763 -0.00108344 0)
(23.11772 -0.001199671 0)
(23.12126 -0.001311956 0)
(23.12033 -0.001420379 0)
(23.12013 -0.00152498 0)
(23.12041 -0.001625786 0)
(23.12061 -0.001722772 0)
(23.12078 -0.001815894 0)
(23.12097 -0.001905108 0)
(23.12117 -0.001990385 0)
(23.12138 -0.002071715 0)
(23.1216 -0.002149106 0)
(23.12182 -0.002222593 0)
(23.12206 -0.002292228 0)
(23.12229 -0.002358083 0)
(23.12254 -0.002420246 0)
(23.12279 -0.002478821 0)
(23.12304 -0.002533918 0)
(23.1233 -0.00258566 0)
(23.12356 -0.002634171 0)
(23.12383 -0.002679583 0)
(23.1241 -0.002722026 0)
(23.12437 -0.002761633 0)
(23.12465 -0.002798532 0)
(23.12493 -0.002832852 0)
(23.12522 -0.002864716 0)
(23.1255 -0.002894243 0)
(23.12579 -0.002921547 0)
(23.12608 -0.002946737 0)
(23.12637 -0.002969916 0)
(23.12667 -0.002991178 0)
(23.12696 -0.003010614 0)
(23.12726 -0.003028306 0)
(23.12756 -0.00304433 0)
(23.12786 -0.003058756 0)
(23.12816 -0.003071646 0)
(23.12846 -0.003083054 0)
(23.12876 -0.00309303 0)
(23.12907 -0.003101616 0)
(23.12937 -0.003108845 0)
(23.12967 -0.003114746 0)
(23.12998 -0.003119341 0)
(23.13028 -0.003122644 0)
(23.13059 -0.003124664 0)
(23.1309 -0.003125401 0)
(23.1312 -0.00312485 0)
(23.13151 -0.003123 0)
(23.13181 -0.003119831 0)
(23.13212 -0.003115318 0)
(23.13242 -0.003109429 0)
(23.13272 -0.003102124 0)
(23.13303 -0.003093358 0)
(23.13333 -0.003083077 0)
(23.13363 -0.003071221 0)
(23.13393 -0.003057722 0)
(23.13423 -0.003042507 0)
(23.13453 -0.003025493 0)
(23.13483 -0.003006592 0)
(23.13512 -0.002985708 0)
(23.13541 -0.002962736 0)
(23.13571 -0.002937568 0)
(23.13599 -0.002910085 0)
(23.13628 -0.002880164 0)
(23.13657 -0.002847676 0)
(23.13685 -0.002812485 0)
(23.13712 -0.002774449 0)
(23.1374 -0.002733424 0)
(23.13767 -0.002689261 0)
(23.13794 -0.002641808 0)
(23.1382 -0.002590915 0)
(23.13846 -0.002536428 0)
(23.13871 -0.002478198 0)
(23.13896 -0.002416079 0)
(23.1392 -0.002349934 0)
(23.13944 -0.002279631 0)
(23.13967 -0.002205054 0)
(23.13989 -0.0021261 0)
(23.14011 -0.002042683 0)
(23.14031 -0.001954743 0)
(23.14051 -0.001862241 0)
(23.1407 -0.00176517 0)
(23.14088 -0.001663555 0)
(23.14105 -0.001557457 0)
(23.14121 -0.001446977 0)
(23.14135 -0.001332257 0)
(23.14149 -0.001213486 0)
(23.14161 -0.001090894 0)
(23.14172 -0.0009647595 0)
(23.14182 -0.0008354063 0)
(23.1419 -0.0007032006 0)
(23.14197 -0.0005685467 0)
(23.14202 -0.0004318934 0)
(23.14206 -0.0002936823 0)
(23.14209 -0.0001545701 0)
(33.47125 -0.0002524128 0)
(25.32127 -0.000463202 0)
(22.0275 -0.0006151511 0)
(22.90072 -0.0007619217 0)
(23.23462 -0.000909814 0)
(23.14127 -0.001052841 0)
(23.10758 -0.001189776 0)
(23.11768 -0.001321608 0)
(23.12122 -0.00144873 0)