/*--------------------------------*- C++ -*----------------------------------*\
| =========                 |                                                 |
| \\      /  F ield         | OpenFOAM: The Open Source CFD Toolbox           |
|  \\    /   O peration     | Version:  2.3.0                                 |
|   \\  /    A nd           | Web:      www.OpenFOAM.org                      |
|    \\/     M anipulation  |                                                 |
\*---------------------------------------------------------------------------*/
FoamFile
{
    version     2.0;
    format      ascii;
    class       surfaceScalarField;
    location    "10000/bottomAir";
    object      phi;
}
// * * * * * * * * * * * * * * * * * * * * * * * * * * * * * * * * * * * * * //

dimensions      [1 0 -1 0 0 0 0];

internalField   nonuniform List<scalar> 
7860
(
0.006690841
-1.218743e-06
0.006691196
-3.547899e-07
0.006691287
-8.968999e-08
0.0066914
-1.122731e-07
0.006691483
-8.238407e-08
0.006691537
-5.394828e-08
0.006691583
-4.550846e-08
0.006691626
-4.272745e-08
0.006691667
-4.127642e-08
0.006691708
-4.130265e-08
0.00669175
-4.234107e-08
0.006691794
-4.386601e-08
0.00669184
-4.564849e-08
0.006691887
-4.757421e-08
0.006691937
-4.956392e-08
0.006691988
-5.156371e-08
0.006692042
-5.354035e-08
0.006692097
-5.54719e-08
0.006692154
-5.734382e-08
0.006692213
-5.914663e-08
0.006692274
-6.087411e-08
0.006692337
-6.252283e-08
0.006692401
-6.409073e-08
0.006692466
-6.557748e-08
0.006692533
-6.698327e-08
0.006692601
-6.830943e-08
0.006692671
-6.955737e-08
0.006692742
-7.072931e-08
0.006692813
-7.182733e-08
0.006692886
-7.285406e-08
0.00669296
-7.381189e-08
0.006693035
-7.470356e-08
0.00669311
-7.553157e-08
0.006693186
-7.629858e-08
0.006693263
-7.700703e-08
0.006693341
-7.765938e-08
0.006693419
-7.825792e-08
0.006693498
-7.880485e-08
0.006693577
-7.930221e-08
0.006693657
-7.97519e-08
0.006693737
-8.015568e-08
0.006693817
-8.051511e-08
0.006693898
-8.083167e-08
0.006693979
-8.110654e-08
0.006694061
-8.134087e-08
0.006694142
-8.153552e-08
0.006694224
-8.169127e-08
0.006694305
-8.180862e-08
0.006694387
-8.188803e-08
0.006694469
-8.192962e-08
0.006694551
-8.193351e-08
0.006694633
-8.189945e-08
0.006694715
-8.182721e-08
0.006694797
-8.171619e-08
0.006694878
-8.156579e-08
0.006694959
-8.137504e-08
0.006695041
-8.1143e-08
0.006695121
-8.086832e-08
0.006695202
-8.054971e-08
0.006695282
-8.018546e-08
0.006695362
-7.977391e-08
0.006695441
-7.9313e-08
0.00669552
-7.880072e-08
0.006695598
-7.823466e-08
0.006695676
-7.761247e-08
0.006695753
-7.693142e-08
0.006695829
-7.618886e-08
0.006695904
-7.538176e-08
0.006695979
-7.45072e-08
0.006696052
-7.356193e-08
0.006696125
-7.254281e-08
0.006696196
-7.144643e-08
0.006696267
-7.026955e-08
0.006696336
-6.900869e-08
0.006696403
-6.766062e-08
0.006696469
-6.622195e-08
0.006696534
-6.468959e-08
0.006696597
-6.306041e-08
0.006696658
-6.133169e-08
0.006696718
-5.950073e-08
0.006696775
-5.756539e-08
0.006696831
-5.552367e-08
0.006696884
-5.337425e-08
0.006696935
-5.111609e-08
0.006696984
-4.874896e-08
0.00669703
-4.627302e-08
0.006697074
-4.368939e-08
0.006697115
-4.099971e-08
0.006697153
-3.820666e-08
0.006697189
-3.531359e-08
0.006697221
-3.232493e-08
0.00669725
-2.924591e-08
0.006697276
-2.608295e-08
0.006697299
-2.284349e-08
0.006697319
-1.953661e-08
0.006697335
-1.617354e-08
0.006697348
-1.276915e-08
0.006697357
-9.348717e-09
0.006697363
-5.945197e-09
-2.690385e-09
0.006689852
-6.615889e-07
0.006689855
-3.572184e-07
0.006689918
-1.518467e-07
0.006689935
-1.287266e-07
0.006689963
-1.093143e-07
0.006689998
-8.828127e-08
0.006690032
-8.016847e-08
0.006690068
-7.854317e-08
0.006690106
-7.906487e-08
0.006690146
-8.109062e-08
0.006690188
-8.417812e-08
0.006690232
-8.784439e-08
0.006690278
-9.180889e-08
0.006690326
-9.591759e-08
0.006690376
-1.000654e-07
0.006690429
-1.041804e-07
0.006690483
-1.082144e-07
0.00669054
-1.12135e-07
0.006690599
-1.159205e-07
0.006690659
-1.195566e-07
0.006690721
-1.230342e-07
0.006690785
-1.263481e-07
0.00669085
-1.294964e-07
0.006690917
-1.324788e-07
0.006690985
-1.35297e-07
0.006691055
-1.379537e-07
0.006691126
-1.404528e-07
0.006691198
-1.427985e-07
0.006691271
-1.449956e-07
0.006691345
-1.470492e-07
0.00669142
-1.489647e-07
0.006691496
-1.507473e-07
0.006691573
-1.524023e-07
0.00669165
-1.539351e-07
0.006691729
-1.553506e-07
0.006691808
-1.566538e-07
0.006691887
-1.578493e-07
0.006691967
-1.589415e-07
0.006692048
-1.599347e-07
0.006692129
-1.608325e-07
0.00669221
-1.616385e-07
0.006692292
-1.62356e-07
0.006692374
-1.629877e-07
0.006692457
-1.635363e-07
0.006692539
-1.640037e-07
0.006692622
-1.643921e-07
0.006692705
-1.647026e-07
0.006692788
-1.649366e-07
0.006692871
-1.650947e-07
0.006692955
-1.651774e-07
0.006693038
-1.651848e-07
0.006693121
-1.651165e-07
0.006693204
-1.649719e-07
0.006693287
-1.6475e-07
0.00669337
-1.644493e-07
0.006693453
-1.640683e-07
0.006693535
-1.636047e-07
0.006693617
-1.630561e-07
0.006693699
-1.624196e-07
0.006693781
-1.616922e-07
0.006693862
-1.608702e-07
0.006693942
-1.599498e-07
0.006694022
-1.589266e-07
0.006694102
-1.577962e-07
0.006694181
-1.565534e-07
0.006694259
-1.551933e-07
0.006694337
-1.537101e-07
0.006694413
-1.520981e-07
0.006694489
-1.50351e-07
0.006694564
-1.484628e-07
0.006694638
-1.464268e-07
0.006694711
-1.442364e-07
0.006694782
-1.418848e-07
0.006694853
-1.393654e-07
0.006694922
-1.366714e-07
0.006694989
-1.337961e-07
0.006695055
-1.307331e-07
0.00669512
-1.274765e-07
0.006695182
-1.240202e-07
0.006695243
-1.203593e-07
0.006695302
-1.164891e-07
0.006695359
-1.124058e-07
0.006695414
-1.081064e-07
0.006695466
-1.035891e-07
0.006695516
-9.885293e-08
0.006695564
-9.389863e-08
0.006695609
-8.872798e-08
0.006695651
-8.334455e-08
0.006695691
-7.775333e-08
0.006695727
-7.196125e-08
0.006695761
-6.597683e-08
0.006695792
-5.981066e-08
0.006695819
-5.347506e-08
0.006695843
-4.698447e-08
0.006695864
-4.035527e-08
0.006695881
-3.360611e-08
0.006695895
-2.675782e-08
0.006695906
-1.983436e-08
0.006695913
-1.286082e-08
-5.869651e-09
0.006690125
-3.681477e-07
0.006690022
-2.536857e-07
0.006690024
-1.531158e-07
0.006690034
-1.376357e-07
0.006690054
-1.291436e-07
0.006690085
-1.184297e-07
0.006690119
-1.141223e-07
0.006690155
-1.145914e-07
0.006690193
-1.172277e-07
0.006690233
-1.212953e-07
0.006690276
-1.263979e-07
0.00669032
-1.321251e-07
0.006690366
-1.38189e-07
0.006690415
-1.444063e-07
0.006690465
-1.50649e-07
0.006690518
-1.568256e-07
0.006690572
-1.628722e-07
0.006690629
-1.687444e-07
0.006690687
-1.744118e-07
0.006690747
-1.798539e-07
0.006690809
-1.850579e-07
0.006690873
-1.900165e-07
0.006690938
-1.947265e-07
0.006691005
-1.99188e-07
0.006691073
-2.034034e-07
0.006691142
-2.073771e-07
0.006691213
-2.111144e-07
0.006691284
-2.146222e-07
0.006691357
-2.179074e-07
0.006691431
-2.20978e-07
0.006691506
-2.238416e-07
0.006691582
-2.265065e-07
0.006691658
-2.289805e-07
0.006691735
-2.312716e-07
0.006691813
-2.333874e-07
0.006691892
-2.353351e-07
0.006691971
-2.371219e-07
0.006692051
-2.387542e-07
0.006692131
-2.402384e-07
0.006692212
-2.415802e-07
0.006692293
-2.427848e-07
0.006692375
-2.438571e-07
0.006692456
-2.448012e-07
0.006692538
-2.456211e-07
0.006692621
-2.463199e-07
0.006692703
-2.469004e-07
0.006692786
-2.473647e-07
0.006692869
-2.477147e-07
0.006692951
-2.479514e-07
0.006693034
-2.480754e-07
0.006693117
-2.480869e-07
0.0066932
-2.479854e-07
0.006693283
-2.477698e-07
0.006693366
-2.474388e-07
0.006693448
-2.469902e-07
0.00669353
-2.464214e-07
0.006693612
-2.457292e-07
0.006693694
-2.4491e-07
0.006693776
-2.439595e-07
0.006693857
-2.428729e-07
0.006693938
-2.41645e-07
0.006694018
-2.402697e-07
0.006694098
-2.387409e-07
0.006694177
-2.370515e-07
0.006694256
-2.351941e-07
0.006694334
-2.331609e-07
0.006694411
-2.309436e-07
0.006694487
-2.285332e-07
0.006694563
-2.259207e-07
0.006694637
-2.230965e-07
0.006694711
-2.200508e-07
0.006694784
-2.167736e-07
0.006694855
-2.132548e-07
0.006694925
-2.094841e-07
0.006694994
-2.054512e-07
0.006695061
-2.011462e-07
0.006695127
-1.965594e-07
0.006695191
-1.916814e-07
0.006695254
-1.865035e-07
0.006695314
-1.810177e-07
0.006695373
-1.75217e-07
0.00669543
-1.690956e-07
0.006695484
-1.626487e-07
0.006695537
-1.558734e-07
0.006695586
-1.487684e-07
0.006695634
-1.413343e-07
0.006695679
-1.335738e-07
0.006695721
-1.25492e-07
0.00669576
-1.170965e-07
0.006695797
-1.083973e-07
0.00669583
-9.940737e-08
0.00669586
-9.014229e-08
0.006695888
-8.062058e-08
0.006695911
-7.08636e-08
0.006695932
-6.089557e-08
0.006695949
-5.074352e-08
0.006695963
-4.043697e-08
0.006695973
-3.000777e-08
0.00669598
-1.94861e-08
-8.902594e-09
0.006690215
-2.107656e-07
0.006690155
-1.935573e-07
0.006690158
-1.553676e-07
0.00669017
-1.481085e-07
0.006690187
-1.456459e-07
0.006690211
-1.425037e-07
0.00669024
-1.428415e-07
0.006690272
-1.465489e-07
0.006690307
-1.521837e-07
0.006690345
-1.590645e-07
0.006690385
-1.668105e-07
0.006690428
-1.750779e-07
0.006690473
-1.836022e-07
0.006690521
-1.92201e-07
0.006690571
-2.007443e-07
0.006690623
-2.091378e-07
0.006690678
-2.173145e-07
0.006690734
-2.252274e-07
0.006690792
-2.328441e-07
0.006690853
-2.401434e-07
0.006690915
-2.471123e-07
0.006690978
-2.537441e-07
0.006691043
-2.600369e-07
0.00669111
-2.659925e-07
0.006691178
-2.716155e-07
0.006691248
-2.769126e-07
0.006691319
-2.818921e-07
0.00669139
-2.865634e-07
0.006691463
-2.909366e-07
0.006691537
-2.950224e-07
0.006691612
-2.988317e-07
0.006691688
-3.023755e-07
0.006691765
-3.056646e-07
0.006691842
-3.087098e-07
0.00669192
-3.115214e-07
0.006691999
-3.141093e-07
0.006692078
-3.164829e-07
0.006692158
-3.186511e-07
0.006692238
-3.206223e-07
0.006692319
-3.224041e-07
0.0066924
-3.240037e-07
0.006692482
-3.254275e-07
0.006692564
-3.266812e-07
0.006692646
-3.277699e-07
0.006692728
-3.286979e-07
0.006692811
-3.294689e-07
0.006692894
-3.300858e-07
0.006692976
-3.30551e-07
0.006693059
-3.308659e-07
0.006693142
-3.310315e-07
0.006693225
-3.310477e-07
0.006693308
-3.309141e-07
0.006693391
-3.306293e-07
0.006693474
-3.301913e-07
0.006693556
-3.295973e-07
0.006693639
-3.288439e-07
0.006693721
-3.279269e-07
0.006693803
-3.268413e-07
0.006693884
-3.255815e-07
0.006693965
-3.241412e-07
0.006694046
-3.225131e-07
0.006694127
-3.206895e-07
0.006694207
-3.186618e-07
0.006694286
-3.164209e-07
0.006694365
-3.139567e-07
0.006694443
-3.112588e-07
0.00669452
-3.08316e-07
0.006694597
-3.051165e-07
0.006694672
-3.016479e-07
0.006694747
-2.978976e-07
0.006694821
-2.938523e-07
0.006694894
-2.894986e-07
0.006694965
-2.848227e-07
0.006695036
-2.798108e-07
0.006695105
-2.744493e-07
0.006695172
-2.687244e-07
0.006695238
-2.62623e-07
0.006695303
-2.561325e-07
0.006695365
-2.492409e-07
0.006695426
-2.419374e-07
0.006695485
-2.342123e-07
0.006695542
-2.260573e-07
0.006695597
-2.174662e-07
0.00669565
-2.084345e-07
0.0066957
-1.989601e-07
0.006695748
-1.890436e-07
0.006695793
-1.786885e-07
0.006695835
-1.679011e-07
0.006695875
-1.566914e-07
0.006695911
-1.450726e-07
0.006695945
-1.330618e-07
0.006695975
-1.206796e-07
0.006696003
-1.079507e-07
0.006696027
-9.490324e-08
0.006696047
-8.156912e-08
0.006696065
-6.79837e-08
0.006696078
-5.418522e-08
0.006696089
-4.021509e-08
0.006696095
-2.611331e-08
-1.193618e-08
0.006690283
-1.420247e-07
0.006690245
-1.548927e-07
0.006690236
-1.460338e-07
0.006690239
-1.497821e-07
0.006690249
-1.55795e-07
0.006690268
-1.611817e-07
0.006690294
-1.679059e-07
0.006690323
-1.763578e-07
0.006690357
-1.85953e-07
0.006690394
-1.962835e-07
0.006690435
-2.071017e-07
0.006690478
-2.181831e-07
0.006690523
-2.293375e-07
0.006690572
-2.404203e-07
0.006690622
-2.51323e-07
0.006690675
-2.619641e-07
0.00669073
-2.722832e-07
0.006690787
-2.822372e-07
0.006690845
-2.917961e-07
0.006690906
-3.009404e-07
0.006690969
-3.09659e-07
0.006691033
-3.179468e-07
0.006691098
-3.258041e-07
0.006691166
-3.332349e-07
0.006691234
-3.402464e-07
0.006691304
-3.468481e-07
0.006691375
-3.53051e-07
0.006691447
-3.588675e-07
0.006691521
-3.643109e-07
0.006691595
-3.693949e-07
0.00669167
-3.741335e-07
0.006691746
-3.785407e-07
0.006691823
-3.826302e-07
0.006691901
-3.864156e-07
0.006691979
-3.899099e-07
0.006692058
-3.931257e-07
0.006692138
-3.960748e-07
0.006692218
-3.987684e-07
0.006692298
-4.01217e-07
0.006692379
-4.034303e-07
0.006692461
-4.05417e-07
0.006692543
-4.071854e-07
0.006692625
-4.087425e-07
0.006692707
-4.100946e-07
0.006692789
-4.112474e-07
0.006692872
-4.122052e-07
0.006692955
-4.129719e-07
0.006693038
-4.135502e-07
0.006693121
-4.139421e-07
0.006693204
-4.141486e-07
0.006693287
-4.141699e-07
0.00669337
-4.140052e-07
0.006693453
-4.136529e-07
0.006693536
-4.131105e-07
0.006693619
-4.123745e-07
0.006693701
-4.114406e-07
0.006693784
-4.103036e-07
0.006693866
-4.089572e-07
0.006693948
-4.073944e-07
0.006694029
-4.056072e-07
0.00669411
-4.035868e-07
0.006694191
-4.013233e-07
0.006694271
-3.98806e-07
0.006694351
-3.960233e-07
0.00669443
-3.929629e-07
0.006694508
-3.896114e-07
0.006694585
-3.859549e-07
0.006694662
-3.819784e-07
0.006694738
-3.776666e-07
0.006694813
-3.730032e-07
0.006694888
-3.679717e-07
0.006694961
-3.62555e-07
0.006695032
-3.567357e-07
0.006695103
-3.504964e-07
0.006695173
-3.438196e-07
0.00669524
-3.366879e-07
0.006695307
-3.290845e-07
0.006695372
-3.209932e-07
0.006695435
-3.123988e-07
0.006695496
-3.03287e-07
0.006695556
-2.936454e-07
0.006695613
-2.834632e-07
0.006695668
-2.72732e-07
0.006695721
-2.614457e-07
0.006695772
-2.496013e-07
0.00669582
-2.37199e-07
0.006695866
-2.242426e-07
0.006695908
-2.107397e-07
0.006695948
-1.967024e-07
0.006695986
-1.821471e-07
0.00669602
-1.670947e-07
0.00669605
-1.515711e-07
0.006696078
-1.356069e-07
0.006696102
-1.192375e-07
0.006696123
-1.025026e-07
0.006696141
-8.544665e-08
0.006696155
-6.811724e-08
0.006696165
-5.056619e-08
0.006696172
-3.284348e-08
-1.502101e-08
0.006690285
-9.973043e-08
0.006690261
-1.306103e-07
0.006690258
-1.414419e-07
0.006690264
-1.550383e-07
0.006690277
-1.685433e-07
0.006690297
-1.808445e-07
0.006690322
-1.931578e-07
0.006690352
-2.060786e-07
0.006690386
-2.195105e-07
0.006690423
-2.332661e-07
0.006690463
-2.471991e-07
0.006690506
-2.611649e-07
0.006690551
-2.750257e-07
0.006690599
-2.886663e-07
0.00669065
-3.01995e-07
0.006690703
-3.149406e-07
0.006690758
-3.274494e-07
0.006690815
-3.394824e-07
0.006690874
-3.51013e-07
0.006690935
-3.620245e-07
0.006690998
-3.725084e-07
0.006691062
-3.824624e-07
0.006691128
-3.918898e-07
0.006691196
-4.007977e-07
0.006691265
-4.091965e-07
0.006691335
-4.170988e-07
0.006691406
-4.245194e-07
0.006691479
-4.314739e-07
0.006691553
-4.37979e-07
0.006691627
-4.44052e-07
0.006691703
-4.4971e-07
0.006691779
-4.549704e-07
0.006691856
-4.598501e-07
0.006691934
-4.643655e-07
0.006692013
-4.685326e-07
0.006692092
-4.723666e-07
0.006692172
-4.75882e-07
0.006692252
-4.790922e-07
0.006692333
-4.8201e-07
0.006692414
-4.846471e-07
0.006692495
-4.870141e-07
0.006692577
-4.891207e-07
0.00669266
-4.909757e-07
0.006692742
-4.925867e-07
0.006692825
-4.939601e-07
0.006692908
-4.951016e-07
0.006692991
-4.960156e-07
0.006693074
-4.967055e-07
0.006693157
-4.971736e-07
0.00669324
-4.974212e-07
0.006693323
-4.974485e-07
0.006693407
-4.972546e-07
0.00669349
-4.968375e-07
0.006693573
-4.961942e-07
0.006693656
-4.953207e-07
0.006693739
-4.942116e-07
0.006693821
-4.928607e-07
0.006693903
-4.912606e-07
0.006693985
-4.894029e-07
0.006694067
-4.872779e-07
0.006694148
-4.848749e-07
0.006694229
-4.821822e-07
0.006694309
-4.791869e-07
0.006694389
-4.758751e-07
0.006694469
-4.722317e-07
0.006694547
-4.682408e-07
0.006694625
-4.638854e-07
0.006694702
-4.591476e-07
0.006694779
-4.540086e-07
0.006694854
-4.484489e-07
0.006694928
-4.424483e-07
0.006695002
-4.359861e-07
0.006695074
-4.290411e-07
0.006695145
-4.21592e-07
0.006695215
-4.136173e-07
0.006695283
-4.050958e-07
0.00669535
-3.960067e-07
0.006695416
-3.863301e-07
0.006695479
-3.760469e-07
0.006695541
-3.651396e-07
0.006695601
-3.535925e-07
0.006695659
-3.413918e-07
0.006695715
-3.285267e-07
0.006695768
-3.149892e-07
0.00669582
-3.007748e-07
0.006695868
-2.858831e-07
0.006695914
-2.70318e-07
0.006695958
-2.540881e-07
0.006695998
-2.372073e-07
0.006696036
-2.196948e-07
0.00669607
-2.015755e-07
0.006696101
-1.828805e-07
0.006696129
-1.636463e-07
0.006696154
-1.439156e-07
0.006696175
-1.237366e-07
0.006696193
-1.031628e-07
0.006696207
-8.225215e-08
0.006696218
-6.106802e-08
0.006696224
-3.967189e-08
-1.815472e-08
0.00669029
-8.16456e-08
0.00669028
-1.1987e-07
0.006690279
-1.404604e-07
0.006690286
-1.609743e-07
0.006690299
-1.807186e-07
0.006690318
-1.990909e-07
0.006690341
-2.168147e-07
0.00669037
-2.344328e-07
0.006690402
-2.520344e-07
0.006690439
-2.695506e-07
0.006690478
-2.869045e-07
0.006690521
-3.040126e-07
0.006690567
-3.207858e-07
0.006690615
-3.371432e-07
0.006690666
-3.530173e-07
0.006690719
-3.683547e-07
0.006690775
-3.831147e-07
0.006690833
-3.972681e-07
0.006690892
-4.107961e-07
0.006690954
-4.236882e-07
0.006691017
-4.359416e-07
0.006691082
-4.475591e-07
0.006691149
-4.585484e-07
0.006691217
-4.689212e-07
0.006691286
-4.786922e-07
0.006691357
-4.878782e-07
0.006691429
-4.964979e-07
0.006691502
-5.045711e-07
0.006691576
-5.121184e-07
0.006691651
-5.191606e-07
0.006691727
-5.257186e-07
0.006691804
-5.318132e-07
0.006691881
-5.374646e-07
0.00669196
-5.426924e-07
0.006692039
-5.475155e-07
0.006692118
-5.51952e-07
0.006692198
-5.560188e-07
0.006692279
-5.597319e-07
0.00669236
-5.631063e-07
0.006692441
-5.661556e-07
0.006692523
-5.688925e-07
0.006692605
-5.713282e-07
0.006692688
-5.734729e-07
0.006692771
-5.753356e-07
0.006692854
-5.769239e-07
0.006692937
-5.782443e-07
0.00669302
-5.79302e-07
0.006693103
-5.801009e-07
0.006693187
-5.806438e-07
0.00669327
-5.809322e-07
0.006693354
-5.809662e-07
0.006693437
-5.807449e-07
0.006693521
-5.80266e-07
0.006693604
-5.795259e-07
0.006693687
-5.785199e-07
0.00669377
-5.772419e-07
0.006693853
-5.756846e-07
0.006693935
-5.738393e-07
0.006694018
-5.716962e-07
0.0066941
-5.69244e-07
0.006694181
-5.664702e-07
0.006694262
-5.633612e-07
0.006694343
-5.599017e-07
0.006694423
-5.560756e-07
0.006694503
-5.518651e-07
0.006694582
-5.472516e-07
0.00669466
-5.422151e-07
0.006694738
-5.367346e-07
0.006694815
-5.307878e-07
0.00669489
-5.243518e-07
0.006694965
-5.174027e-07
0.006695039
-5.099159e-07
0.006695112
-5.018663e-07
0.006695184
-4.932284e-07
0.006695254
-4.839767e-07
0.006695323
-4.740858e-07
0.006695391
-4.635308e-07
0.006695457
-4.522874e-07
0.006695521
-4.403327e-07
0.006695583
-4.276453e-07
0.006695644
-4.142058e-07
0.006695703
-3.999972e-07
0.006695759
-3.850057e-07
0.006695813
-3.692209e-07
0.006695865
-3.526367e-07
0.006695914
-3.352514e-07
0.006695961
-3.170685e-07
0.006696005
-2.980974e-07
0.006696046
-2.783535e-07
0.006696084
-2.578586e-07
0.00669612
-2.366415e-07
0.006696151
-2.147382e-07
0.00669618
-1.921915e-07
0.006696205
-1.690515e-07
0.006696227
-1.45375e-07
0.006696245
-1.212254e-07
0.006696259
-9.667144e-08
0.00669627
-7.178842e-08
0.006696277
-4.664963e-08
-2.136281e-08
0.006690277
-7.102625e-08
0.006690273
-1.150971e-07
0.006690276
-1.428531e-07
0.006690285
-1.691811e-07
0.0066903
-1.946651e-07
0.00669032
-2.186212e-07
0.006690344
-2.414295e-07
0.006690374
-2.635867e-07
0.006690407
-2.852742e-07
0.006690444
-3.065039e-07
0.006690484
-3.272573e-07
0.006690527
-3.475011e-07
0.006690574
-3.67187e-07
0.006690623
-3.862639e-07
0.006690674
-4.046861e-07
0.006690728
-4.224164e-07
0.006690785
-4.394262e-07
0.006690843
-4.556959e-07
0.006690903
-4.712143e-07
0.006690966
-4.859774e-07
0.00669103
-4.999881e-07
0.006691095
-5.132546e-07
0.006691162
-5.257895e-07
0.006691231
-5.376094e-07
0.006691301
-5.487335e-07
0.006691372
-5.591832e-07
0.006691445
-5.689815e-07
0.006691518
-5.781526e-07
0.006691593
-5.867211e-07
0.006691668
-5.947118e-07
0.006691744
-6.021494e-07
0.006691822
-6.090582e-07
0.0066919
-6.154621e-07
0.006691978
-6.213838e-07
0.006692058
-6.268453e-07
0.006692137
-6.318675e-07
0.006692218
-6.3647e-07
0.006692299
-6.406714e-07
0.00669238
-6.444887e-07
0.006692462
-6.479379e-07
0.006692544
-6.510332e-07
0.006692626
-6.537879e-07
0.006692709
-6.562135e-07
0.006692792
-6.583202e-07
0.006692875
-6.601169e-07
0.006692959
-6.616109e-07
0.006693042
-6.628082e-07
0.006693126
-6.637134e-07
0.006693209
-6.643295e-07
0.006693293
-6.646583e-07
0.006693377
-6.647e-07
0.00669346
-6.644534e-07
0.006693544
-6.639161e-07
0.006693627
-6.63084e-07
0.006693711
-6.619515e-07
0.006693794
-6.605119e-07
0.006693877
-6.587567e-07
0.00669396
-6.566761e-07
0.006694043
-6.542587e-07
0.006694125
-6.514918e-07
0.006694207
-6.483611e-07
0.006694288
-6.448507e-07
0.006694369
-6.409435e-07
0.00669445
-6.366207e-07
0.00669453
-6.318621e-07
0.006694609
-6.266461e-07
0.006694688
-6.209497e-07
0.006694766
-6.147486e-07
0.006694843
-6.080173e-07
0.006694919
-6.00729e-07
0.006694995
-5.928561e-07
0.006695069
-5.8437e-07
0.006695143
-5.752414e-07
0.006695215
-5.654405e-07
0.006695286
-5.549375e-07
0.006695355
-5.437024e-07
0.006695424
-5.317057e-07
0.00669549
-5.189188e-07
0.006695555
-5.053143e-07
0.006695618
-4.908663e-07
0.00669568
-4.755515e-07
0.006695739
-4.593491e-07
0.006695796
-4.422418e-07
0.006695851
-4.242163e-07
0.006695904
-4.052641e-07
0.006695954
-3.853819e-07
0.006696001
-3.645725e-07
0.006696046
-3.428453e-07
0.006696088
-3.202168e-07
0.006696127
-2.967113e-07
0.006696163
-2.723613e-07
0.006696195
-2.472074e-07
0.006696224
-2.21299e-07
0.00669625
-1.946938e-07
0.006696272
-1.674577e-07
0.00669629
-1.396645e-07
0.006696305
-1.113948e-07
0.006696316
-8.273702e-08
0.006696323
-5.37778e-08
-2.464582e-08
0.006690265
-6.782619e-08
0.006690267
-1.161432e-07
0.006690273
-1.487677e-07
0.006690285
-1.797719e-07
0.006690301
-2.101635e-07
0.006690322
-2.39011e-07
0.006690347
-2.664547e-07
0.006690376
-2.929303e-07
0.00669041
-3.186298e-07
0.006690447
-3.435853e-07
0.006690487
-3.678001e-07
0.006690531
-3.912644e-07
0.006690577
-4.139527e-07
0.006690627
-4.358335e-07
0.006690679
-4.568776e-07
0.006690734
-4.770618e-07
0.00669079
-4.963691e-07
0.00669085
-5.147901e-07
0.006690911
-5.323224e-07
0.006690973
-5.489702e-07
0.006691038
-5.647435e-07
0.006691104
-5.796571e-07
0.006691172
-5.937302e-07
0.006691242
-6.06985e-07
0.006691312
-6.194465e-07
0.006691384
-6.311416e-07
0.006691457
-6.420984e-07
0.006691531
-6.523458e-07
0.006691606
-6.619131e-07
0.006691683
-6.708296e-07
0.006691759
-6.791242e-07
0.006691837
-6.868251e-07
0.006691916
-6.939597e-07
0.006691995
-7.005543e-07
0.006692075
-7.066342e-07
0.006692155
-7.122232e-07
0.006692236
-7.173437e-07
0.006692317
-7.220168e-07
0.006692399
-7.262619e-07
0.006692481
-7.30097e-07
0.006692563
-7.335384e-07
0.006692646
-7.366009e-07
0.006692729
-7.392975e-07
0.006692812
-7.416399e-07
0.006692896
-7.436379e-07
0.00669298
-7.453e-07
0.006693063
-7.466328e-07
0.006693147
-7.476413e-07
0.006693231
-7.483293e-07
0.006693315
-7.486985e-07
0.006693399
-7.487492e-07
0.006693483
-7.484803e-07
0.006693567
-7.478888e-07
0.006693651
-7.469701e-07
0.006693735
-7.457183e-07
0.006693818
-7.441255e-07
0.006693902
-7.421823e-07
0.006693985
-7.398777e-07
0.006694068
-7.371989e-07
0.006694151
-7.341315e-07
0.006694233
-7.306595e-07
0.006694315
-7.267651e-07
0.006694396
-7.224287e-07
0.006694477
-7.176292e-07
0.006694558
-7.123438e-07
0.006694638
-7.06548e-07
0.006694717
-7.002157e-07
0.006694795
-6.933194e-07
0.006694873
-6.858298e-07
0.00669495
-6.777166e-07
0.006695026
-6.68948e-07
0.006695101
-6.594914e-07
0.006695175
-6.49313e-07
0.006695248
-6.383786e-07
0.00669532
-6.266535e-07
0.00669539
-6.14103e-07
0.006695459
-6.006927e-07
0.006695527
-5.86389e-07
0.006695593
-5.711596e-07
0.006695657
-5.54974e-07
0.006695719
-5.378038e-07
0.006695779
-5.196242e-07
0.006695837
-5.004136e-07
0.006695893
-4.801552e-07
0.006695947
-4.588375e-07
0.006695998
-4.364549e-07
0.006696046
-4.130089e-07
0.006696092
-3.885082e-07
0.006696135
-3.629703e-07
0.006696175
-3.364214e-07
0.006696211
-3.088972e-07
0.006696244
-2.804432e-07
0.006696274
-2.511152e-07
0.0066963
-2.209787e-07
0.006696323
-1.901092e-07
0.006696342
-1.585916e-07
0.006696357
-1.265188e-07
0.006696368
-9.399323e-08
0.006696376
-6.111521e-08
-2.803307e-08
0.006690247
-6.735038e-08
0.006690251
-1.200347e-07
0.006690261
-1.569485e-07
0.006690274
-1.921676e-07
0.006690291
-2.271393e-07
0.006690313
-2.606276e-07
0.00669034
-2.925459e-07
0.00669037
-3.23261e-07
0.006690404
-3.529441e-07
0.006690442
-3.816231e-07
0.006690484
-4.093091e-07
0.006690528
-4.360076e-07
0.006690576
-4.617102e-07
0.006690627
-4.864021e-07
0.00669068
-5.100695e-07
0.006690735
-5.327026e-07
0.006690793
-5.542968e-07
0.006690853
-5.748532e-07
0.006690915
-5.943791e-07
0.006690979
-6.128873e-07
0.006691044
-6.303957e-07
0.006691112
-6.469267e-07
0.00669118
-6.625062e-07
0.006691251
-6.77163e-07
0.006691322
-6.909283e-07
0.006691395
-7.038346e-07
0.006691468
-7.159157e-07
0.006691543
-7.272057e-07
0.006691619
-7.377388e-07
0.006691696
-7.475488e-07
0.006691773
-7.566691e-07
0.006691851
-7.651319e-07
0.00669193
-7.729686e-07
0.00669201
-7.802089e-07
0.00669209
-7.868814e-07
0.006692171
-7.93013e-07
0.006692252
-7.986289e-07
0.006692334
-8.037528e-07
0.006692416
-8.084064e-07
0.006692498
-8.126098e-07
0.006692581
-8.163813e-07
0.006692664
-8.197373e-07
0.006692748
-8.226925e-07
0.006692831
-8.252597e-07
0.006692915
-8.2745e-07
0.006692999
-8.292726e-07
0.006693083
-8.307351e-07
0.006693167
-8.318429e-07
0.006693251
-8.326002e-07
0.006693336
-8.33009e-07
0.00669342
-8.330697e-07
0.006693504
-8.327809e-07
0.006693588
-8.321393e-07
0.006693673
-8.311401e-07
0.006693757
-8.297764e-07
0.006693841
-8.280397e-07
0.006693924
-8.259195e-07
0.006694008
-8.234035e-07
0.006694091
-8.204777e-07
0.006694174
-8.171261e-07
0.006694257
-8.133306e-07
0.006694339
-8.090717e-07
0.006694421
-8.043274e-07
0.006694502
-7.990743e-07
0.006694583
-7.932869e-07
0.006694664
-7.869376e-07
0.006694743
-7.799974e-07
0.006694822
-7.724351e-07
0.006694901
-7.642181e-07
0.006694978
-7.553119e-07
0.006695055
-7.456809e-07
0.006695131
-7.352877e-07
0.006695206
-7.240943e-07
0.006695279
-7.120613e-07
0.006695352
-6.991492e-07
0.006695423
-6.853181e-07
0.006695493
-6.705281e-07
0.006695561
-6.547404e-07
0.006695628
-6.379171e-07
0.006695693
-6.200222e-07
0.006695756
-6.010222e-07
0.006695817
-5.808869e-07
0.006695877
-5.595902e-07
0.006695934
-5.371109e-07
0.006695988
-5.134336e-07
0.00669604
-4.885497e-07
0.00669609
-4.624585e-07
0.006696136
-4.351677e-07
0.00669618
-4.066947e-07
0.006696221
-3.770673e-07
0.006696258
-3.463241e-07
0.006696292
-3.145154e-07
0.006696323
-2.817031e-07
0.00669635
-2.479611e-07
0.006696373
-2.133749e-07
0.006696392
-1.780413e-07
0.006696408
-1.420667e-07
0.00669642
-1.055692e-07
0.006696427
-6.866462e-08
-3.152593e-08
0.006690228
-6.956531e-08
0.006690235
-1.265941e-07
0.006690247
-1.673789e-07
0.006690262
-2.065698e-07
0.006690281
-2.458536e-07
0.006690305
-2.837056e-07
0.006690332
-3.198694e-07
0.006690364
-3.546611e-07
0.006690399
-3.882228e-07
0.006690438
-4.205653e-07
0.00669048
-4.516958e-07
0.006690526
-4.816239e-07
0.006690574
-5.103491e-07
0.006690626
-5.378664e-07
0.00669068
-5.641723e-07
0.006690736
-5.892675e-07
0.006690795
-6.131573e-07
0.006690856
-6.358528e-07
0.006690919
-6.573704e-07
0.006690983
-6.777318e-07
0.00669105
-6.969634e-07
0.006691118
-7.150954e-07
0.006691188
-7.321613e-07
0.006691259
-7.481971e-07
0.006691331
-7.632408e-07
0.006691404
-7.773315e-07
0.006691479
-7.905087e-07
0.006691554
-8.028125e-07
0.006691631
-8.142823e-07
0.006691708
-8.249571e-07
0.006691786
-8.348748e-07
0.006691865
-8.44072e-07
0.006691945
-8.525841e-07
0.006692025
-8.604446e-07
0.006692106
-8.676855e-07
0.006692187
-8.743369e-07
0.006692269
-8.804269e-07
0.006692351
-8.859818e-07
0.006692434
-8.910258e-07
0.006692517
-8.95581e-07
0.0066926
-8.996678e-07
0.006692683
-9.033041e-07
0.006692767
-9.065063e-07
0.006692851
-9.092885e-07
0.006692935
-9.116628e-07
0.00669302
-9.136395e-07
0.006693104
-9.152267e-07
0.006693189
-9.164307e-07
0.006693273
-9.172558e-07
0.006693358
-9.177044e-07
0.006693443
-9.177768e-07
0.006693527
-9.174717e-07
0.006693612
-9.167854e-07
0.006693696
-9.157125e-07
0.006693781
-9.142457e-07
0.006693865
-9.123755e-07
0.006693949
-9.100906e-07
0.006694033
-9.073773e-07
0.006694117
-9.042204e-07
0.0066942
-9.006021e-07
0.006694284
-8.965028e-07
0.006694366
-8.919007e-07
0.006694449
-8.867718e-07
0.006694531
-8.810902e-07
0.006694612
-8.748276e-07
0.006694693
-8.679536e-07
0.006694774
-8.604358e-07
0.006694854
-8.522397e-07
0.006694933
-8.433289e-07
0.006695011
-8.33665e-07
0.006695089
-8.232078e-07
0.006695165
-8.119156e-07
0.006695241
-7.997453e-07
0.006695315
-7.866526e-07
0.006695389
-7.725924e-07
0.006695461
-7.575194e-07
0.006695532
-7.413878e-07
0.006695601
-7.241528e-07
0.006695669
-7.057704e-07
0.006695735
-6.861986e-07
0.0066958
-6.653978e-07
0.006695862
-6.433319e-07
0.006695922
-6.199691e-07
0.006695981
-5.95283e-07
0.006696036
-5.692534e-07
0.00669609
-5.418679e-07
0.00669614
-5.131226e-07
0.006696188
-4.830233e-07
0.006696233
-4.515866e-07
0.006696275
-4.188411e-07
0.006696313
-3.84828e-07
0.006696348
-3.496019e-07
0.00669638
-3.132311e-07
0.006696408
-2.757978e-07
0.006696432
-2.373981e-07
0.006696452
-1.981415e-07
0.006696468
-1.581488e-07
0.00669648
-1.175547e-07
0.006696488
-7.649192e-08
-3.515723e-08
0.006690206
-7.304798e-08
0.006690215
-1.347613e-07
0.006690228
-1.794063e-07
0.006690245
-2.225028e-07
0.006690266
-2.660039e-07
0.00669029
-3.081263e-07
0.006690319
-3.484676e-07
0.006690352
-3.872982e-07
0.006690388
-4.247262e-07
0.006690428
-4.607363e-07
0.006690472
-4.953239e-07
0.006690519
-5.284963e-07
0.006690569
-5.602566e-07
0.006690621
-5.906063e-07
0.006690677
-6.19551e-07
0.006690734
-6.471009e-07
0.006690794
-6.732717e-07
0.006690857
-6.980848e-07
0.006690921
-7.215665e-07
0.006690987
-7.437485e-07
0.006691054
-7.646663e-07
0.006691123
-7.84359e-07
0.006691194
-8.028688e-07
0.006691266
-8.202394e-07
0.006691339
-8.365164e-07
0.006691414
-8.517457e-07
0.006691489
-8.659738e-07
0.006691565
-8.792467e-07
0.006691643
-8.916095e-07
0.006691721
-9.031065e-07
0.0066918
-9.137807e-07
0.006691879
-9.236731e-07
0.006691959
-9.328232e-07
0.00669204