/*--------------------------------*- C++ -*----------------------------------*\
| =========                 |                                                 |
| \\      /  F ield         | OpenFOAM: The Open Source CFD Toolbox           |
|  \\    /   O peration     | Version:  2.3.0                                 |
|   \\  /    A nd           | Web:      www.OpenFOAM.org                      |
|    \\/     M anipulation  |                                                 |
\*---------------------------------------------------------------------------*/
FoamFile
{
    version     2.0;
    format      ascii;
    class       surfaceScalarField;
    location    "9900/bottomAir";
    object      phi;
}
// * * * * * * * * * * * * * * * * * * * * * * * * * * * * * * * * * * * * * //

dimensions      [1 0 -1 0 0 0 0];

internalField   nonuniform List<scalar> 
7860
(
0.005660036
-1.203461e-06
0.005660381
-3.449236e-07
0.005660464
-8.256783e-08
0.005660569
-1.041706e-07
0.005660643
-7.312181e-08
0.005660687
-4.355118e-08
0.005660721
-3.385949e-08
0.00566075
-2.977818e-08
0.005660777
-2.702918e-08
0.005660803
-2.577776e-08
0.005660829
-2.556739e-08
0.005660855
-2.58793e-08
0.005660881
-2.64885e-08
0.005660908
-2.728365e-08
0.005660936
-2.818708e-08
0.005660965
-2.914604e-08
0.005660995
-3.01278e-08
0.005661026
-3.111058e-08
0.005661059
-3.207966e-08
0.005661091
-3.302506e-08
0.005661125
-3.393992e-08
0.00566116
-3.481987e-08
0.005661196
-3.566188e-08
0.005661232
-3.646439e-08
0.005661269
-3.722638e-08
0.005661307
-3.794779e-08
0.005661346
-3.862871e-08
0.005661385
-3.926988e-08
0.005661425
-3.987201e-08
0.005661465
-4.043623e-08
0.005661506
-4.09636e-08
0.005661548
-4.145541e-08
0.005661589
-4.191287e-08
0.005661632
-4.233729e-08
0.005661674
-4.27299e-08
0.005661717
-4.309197e-08
0.005661761
-4.342467e-08
0.005661805
-4.372913e-08
0.005661849
-4.400645e-08
0.005661893
-4.42576e-08
0.005661937
-4.448353e-08
0.005661982
-4.468504e-08
0.005662027
-4.486293e-08
0.005662072
-4.501781e-08
0.005662117
-4.515031e-08
0.005662162
-4.526085e-08
0.005662207
-4.534987e-08
0.005662253
-4.54176e-08
0.005662298
-4.546431e-08
0.005662344
-4.549e-08
0.005662389
-4.549476e-08
0.005662435
-4.54784e-08
0.00566248
-4.544081e-08
0.005662525
-4.538161e-08
0.005662571
-4.530048e-08
0.005662616
-4.519683e-08
0.005662661
-4.507016e-08
0.005662706
-4.491966e-08
0.005662751
-4.474465e-08
0.005662795
-4.454412e-08
0.005662839
-4.431716e-08
0.005662883
-4.406257e-08
0.005662927
-4.377927e-08
0.005662971
-4.346584e-08
0.005663014
-4.312102e-08
0.005663057
-4.274322e-08
0.005663099
-4.233098e-08
0.005663141
-4.188257e-08
0.005663182
-4.139638e-08
0.005663223
-4.087054e-08
0.005663263
-4.030332e-08
0.005663303
-3.969278e-08
0.005663342
-3.903711e-08
0.00566338
-3.833434e-08
0.005663418
-3.758267e-08
0.005663455
-3.678017e-08
0.005663491
-3.592514e-08
0.005663526
-3.501577e-08
0.00566356
-3.405058e-08
0.005663593
-3.302802e-08
0.005663625
-3.194691e-08
0.005663655
-3.080609e-08
0.005663685
-2.960487e-08
0.005663713
-2.834262e-08
0.00566374
-2.701925e-08
0.005663766
-2.563483e-08
0.00566379
-2.419002e-08
0.005663813
-2.268572e-08
0.005663834
-2.112351e-08
0.005663853
-1.950524e-08
0.005663871
-1.783351e-08
0.005663887
-1.611128e-08
0.005663902
-1.434239e-08
0.005663914
-1.253127e-08
0.005663925
-1.068367e-08
0.005663934
-8.807254e-09
0.005663941
-6.913176e-09
0.005663946
-5.023226e-09
0.005663949
-3.167523e-09
-1.479642e-09
0.005659063
-6.501144e-07
0.005659063
-3.446857e-07
0.00565912
-1.38782e-07
0.00565913
-1.135932e-07
0.005659149
-9.157365e-08
0.005659174
-6.789026e-08
0.005659197
-5.711397e-08
0.00565922
-5.281992e-08
0.005659244
-5.07023e-08
0.005659268
-5.014474e-08
0.005659293
-5.071871e-08
0.005659319
-5.194863e-08
0.005659346
-5.355996e-08
0.005659374
-5.540282e-08
0.005659404
-5.737503e-08
0.005659434
-5.940619e-08
0.005659465
-6.144897e-08
0.005659497
-6.347118e-08
0.005659531
-6.54506e-08
0.005659565
-6.737176e-08
0.0056596
-6.922429e-08
0.005659636
-7.100118e-08
0.005659673
-7.269821e-08
0.005659711
-7.431288e-08
0.00565975
-7.584431e-08
0.005659789
-7.729253e-08
0.005659829
-7.865851e-08
0.005659869
-7.994367e-08
0.005659911
-8.115002e-08
0.005659952
-8.227973e-08
0.005659995
-8.333528e-08
0.005660038
-8.431919e-08
0.005660081
-8.52341e-08
0.005660125
-8.608262e-08
0.005660169
-8.686736e-08
0.005660213
-8.759083e-08
0.005660258
-8.825543e-08
0.005660303
-8.886351e-08
0.005660348
-8.94172e-08
0.005660394
-8.991856e-08
0.00566044
-9.036941e-08
0.005660486
-9.077149e-08
0.005660532
-9.112626e-08
0.005660579
-9.143513e-08
0.005660625
-9.169917e-08
0.005660672
-9.191943e-08
0.005660718
-9.20966e-08
0.005660765
-9.223135e-08
0.005660812
-9.232398e-08
0.005660859
-9.237478e-08
0.005660906
-9.238365e-08
0.005660953
-9.235049e-08
0.005661
-9.227481e-08
0.005661046
-9.21561e-08
0.005661093
-9.199349e-08
0.00566114
-9.178605e-08
0.005661186
-9.153251e-08
0.005661232
-9.123156e-08
0.005661278
-9.08815e-08
0.005661324
-9.048062e-08
0.00566137
-9.002683e-08
0.005661415
-8.951801e-08
0.005661461
-8.895169e-08
0.005661505
-8.832535e-08
0.00566155
-8.763614e-08
0.005661594
-8.688119e-08
0.005661638
-8.605728e-08
0.005661681
-8.516123e-08
0.005661724
-8.418951e-08
0.005661766
-8.313867e-08
0.005661808
-8.200496e-08
0.005661849
-8.078473e-08
0.005661889
-7.947411e-08
0.005661929
-7.806938e-08
0.005661968
-7.656668e-08
0.005662006
-7.496236e-08
0.005662044
-7.325274e-08
0.00566208
-7.143446e-08
0.005662115
-6.950421e-08
0.00566215
-6.745916e-08
0.005662183
-6.529664e-08
0.005662215
-6.301458e-08
0.005662246
-6.061125e-08
0.005662276
-5.808566e-08
0.005662304
-5.54373e-08
0.005662332
-5.266656e-08
0.005662357
-4.977445e-08
0.005662381
-4.676302e-08
0.005662404
-4.363509e-08
0.005662425
-4.039461e-08
0.005662444
-3.704643e-08
0.005662461
-3.359663e-08
0.005662477
-3.005227e-08
0.005662491
-2.642176e-08
0.005662503
-2.271469e-08
0.005662513
-1.894221e-08
0.005662521
-1.511701e-08
0.005662527
-1.125398e-08
0.005662532
-7.36929e-09
-3.480205e-09
0.005659334
-3.579574e-07
0.005659229
-2.3882e-07
0.005659226
-1.348308e-07
0.005659228
-1.155623e-07
0.00565924
-1.028799e-07
0.005659261
-8.795659e-08
0.005659283
-7.953101e-08
0.005659306
-7.594337e-08
0.00565933
-7.459141e-08
0.005659355
-7.476653e-08
0.00565938
-7.608821e-08
0.005659406
-7.815449e-08
0.005659433
-8.068463e-08
0.005659461
-8.35008e-08
0.00565949
-8.647882e-08
0.00565952
-8.952938e-08
0.005659552
-9.258964e-08
0.005659584
-9.561533e-08
0.005659617
-9.857512e-08
0.005659651
-1.014471e-07
0.005659686
-1.04216e-07
0.005659721
-1.068717e-07
0.005659758
-1.09408e-07
0.005659796
-1.118213e-07
0.005659834
-1.1411e-07
0.005659873
-1.162744e-07
0.005659912
-1.183158e-07
0.005659953
-1.202365e-07
0.005659993
-1.220392e-07
0.005660035
-1.237275e-07
0.005660077
-1.253048e-07
0.005660119
-1.267751e-07
0.005660162
-1.281422e-07
0.005660205
-1.294101e-07
0.005660249
-1.305827e-07
0.005660293
-1.316637e-07
0.005660337
-1.326567e-07
0.005660382
-1.335653e-07
0.005660427
-1.343927e-07
0.005660472
-1.351418e-07
0.005660518
-1.358156e-07
0.005660563
-1.364164e-07
0.005660609
-1.369467e-07
0.005660655
-1.374083e-07
0.005660701
-1.378031e-07
0.005660747
-1.381324e-07
0.005660793
-1.383975e-07
0.00566084
-1.385991e-07
0.005660886
-1.387379e-07
0.005660933
-1.388141e-07
0.005660979
-1.388278e-07
0.005661025
-1.387787e-07
0.005661072
-1.386661e-07
0.005661118
-1.384891e-07
0.005661164
-1.382467e-07
0.005661211
-1.379372e-07
0.005661257
-1.375588e-07
0.005661302
-1.371096e-07
0.005661348
-1.36587e-07
0.005661394
-1.359884e-07
0.005661439
-1.353107e-07
0.005661484
-1.345507e-07
0.005661529
-1.337047e-07
0.005661573
-1.327688e-07
0.005661617
-1.317389e-07
0.005661661
-1.306106e-07
0.005661704
-1.293791e-07
0.005661747
-1.280394e-07
0.005661789
-1.265865e-07
0.005661831
-1.250149e-07
0.005661873
-1.233193e-07
0.005661913
-1.214938e-07
0.005661953
-1.195328e-07
0.005661993
-1.174305e-07
0.005662031
-1.151813e-07
0.005662069
-1.127794e-07
0.005662106
-1.102193e-07
0.005662142
-1.07496e-07
0.005662177
-1.046044e-07
0.005662211
-1.0154e-07
0.005662244
-9.829899e-08
0.005662276
-9.487795e-08
0.005662307
-9.127435e-08
0.005662336
-8.748646e-08
0.005662364
-8.351357e-08
0.005662391
-7.935602e-08
0.005662416
-7.501541e-08
0.00566244
-7.049458e-08
0.005662462
-6.579782e-08
0.005662483
-6.093087e-08
0.005662501
-5.590105e-08
0.005662519
-5.071728e-08
0.005662534
-4.539013e-08
0.005662547
-3.993188e-08
0.005662559
-3.435654e-08
0.005662569
-2.867985e-08
0.005662577
-2.291907e-08
0.005662582
-1.709256e-08
0.005662586
-1.121717e-08
-5.302625e-09
0.005659425
-2.00596e-07
0.005659363
-1.755641e-07
0.00565936
-1.316688e-07
0.005659364
-1.189967e-07
0.005659373
-1.107981e-07
0.005659387
-1.01917e-07
0.005659404
-9.667263e-08
0.005659423
-9.491481e-08
0.005659444
-9.519514e-08
0.005659466
-9.685932e-08
0.005659489
-9.954476e-08
0.005659514
-1.02917e-07
0.00565954
-1.067197e-07
0.005659567
-1.107768e-07
0.005659596
-1.149627e-07
0.005659625
-1.191858e-07
0.005659656
-1.233802e-07
0.005659688
-1.274986e-07
0.005659721
-1.315074e-07
0.005659754
-1.353829e-07
0.005659789
-1.391092e-07
0.005659825
-1.426754e-07
0.005659862
-1.460754e-07
0.005659899
-1.493059e-07
0.005659937
-1.523663e-07
0.005659976
-1.552576e-07
0.005660016
-1.579825e-07
0.005660056
-1.605444e-07
0.005660097
-1.629476e-07
0.005660138
-1.65197e-07
0.00566018
-1.672977e-07
0.005660223
-1.69255e-07
0.005660266
-1.710744e-07
0.005660309
-1.727613e-07
0.005660353
-1.743209e-07
0.005660397
-1.757584e-07
0.005660441
-1.770787e-07
0.005660486
-1.782865e-07
0.005660531
-1.793862e-07
0.005660576
-1.803818e-07
0.005660621
-1.812772e-07
0.005660667
-1.820756e-07
0.005660713
-1.827803e-07
0.005660759
-1.833938e-07
0.005660805
-1.839185e-07
0.005660851
-1.843564e-07
0.005660897
-1.847089e-07
0.005660944
-1.849772e-07
0.00566099
-1.851622e-07
0.005661037
-1.852643e-07
0.005661083
-1.852833e-07
0.005661129
-1.85219e-07
0.005661176
-1.850705e-07
0.005661222
-1.848367e-07
0.005661268
-1.84516e-07
0.005661315
-1.841063e-07
0.005661361
-1.836053e-07
0.005661406
-1.830102e-07
0.005661452
-1.823178e-07
0.005661498
-1.815245e-07
0.005661543
-1.806262e-07
0.005661588
-1.796185e-07
0.005661633
-1.784967e-07
0.005661677
-1.772555e-07
0.005661721
-1.758893e-07
0.005661765
-1.743923e-07
0.005661809
-1.72758e-07
0.005661852
-1.7098e-07
0.005661894
-1.690511e-07
0.005661936
-1.669644e-07
0.005661977
-1.647123e-07
0.005662018
-1.622872e-07
0.005662058
-1.596816e-07
0.005662098
-1.568875e-07
0.005662136
-1.538973e-07
0.005662174
-1.507033e-07
0.005662211
-1.472981e-07
0.005662248
-1.436746e-07
0.005662283
-1.39826e-07
0.005662317
-1.357464e-07
0.00566235
-1.314301e-07
0.005662382
-1.268727e-07
0.005662413
-1.220705e-07
0.005662442
-1.170212e-07
0.005662471
-1.117234e-07
0.005662497
-1.061776e-07
0.005662523
-1.003856e-07
0.005662547
-9.435126e-08
0.005662569
-8.807999e-08
0.00566259
-8.157941e-08
0.005662608
-7.485912e-08
0.005662626
-6.79309e-08
0.005662641
-6.080865e-08
0.005662655
-5.350846e-08
0.005662666
-4.60485e-08
0.005662676
-3.844891e-08
0.005662684
-3.073144e-08
0.00566269
-2.29195e-08
0.005662694
-1.503549e-08
-7.10995e-09
0.005659495
-1.30597e-07
0.005659453
-1.332741e-07
0.005659439
-1.169104e-07
0.005659435
-1.136463e-07
0.005659437
-1.123351e-07
0.005659446
-1.104262e-07
0.005659459
-1.100733e-07
0.005659476
-1.116226e-07
0.005659495
-1.14475e-07
0.005659516
-1.182487e-07
0.00565954
-1.227145e-07
0.005659564
-1.276578e-07
0.00565959
-1.328965e-07
0.005659618
-1.38293e-07
0.005659647
-1.437436e-07
0.005659676
-1.491693e-07
0.005659708
-1.545107e-07
0.00565974
-1.59724e-07
0.005659773
-1.647773e-07
0.005659807
-1.696479e-07
0.005659842
-1.743203e-07
0.005659878
-1.787846e-07
0.005659915
-1.83035e-07
0.005659953
-1.870694e-07
0.005659991
-1.90888e-07
0.005660031
-1.944931e-07
0.00566007
-1.978886e-07
0.005660111
-2.010794e-07
0.005660152
-2.040713e-07
0.005660194
-2.068706e-07
0.005660236
-2.094839e-07
0.005660278
-2.119182e-07
0.005660321
-2.141804e-07
0.005660365
-2.162773e-07
0.005660409
-2.182156e-07
0.005660453
-2.200018e-07
0.005660498
-2.216422e-07
0.005660542
-2.231427e-07
0.005660587
-2.245086e-07
0.005660633
-2.257453e-07
0.005660678
-2.268573e-07
0.005660724
-2.27849e-07
0.00566077
-2.287242e-07
0.005660816
-2.294863e-07
0.005660862
-2.301381e-07
0.005660909
-2.306821e-07
0.005660955
-2.311202e-07
0.005661001
-2.314539e-07
0.005661048
-2.316841e-07
0.005661094
-2.318114e-07
0.005661141
-2.318358e-07
0.005661187
-2.317567e-07
0.005661234
-2.315732e-07
0.00566128
-2.312838e-07
0.005661327
-2.308866e-07
0.005661373
-2.303789e-07
0.005661419
-2.297579e-07
0.005661465
-2.290199e-07
0.005661511
-2.281612e-07
0.005661557
-2.27177e-07
0.005661602
-2.260623e-07
0.005661647
-2.248118e-07
0.005661692
-2.234192e-07
0.005661737
-2.218781e-07
0.005661781
-2.201815e-07
0.005661825
-2.18322e-07
0.005661868
-2.162915e-07
0.005661912
-2.140818e-07
0.005661954
-2.116842e-07
0.005661996
-2.090895e-07
0.005662038
-2.062885e-07
0.005662079
-2.032715e-07
0.005662119
-2.000288e-07
0.005662159
-1.965506e-07
0.005662198
-1.928269e-07
0.005662236
-1.888481e-07
0.005662273
-1.846047e-07
0.00566231
-1.800876e-07
0.005662345
-1.752881e-07
0.005662379
-1.701985e-07
0.005662413
-1.648115e-07
0.005662445
-1.591212e-07
0.005662476
-1.531227e-07
0.005662506
-1.468128e-07
0.005662534
-1.401898e-07
0.005662561
-1.332536e-07
0.005662587
-1.260066e-07
0.005662611
-1.18453e-07
0.005662634
-1.105996e-07
0.005662655
-1.024557e-07
0.005662674
-9.403319e-08
0.005662691
-8.534662e-08
0.005662707
-7.641334e-08
0.00566272
-6.725334e-08
0.005662732
-5.788923e-08
0.005662742
-4.834602e-08
0.00566275
-3.865067e-08
0.005662756
-2.883223e-08
0.00566276
-1.891855e-08
-8.949505e-09
0.005659501
-8.666124e-08
0.005659474
-1.050889e-07
0.005659464
-1.067053e-07
0.005659463
-1.117037e-07
0.005659467
-1.16293e-07
0.005659477
-1.197455e-07
0.00565949
-1.234843e-07
0.005659507
-1.280567e-07
0.005659526
-1.333482e-07
0.005659547
-1.391977e-07
0.005659569
-1.454782e-07
0.005659594
-1.520557e-07
0.005659619
-1.588014e-07
0.005659647
-1.656072e-07
0.005659675
-1.723867e-07
0.005659705
-1.790712e-07
0.005659736
-1.856077e-07
0.005659768
-1.919559e-07
0.005659802
-1.980864e-07
0.005659836
-2.039783e-07
0.005659871
-2.096177e-07
0.005659907
-2.149959e-07
0.005659944
-2.201088e-07
0.005659982
-2.249556e-07
0.005660021
-2.295383e-07
0.00566006
-2.338608e-07
0.0056601
-2.379286e-07
0.005660141
-2.417485e-07
0.005660182
-2.453281e-07
0.005660224
-2.486753e-07
0.005660266
-2.517987e-07
0.005660309
-2.547068e-07
0.005660352
-2.574082e-07
0.005660395
-2.599114e-07
0.005660439
-2.622245e-07
0.005660484
-2.643557e-07
0.005660528
-2.663124e-07
0.005660573
-2.681018e-07
0.005660618
-2.697305e-07
0.005660664
-2.71205e-07
0.00566071
-2.725307e-07
0.005660755
-2.737129e-07
0.005660801
-2.747563e-07
0.005660848
-2.756648e-07
0.005660894
-2.764421e-07
0.00566094
-2.770909e-07
0.005660987
-2.776138e-07
0.005661033
-2.780123e-07
0.00566108
-2.782878e-07
0.005661126
-2.784408e-07
0.005661173
-2.784713e-07
0.00566122
-2.783788e-07
0.005661266
-2.78162e-07
0.005661313
-2.778192e-07
0.005661359
-2.773481e-07
0.005661405
-2.767456e-07
0.005661452
-2.760082e-07
0.005661498
-2.751316e-07
0.005661544
-2.741111e-07
0.005661589
-2.729412e-07
0.005661635
-2.716159e-07
0.00566168
-2.701285e-07
0.005661725
-2.684718e-07
0.00566177
-2.66638e-07
0.005661815
-2.646186e-07
0.005661859
-2.624045e-07
0.005661902
-2.599862e-07
0.005661946
-2.573537e-07
0.005661988
-2.544965e-07
0.005662031
-2.514034e-07
0.005662072
-2.480631e-07
0.005662114
-2.444641e-07
0.005662154
-2.405943e-07
0.005662194
-2.364418e-07
0.005662233
-2.319945e-07
0.005662272
-2.272406e-07
0.005662309
-2.221682e-07
0.005662346
-2.167662e-07
0.005662382
-2.110239e-07
0.005662416
-2.049314e-07
0.00566245
-1.984798e-07
0.005662482
-1.916615e-07
0.005662514
-1.844704e-07
0.005662544
-1.769019e-07
0.005662573
-1.689536e-07
0.0056626
-1.606252e-07
0.005662626
-1.519189e-07
0.00566265
-1.428396e-07
0.005662673
-1.333951e-07
0.005662694
-1.235962e-07
0.005662714
-1.134572e-07
0.005662731
-1.029953e-07
0.005662747
-9.223133e-08
0.005662761
-8.118928e-08
0.005662773
-6.989634e-08
0.005662783
-5.838269e-08
0.005662791
-4.668095e-08
0.005662797
-3.482668e-08
0.005662801
-2.285431e-08
-1.081526e-08
0.00565951
-6.647708e-08
0.005659496
-9.013536e-08
0.00565949
-9.992268e-08
0.005659489
-1.102758e-07
0.005659493
-1.19511e-07
0.005659501
-1.274739e-07
0.005659513
-1.351118e-07
0.005659527
-1.429174e-07
0.005659545
-1.509627e-07
0.005659565
-1.592071e-07
0.005659587
-1.675946e-07
0.005659611
-1.760532e-07
0.005659637
-1.845033e-07
0.005659664
-1.928718e-07
0.005659693
-2.010964e-07
0.005659723
-2.091259e-07
0.005659754
-2.169197e-07
0.005659786
-2.244467e-07
0.00565982
-2.316841e-07
0.005659854
-2.386162e-07
0.00565989
-2.45233e-07
0.005659926
-2.515295e-07
0.005659964
-2.575045e-07
0.005660002
-2.6316e-07
0.005660041
-2.685003e-07
0.00566008
-2.73532e-07
0.005660121
-2.782628e-07
0.005660162
-2.827015e-07
0.005660203
-2.86858e-07
0.005660245
-2.907422e-07
0.005660288
-2.943647e-07
0.005660331
-2.977358e-07
0.005660374
-3.00866e-07
0.005660418
-3.037654e-07
0.005660462
-3.064438e-07
0.005660507
-3.089107e-07
0.005660551
-3.111751e-07
0.005660596
-3.132455e-07
0.005660642
-3.151297e-07
0.005660687
-3.168352e-07
0.005660733
-3.183686e-07
0.005660779
-3.197359e-07
0.005660825
-3.209427e-07
0.005660872
-3.219936e-07
0.005660918
-3.228928e-07
0.005660965
-3.236437e-07
0.005661011
-3.242491e-07
0.005661058
-3.247109e-07
0.005661105
-3.250307e-07
0.005661151
-3.252091e-07
0.005661198
-3.252461e-07
0.005661245
-3.251411e-07
0.005661292
-3.248926e-07
0.005661338
-3.244987e-07
0.005661385
-3.239566e-07
0.005661431
-3.232627e-07
0.005661478
-3.224129e-07
0.005661524
-3.214024e-07
0.00566157
-3.202255e-07
0.005661616
-3.188758e-07
0.005661662
-3.173464e-07
0.005661707
-3.156294e-07
0.005661753
-3.137163e-07
0.005661797
-3.115981e-07
0.005661842
-3.092646e-07
0.005661886
-3.067055e-07
0.00566193
-3.039094e-07
0.005661974
-3.008646e-07
0.005662017
-2.975584e-07
0.005662059
-2.939781e-07
0.005662101
-2.901102e-07
0.005662143
-2.859407e-07
0.005662184
-2.814557e-07
0.005662224
-2.766408e-07
0.005662263
-2.714816e-07
0.005662302
-2.659639e-07
0.00566234
-2.600736e-07
0.005662377
-2.537971e-07
0.005662413
-2.471215e-07
0.005662448
-2.400348e-07
0.005662482
-2.32526e-07
0.005662515
-2.245856e-07
0.005662547
-2.162059e-07
0.005662577
-2.07381e-07
0.005662607
-1.981074e-07
0.005662634
-1.883843e-07
0.005662661
-1.782135e-07
0.005662685
-1.676005e-07
0.005662709
-1.565538e-07
0.00566273
-1.450857e-07
0.00566275
-1.332126e-07
0.005662768
-1.209546e-07
0.005662784
-1.083358e-07
0.005662798
-9.538457e-08
0.00566281
-8.213278e-08
0.00566282
-6.861608e-08
0.005662829
-5.487314e-08
0.005662835
-4.094614e-08
0.005662839
-2.687613e-08
-1.27239e-08
0.005659503
-5.358366e-08
0.005659495
-8.095751e-08
0.005659492
-9.632197e-08
0.005659493
-1.10914e-07
0.005659498
-1.242769e-07
0.005659507
-1.362446e-07
0.00565952
-1.474374e-07
0.005659535
-1.583005e-07
0.005659553
-1.689999e-07
0.005659574
-1.795782e-07
0.005659596
-1.900398e-07
0.00565962
-2.003639e-07
0.005659646
-2.105125e-07
0.005659674
-2.204424e-07
0.005659703
-2.301131e-07
0.005659733
-2.394892e-07
0.005659765
-2.485416e-07
0.005659797
-2.572475e-07
0.005659831
-2.655906e-07
0.005659866
-2.735602e-07
0.005659902
-2.811505e-07
0.005659939
-2.8836e-07
0.005659976
-2.951907e-07
0.005660015
-3.016473e-07
0.005660054
-3.077371e-07
0.005660094
-3.13469e-07
0.005660134
-3.188532e-07
0.005660175
-3.239011e-07
0.005660217
-3.286245e-07
0.005660259
-3.330357e-07
0.005660302
-3.371473e-07
0.005660345
-3.409716e-07
0.005660389
-3.44521e-07
0.005660433
-3.478073e-07
0.005660477
-3.508421e-07
0.005660522
-3.536363e-07
0.005660567
-3.562005e-07
0.005660612
-3.585444e-07
0.005660658
-3.606773e-07
0.005660704
-3.626074e-07
0.005660749
-3.643427e-07
0.005660796
-3.6589e-07
0.005660842
-3.672557e-07
0.005660888
-3.684451e-07
0.005660935
-3.69463e-07
0.005660981
-3.703134e-07
0.005661028
-3.709993e-07
0.005661075
-3.715232e-07
0.005661122
-3.718867e-07
0.005661169
-3.720905e-07
0.005661216
-3.721348e-07
0.005661262
-3.720187e-07
0.005661309
-3.717406e-07
0.005661356
-3.712984e-07
0.005661403
-3.706887e-07
0.005661449
-3.699077e-07
0.005661496
-3.689506e-07
0.005661542
-3.678117e-07
0.005661589
-3.664848e-07
0.005661635
-3.649625e-07
0.005661681
-3.632368e-07
0.005661726
-3.612987e-07
0.005661772
-3.591386e-07
0.005661817
-3.567459e-07
0.005661862
-3.541092e-07
0.005661906
-3.512163e-07
0.00566195
-3.480544e-07
0.005661994
-3.446097e-07
0.005662037
-3.408679e-07
0.00566208
-3.368139e-07
0.005662122
-3.324322e-07
0.005662164
-3.277067e-07
0.005662205
-3.226209e-07
0.005662246
-3.171581e-07
0.005662286
-3.113015e-07
0.005662325
-3.050342e-07
0.005662363
-2.983397e-07
0.0056624
-2.912019e-07
0.005662437
-2.836053e-07
0.005662472
-2.755354e-07
0.005662507
-2.669791e-07
0.00566254
-2.579246e-07
0.005662572
-2.483623e-07
0.005662603
-2.382847e-07
0.005662633
-2.27687e-07
0.005662661
-2.165674e-07
0.005662688
-2.049273e-07
0.005662713
-1.927721e-07
0.005662736
-1.801112e-07
0.005662758
-1.669581e-07
0.005662778
-1.533311e-07
0.005662797
-1.392532e-07
0.005662813
-1.247521e-07
0.005662827
-1.098602e-07
0.00566284
-9.461465e-08
0.00566285
-7.90569e-08
0.005662859
-6.323218e-08
0.005662865
-4.719021e-08
0.005662869
-3.097952e-08
-1.467316e-08
0.005659497
-4.790846e-08
0.005659494
-7.738507e-08
0.005659495
-9.603031e-08
0.005659498
-1.137045e-07
0.005659505
-1.303416e-07
0.005659514
-1.456013e-07
0.005659527
-1.598799e-07
0.005659542
-1.735597e-07
0.00565956
-1.868201e-07
0.00565958
-1.997279e-07
0.005659602
-2.123112e-07
0.005659627
-2.245744e-07
0.005659653
-2.365027e-07
0.00565968
-2.480731e-07
0.005659709
-2.592613e-07
0.00565974
-2.700451e-07
0.005659771
-2.804062e-07
0.005659804
-2.903307e-07
0.005659839
-2.998097e-07
0.005659874
-3.088385e-07
0.00565991
-3.17417e-07
0.005659947
-3.255481e-07
0.005659985
-3.33238e-07
0.005660024
-3.404956e-07
0.005660064
-3.473313e-07
0.005660104
-3.537575e-07
0.005660145
-3.597874e-07
0.005660186
-3.654352e-07
0.005660228
-3.707154e-07
0.005660271
-3.75643e-07
0.005660314
-3.802326e-07
0.005660357
-3.844991e-07
0.005660401
-3.884566e-07
0.005660445
-3.92119e-07
0.00566049
-3.954997e-07
0.005660535
-3.986114e-07
0.00566058
-4.014659e-07
0.005660626
-4.040746e-07
0.005660671
-4.064479e-07
0.005660717
-4.085953e-07
0.005660764
-4.105257e-07
0.00566081
-4.12247e-07
0.005660856
-4.137663e-07
0.005660903
-4.150897e-07
0.00566095
-4.162226e-07
0.005660997
-4.171694e-07
0.005661044
-4.179337e-07
0.00566109
-4.185182e-07
0.005661138
-4.189246e-07
0.005661185
-4.19154e-07
0.005661232
-4.192063e-07
0.005661279
-4.190807e-07
0.005661326
-4.187756e-07
0.005661373
-4.182882e-07
0.00566142
-4.17615e-07
0.005661466
-4.167516e-07
0.005661513
-4.156927e-07
0.00566156
-4.144319e-07
0.005661606
-4.129622e-07
0.005661652
-4.112752e-07
0.005661699
-4.09362e-07
0.005661744
-4.072125e-07
0.00566179
-4.048158e-07
0.005661836
-4.021598e-07
0.005661881
-3.992319e-07
0.005661925
-3.96018e-07
0.00566197
-3.925037e-07
0.005662014
-3.886734e-07
0.005662058
-3.845106e-07
0.005662101
-3.799983e-07
0.005662143
-3.751186e-07
0.005662186
-3.698531e-07
0.005662227
-3.64183e-07
0.005662268
-3.580888e-07
0.005662308
-3.515512e-07
0.005662348
-3.445505e-07
0.005662387
-3.370675e-07
0.005662424
-3.290833e-07
0.005662461
-3.205796e-07
0.005662497
-3.115394e-07
0.005662532
-3.019467e-07
0.005662566
-2.917874e-07
0.005662599
-2.810495e-07
0.00566263
-2.697235e-07
0.00566266
-2.578029e-07
0.005662689
-2.452847e-07
0.005662716
-2.321695e-07
0.005662742
-2.184624e-07
0.005662766
-2.041732e-07
0.005662788
-1.893165e-07
0.005662809
-1.739124e-07
0.005662828
-1.579866e-07
0.005662845
-1.415704e-07
0.005662859
-1.247007e-07
0.005662872
-1.074198e-07
0.005662883
-8.977538e-08
0.005662891
-7.18197e-08
0.005662898
-5.361018e-08
0.005662902
-3.520308e-08
-1.668231e-08
0.005659487
-4.484014e-08
0.005659486
-7.647976e-08
0.005659489
-9.778947e-08
0.005659494
-1.180503e-07
0.005659502
-1.376002e-07
0.005659512
-1.558698e-07
0.005659525
-1.73044e-07
0.005659541
-1.894355e-07
0.00565956
-2.052056e-07
0.00565958
-2.204211e-07
0.005659603
-2.351207e-07
0.005659628
-2.493249e-07
0.005659654
-2.630371e-07
0.005659682
-2.762509e-07
0.005659712
-2.889568e-07
0.005659743
-3.011455e-07
0.005659775
-3.128093e-07
0.005659809
-3.239436e-07
0.005659844
-3.345469e-07
0.005659879
-3.446215e-07
0.005659916
-3.541727e-07
0.005659954
-3.632087e-07
0.005659992
-3.717404e-07
0.005660031
-3.797804e-07
0.005660071
-3.873434e-07
0.005660112
-3.944449e-07
0.005660153
-4.011017e-07
0.005660195
-4.073307e-07
0.005660237
-4.131495e-07
0.00566028
-4.185754e-07
0.005660324
-4.236259e-07
0.005660367
-4.283178e-07
0.005660412
-4.326676e-07
0.005660456
-4.366912e-07
0.005660501
-4.404036e-07
0.005660546
-4.438193e-07
0.005660592
-4.469518e-07
0.005660637
-4.498137e-07
0.005660683
-4.524167e-07
0.005660729
-4.547718e-07
0.005660776
-4.568886e-07
0.005660822
-4.58776e-07
0.005660869
-4.604421e-07
0.005660916
-4.618935e-07
0.005660963
-4.631364e-07
0.00566101
-4.641756e-07
0.005661057
-4.650151e-07
0.005661104
-4.656579e-07
0.005661151
-4.66106e-07
0.005661198
-4.663606e-07
0.005661245
-4.664215e-07
0.005661293
-4.66288e-07
0.00566134
-4.659581e-07
0.005661387
-4.654289e-07
0.005661434
-4.646966e-07
0.005661481
-4.637561e-07
0.005661528
-4.626016e-07
0.005661575
-4.612261e-07
0.005661621
-4.596217e-07
0.005661668
-4.577792e-07
0.005661714
-4.556887e-07
0.00566176
-4.533388e-07
0.005661806
-4.507175e-07
0.005661852
-4.478113e-07
0.005661897
-4.44606e-07
0.005661942
-4.410861e-07
0.005661987
-4.372352e-07
0.005662031
-4.330357e-07
0.005662075
-4.284694e-07
0.005662119
-4.235168e-07
0.005662162
-4.181579e-07
0.005662204
-4.123717e-07
0.005662246
-4.061367e-07
0.005662287
-3.994309e-07
0.005662328
-3.92232e-07
0.005662368
-3.845176e-07
0.005662407
-3.762653e-07
0.005662446
-3.674532e-07
0.005662483
-3.5806e-07
0.00566252
-3.480655e-07
0.005662555
-3.374508e-07
0.005662589
-3.261989e-07
0.005662623
-3.142952e-07
0.005662655
-3.017276e-07
0.005662685
-2.884877e-07
0.005662715
-2.745704e-07
0.005662742
-2.599755e-07
0.005662769
-2.447071e-07
0.005662793
-2.287752e-07
0.005662816
-2.121953e-07
0.005662837
-1.94989e-07
0.005662856
-1.771847e-07
0.005662874
-1.588172e-07
0.005662889
-1.399279e-07
0.005662902
-1.20565e-07
0.005662913
-1.007827e-07
0.005662922
-8.064086e-08
0.005662928
-6.020577e-08
0.005662933
-3.954251e-08
-1.874919e-08
0.005659476
-4.433166e-08
0.005659478
-7.804609e-08
0.005659483
-1.015588e-07
0.005659489
-1.241196e-07
0.005659498
-1.462729e-07
0.00565951
-1.672378e-07
0.005659524
-1.870458e-07
0.005659541
-2.059567e-07
0.00565956
-2.241066e-07
0.005659581
-2.415491e-07
0.005659604
-2.583216e-07
0.005659629
-2.7445e-07
0.005659656
-2.899462e-07
0.005659684
-3.048133e-07
0.005659714
-3.190516e-07
0.005659746
-3.326608e-07
0.005659779
-3.456417e-07
0.005659813
-3.579974e-07
0.005659848
-3.697336e-07
0.005659884
-3.808588e-07
0.005659921
-3.913843e-07
0.005659959
-4.013235e-07
0.005659998
-4.106924e-07
0.005660038
-4.195081e-07
0.005660078
-4.277893e-07
0.005660119
-4.355558e-07
0.005660161
-4.428276e-07
0.005660203
-4.496254e-07
0.005660246
-4.559696e-07
0.005660289
-4.618807e-07
0.005660333
-4.673785e-07
0.005660377
-4.724826e-07
0.005660421
-4.772117e-07
0.005660466
-4.815837e-07
0.005660511
-4.856158e-07
0.005660557
-4.893241e-07
0.005660603
-4.927237e-07
0.005660649
-4.958288e-07
0.005660695
-4.986524e-07
0.005660741
-5.012066e-07
0.005660788
-5.035022e-07
0.005660835
-5.055491e-07
0.005660881
-5.07356e-07
0.005660928
-5.089305e-07
0.005660976
-5.102792e-07
0.005661023
-5.114075e-07
0.00566107
-5.123199e-07
0.005661117
-5.130196e-07
0.005661165
-5.135089e-07
0.005661212
-5.13789e-07
0.00566126
-5.138599e-07
0.005661307
-5.137206e-07
0.005661354
-5.133691e-07
0.005661402
-5.128023e-07
0.005661449
-5.120157e-07
0.005661496
-5.110042e-07
0.005661543
-5.097611e-07
0.005661591
-5.082789e-07
0.005661637
-5.065487e-07
0.005661684
-5.045608e-07
0.005661731
-5.023038e-07
0.005661777
-4.997657e-07
0.005661823
-4.969328e-07
0.005661869
-4.937906e-07
0.005661915
-4.90323e-07
0.00566196
-4.865131e-07
0.005662006
-4.823426e-07
0.00566205
-4.777921e-07
0.005662095
-4.728411e-07
0.005662139
-4.674679e-07
0.005662182
-4.616501e-07
0.005662225
-4.553642e-07
0.005662268
-4.485858e-07
0.005662309
-4.412902e-07
0.005662351
-4.334519e-07
0.005662391
-4.250454e-07
0.005662431
-4.160451e-07
0.00566247
-4.064256e-07
0.005662508
-3.961624e-07
0.005662545
-3.852317e-07
0.005662581
-3.736112e-07
0.005662616
-3.612807e-07
0.00566265
-3.482223e-07
0.005662683
-3.344211e-07
0.005662714
-3.198658e-07
0.005662744
-3.045492e-07
0.005662773
-2.884693e-07
0.0056628
-2.716293e-07
0.005662825
-2.540385e-07
0.005662848
-2.357129e-07
0.00566287
-2.166757e-07
0.00566289
-1.969576e-07
0.005662908
-1.765968e-07
0.005662923
-1.556398e-07
0.005662937
-1.341403e-07
0.005662948
-1.121598e-07
0.005662957
-8.976621e-08
0.005662964
-6.703515e-08
0.005662969
-4.404104e-08
-2.089536e-08
0.005659463
-4.49799e-08
0.005659467
-8.102267e-08
0.005659472
-1.066682e-07
0.00565948
-1.3141e-07
0.005659491
-1.560217e-07
0.005659503
-1.795429e-07
0.005659518
-2.018764e-07
0.005659535
-2.232345e-07
0.005659555
-2.437222e-07
0.005659577
-2.633718e-07
0.005659601
-2.822113e-07
0.005659627
-3.002655e-07
0.005659654
-3.1755e-07
0.005659683
-3.340742e-07
0.005659714
-3.49846e-07
0.005659746
-3.648731e-07
0.00565978
-3.791646e-07
0.005659814
-3.927313e-07
0.00565985
-4.055862e-07
0.005659887
-4.177448e-07
0.005659925
-4.292246e-07
0.005659963
-4.400452e-07
0.005660003
-4.502277e-07
0.005660043
-4.597945e-07
0.005660084
-4.687689e-07
0.005660126
-4.771747e-07
0.005660168
-4.850362e-07
0.00566021
-4.923775e-07
0.005660254
-4.992226e-07
0.005660297
-5.055947e-07
0.005660341
-5.115168e-07
0.005660386
-5.17011e-07
0.005660431
-5.220982e-07
0.005660476
-5.267988e-07