/*--------------------------------*- C++ -*----------------------------------*\
| =========                 |                                                 |
| \\      /  F ield         | OpenFOAM: The Open Source CFD Toolbox           |
|  \\    /   O peration     | Version:  2.3.0                                 |
|   \\  /    A nd           | Web:      www.OpenFOAM.org                      |
|    \\/     M anipulation  |                                                 |
\*---------------------------------------------------------------------------*/
FoamFile
{
    version     2.0;
    format      ascii;
    class       volVectorField;
    location    "9900/bottomAir";
    object      U;
}
// * * * * * * * * * * * * * * * * * * * * * * * * * * * * * * * * * * * * * //

dimensions      [0 1 -1 0 0 0 0];

internalField   nonuniform List<vector> 
4000
(
(28.25311 -0.003001757 0)
(21.4006 -0.001496748 0)
(18.64199 -0.0005889341 0)
(19.37729 -0.000451454 0)
(19.65675 -0.0003266278 0)
(19.57825 -0.0002158586 0)
(19.55017 -0.000159783 0)
(19.55869 -0.0001292368 0)
(19.56163 -0.0001084614 0)
(19.56083 -9.462591e-05 0)
(19.56063 -8.568455e-05 0)
(19.56082 -7.974874e-05 0)
(19.56094 -7.575611e-05 0)
(19.56102 -7.310739e-05 0)
(19.56112 -7.14027e-05 0)
(19.56122 -7.0365e-05 0)
(19.56132 -6.980636e-05 0)
(19.56143 -6.959465e-05 0)
(19.56154 -6.963457e-05 0)
(19.56165 -6.985641e-05 0)
(19.56177 -7.020792e-05 0)
(19.56189 -7.06503e-05 0)
(19.56202 -7.115352e-05 0)
(19.56214 -7.169523e-05 0)
(19.56227 -7.225768e-05 0)
(19.5624 -7.282787e-05 0)
(19.56254 -7.339522e-05 0)
(19.56267 -7.395224e-05 0)
(19.56281 -7.449273e-05 0)
(19.56295 -7.50125e-05 0)
(19.56309 -7.55081e-05 0)
(19.56324 -7.597736e-05 0)
(19.56338 -7.641853e-05 0)
(19.56353 -7.683066e-05 0)
(19.56368 -7.721306e-05 0)
(19.56383 -7.756549e-05 0)
(19.56398 -7.788789e-05 0)
(19.56413 -7.81804e-05 0)
(19.56429 -7.844332e-05 0)
(19.56444 -7.867692e-05 0)
(19.5646 -7.888168e-05 0)
(19.56475 -7.905788e-05 0)
(19.56491 -7.9206e-05 0)
(19.56506 -7.932625e-05 0)
(19.56522 -7.941904e-05 0)
(19.56538 -7.94844e-05 0)
(19.56554 -7.952263e-05 0)
(19.5657 -7.953354e-05 0)
(19.56586 -7.951724e-05 0)
(19.56602 -7.947332e-05 0)
(19.56617 -7.940164e-05 0)
(19.56633 -7.930152e-05 0)
(19.56649 -7.917259e-05 0)
(19.56665 -7.901388e-05 0)
(19.56681 -7.882474e-05 0)
(19.56697 -7.860389e-05 0)
(19.56712 -7.835039e-05 0)
(19.56728 -7.806265e-05 0)
(19.56744 -7.773941e-05 0)
(19.56759 -7.737877e-05 0)
(19.56775 -7.697916e-05 0)
(19.5679 -7.653833e-05 0)
(19.56806 -7.605441e-05 0)
(19.56821 -7.552483e-05 0)
(19.56836 -7.494742e-05 0)
(19.56851 -7.431929e-05 0)
(19.56866 -7.363798e-05 0)
(19.56881 -7.290036e-05 0)
(19.56895 -7.210368e-05 0)
(19.5691 -7.124459e-05 0)
(19.56924 -7.032018e-05 0)
(19.56938 -6.932693e-05 0)
(19.56952 -6.826181e-05 0)
(19.56965 -6.712127e-05 0)
(19.56979 -6.590227e-05 0)
(19.56992 -6.460133e-05 0)
(19.57004 -6.32156e-05 0)
(19.57017 -6.174183e-05 0)
(19.57029 -6.017749e-05 0)
(19.57041 -5.85198e-05 0)
(19.57052 -5.676677e-05 0)
(19.57063 -5.491629e-05 0)
(19.57074 -5.296719e-05 0)
(19.57084 -5.091828e-05 0)
(19.57094 -4.876942e-05 0)
(19.57103 -4.652062e-05 0)
(19.57112 -4.417307e-05 0)
(19.5712 -4.172819e-05 0)
(19.57128 -3.918871e-05 0)
(19.57135 -3.655776e-05 0)
(19.57142 -3.383984e-05 0)
(19.57148 -3.104009e-05 0)
(19.57153 -2.81653e-05 0)
(19.57158 -2.522364e-05 0)
(19.57162 -2.222634e-05 0)
(19.57166 -1.918995e-05 0)
(19.57169 -1.614153e-05 0)
(19.57171 -1.31405e-05 0)
(19.57172 -1.027973e-05 0)
(19.57174 -7.95922e-06 0)
(28.24784 -0.003740618 0)
(21.39807 -0.001597308 0)
(18.63746 -0.0004551628 0)
(19.37215 -0.000364526 0)
(19.65166 -0.0002590627 0)
(19.57308 -0.0001526236 0)
(19.54492 -0.0001124486 0)
(19.55341 -0.0001002476 0)
(19.55634 -9.549399e-05 0)
(19.55553 -9.604839e-05 0)
(19.55533 -0.000100237 0)
(19.55551 -0.0001061536 0)
(19.55564 -0.0001128508 0)
(19.55572 -0.0001198973 0)
(19.55582 -0.0001270268 0)
(19.55593 -0.0001340707 0)
(19.55603 -0.0001409325 0)
(19.55614 -0.0001475559 0)
(19.55626 -0.0001539085 0)
(19.55638 -0.0001599725 0)
(19.5565 -0.0001657402 0)
(19.55663 -0.0001712099 0)
(19.55675 -0.0001763841 0)
(19.55688 -0.0001812684 0)
(19.55702 -0.0001858699 0)
(19.55715 -0.0001901974 0)
(19.55729 -0.0001942601 0)
(19.55743 -0.0001980681 0)
(19.55758 -0.0002016313 0)
(19.55772 -0.0002049599 0)
(19.55787 -0.0002080642 0)
(19.55802 -0.0002109539 0)
(19.55817 -0.0002136386 0)
(19.55832 -0.0002161277 0)
(19.55848 -0.0002184299 0)
(19.55863 -0.0002205536 0)
(19.55879 -0.0002225068 0)
(19.55894 -0.0002242969 0)
(19.5591 -0.0002259307 0)
(19.55926 -0.0002274145 0)
(19.55942 -0.0002287542 0)
(19.55958 -0.000229955 0)
(19.55974 -0.0002310216 0)
(19.5599 -0.0002319581 0)
(19.56007 -0.0002327681 0)
(19.56023 -0.0002334545 0)
(19.56039 -0.0002340199 0)
(19.56056 -0.0002344661 0)
(19.56072 -0.0002347945 0)
(19.56088 -0.0002350059 0)
(19.56105 -0.0002351007 0)
(19.56121 -0.0002350784 0)
(19.56138 -0.0002349383 0)
(19.56154 -0.000234679 0)
(19.5617 -0.0002342986 0)
(19.56186 -0.0002337948 0)
(19.56203 -0.0002331644 0)
(19.56219 -0.000232404 0)
(19.56235 -0.0002315095 0)
(19.56251 -0.0002304764 0)
(19.56267 -0.0002292995 0)
(19.56283 -0.0002279732 0)
(19.56299 -0.0002264913 0)
(19.56315 -0.0002248473 0)
(19.5633 -0.0002230339 0)
(19.56346 -0.0002210436 0)
(19.56361 -0.0002188683 0)
(19.56376 -0.0002164996 0)
(19.56391 -0.0002139286 0)
(19.56406 -0.0002111463 0)
(19.56421 -0.0002081432 0)
(19.56435 -0.0002049098 0)
(19.5645 -0.0002014362 0)
(19.56464 -0.0001977127 0)
(19.56478 -0.0001937295 0)
(19.56491 -0.0001894773 0)
(19.56504 -0.0001849466 0)
(19.56517 -0.0001801287 0)
(19.5653 -0.0001750153 0)
(19.56542 -0.000169599 0)
(19.56554 -0.0001638733 0)
(19.56565 -0.0001578327 0)
(19.56577 -0.0001514731 0)
(19.56587 -0.0001447917 0)
(19.56598 -0.0001377877 0)
(19.56607 -0.000130462 0)
(19.56617 -0.0001228175 0)
(19.56625 -0.0001148595 0)
(19.56634 -0.0001065957 0)
(19.56641 -9.803619e-05 0)
(19.56648 -8.919395e-05 0)
(19.56655 -8.008474e-05 0)
(19.56661 -7.072755e-05 0)
(19.56666 -6.114484e-05 0)
(19.56671 -5.136364e-05 0)
(19.56675 -4.141753e-05 0)
(19.56678 -3.135011e-05 0)
(19.56681 -2.123137e-05 0)
(19.56683 -1.115302e-05 0)
(19.56684 -1.427191e-06 0)
(28.24769 -0.001414415 0)
(21.39922 -0.0006925048 0)
(18.638 -0.0003359921 0)
(19.37242 -0.0003382869 0)
(19.65197 -0.0003111961 0)
(19.57339 -0.000266258 0)
(19.54521 -0.0002450042 0)
(19.5537 -0.0002368876 0)
(19.55664 -0.0002333758 0)
(19.55583 -0.0002336188 0)
(19.55563 -0.0002368848 0)
(19.55581 -0.0002420823 0)
(19.55594 -0.0002485032 0)
(19.55602 -0.0002557179 0)
(19.55612 -0.0002634102 0)
(19.55623 -0.0002713458 0)
(19.55633 -0.0002793559 0)
(19.55644 -0.0002873189 0)
(19.55656 -0.0002951459 0)
(19.55668 -0.0003027721 0)
(19.5568 -0.0003101518 0)
(19.55692 -0.0003172521 0)
(19.55705 -0.0003240516 0)
(19.55718 -0.0003305362 0)
(19.55731 -0.0003366986 0)
(19.55745 -0.0003425359 0)
(19.55758 -0.0003480491 0)
(19.55772 -0.0003532419 0)
(19.55786 -0.0003581202 0)
(19.55801 -0.0003626914 0)
(19.55815 -0.0003669642 0)
(19.5583 -0.0003709477 0)
(19.55845 -0.0003746517 0)
(19.5586 -0.0003780861 0)
(19.55875 -0.0003812608 0)
(19.55891 -0.0003841857 0)
(19.55906 -0.0003868701 0)
(19.55922 -0.0003893233 0)
(19.55937 -0.0003915536 0)
(19.55953 -0.0003935694 0)
(19.55969 -0.0003953778 0)
(19.55985 -0.0003969858 0)
(19.56001 -0.0003983994 0)
(19.56017 -0.0003996239 0)
(19.56033 -0.0004006639 0)
(19.56049 -0.0004015234 0)
(19.56065 -0.0004022052 0)
(19.56081 -0.0004027118 0)
(19.56098 -0.0004030445 0)
(19.56114 -0.0004032041 0)
(19.5613 -0.0004031902 0)
(19.56146 -0.000403002 0)
(19.56163 -0.0004026375 0)
(19.56179 -0.0004020941 0)
(19.56195 -0.0004013682 0)
(19.56211 -0.0004004555 0)
(19.56227 -0.0003993506 0)
(19.56243 -0.0003980476 0)
(19.56259 -0.0003965393 0)
(19.56275 -0.000394818 0)
(19.56291 -0.0003928748 0)
(19.56307 -0.0003907005 0)
(19.56323 -0.0003882842 0)
(19.56338 -0.0003856152 0)
(19.56354 -0.000382681 0)
(19.56369 -0.0003794691 0)
(19.56384 -0.0003759657 0)
(19.56399 -0.0003721568 0)
(19.56414 -0.0003680274 0)
(19.56429 -0.0003635623 0)
(19.56443 -0.0003587453 0)
(19.56458 -0.0003535605 0)
(19.56472 -0.0003479912 0)
(19.56486 -0.0003420212 0)
(19.56499 -0.0003356337 0)
(19.56513 -0.0003288129 0)
(19.56526 -0.0003215428 0)
(19.56539 -0.0003138086 0)
(19.56551 -0.0003055962 0)
(19.56563 -0.0002968929 0)
(19.56575 -0.0002876873 0)
(19.56587 -0.0002779701 0)
(19.56598 -0.000267734 0)
(19.56608 -0.0002569742 0)
(19.56618 -0.0002456886 0)
(19.56628 -0.0002338786 0)
(19.56637 -0.0002215486 0)
(19.56646 -0.0002087071 0)
(19.56654 -0.0001953664 0)
(19.56661 -0.0001815432 0)
(19.56668 -0.0001672585 0)
(19.56675 -0.0001525381 0)
(19.5668 -0.0001374125 0)
(19.56686 -0.0001219172 0)
(19.5669 -0.0001060927 0)
(19.56694 -8.998423e-05 0)
(19.56697 -7.364063e-05 0)
(19.567 -5.710958e-05 0)
(19.56702 -4.042866e-05 0)
(19.56703 -2.355069e-05 0)
(28.24731 -0.0009640969 0)
(21.39975 -0.0007899098 0)
(18.63855 -0.0005689625 0)
(19.37288 -0.0004905763 0)
(19.65243 -0.0004284528 0)
(19.57384 -0.0003691809 0)
(19.54564 -0.00033118 0)
(19.55411 -0.0003109838 0)
(19.55704 -0.0003014466 0)
(19.55621 -0.0002993246 0)
(19.55601 -0.0003025993 0)
(19.55619 -0.0003095216 0)
(19.55631 -0.0003188171 0)
(19.55639 -0.000329622 0)
(19.55648 -0.0003413288 0)
(19.55659 -0.0003535031 0)
(19.55669 -0.0003658377 0)
(19.5568 -0.000378115 0)
(19.55692 -0.0003901814 0)
(19.55703 -0.0004019288 0)
(19.55715 -0.0004132824 0)
(19.55728 -0.0004241918 0)
(19.55741 -0.0004346247 0)
(19.55754 -0.0004445619 0)
(19.55767 -0.0004539945 0)
(19.5578 -0.0004629209 0)
(19.55794 -0.000471345 0)
(19.55808 -0.000479275 0)
(19.55822 -0.0004867219 0)
(19.55837 -0.0004936989 0)
(19.55851 -0.0005002205 0)
(19.55866 -0.0005063023 0)
(19.55881 -0.0005119602 0)
(19.55896 -0.00051721 0)
(19.55911 -0.0005220677 0)
(19.55927 -0.0005265486 0)
(19.55942 -0.0005306676 0)
(19.55958 -0.0005344388 0)
(19.55973 -0.0005378754 0)
(19.55989 -0.0005409899 0)
(19.56005 -0.0005437935 0)
(19.56021 -0.0005462968 0)
(19.56037 -0.0005485089 0)
(19.56053 -0.0005504381 0)
(19.56069 -0.0005520913 0)
(19.56085 -0.0005534746 0)
(19.56101 -0.0005545926 0)
(19.56117 -0.0005554489 0)
(19.56134 -0.000556046 0)
(19.5615 -0.000556385 0)
(19.56166 -0.000556466 0)
(19.56182 -0.0005562878 0)
(19.56198 -0.000555848 0)
(19.56215 -0.000555143 0)
(19.56231 -0.0005541681 0)
(19.56247 -0.0005529173 0)
(19.56263 -0.0005513833 0)
(19.56279 -0.0005495576 0)
(19.56295 -0.0005474306 0)
(19.56311 -0.0005449914 0)
(19.56327 -0.0005422279 0)
(19.56343 -0.0005391267 0)
(19.56359 -0.0005356734 0)
(19.56374 -0.0005318522 0)
(19.5639 -0.0005276463 0)
(19.56405 -0.0005230379 0)
(19.5642 -0.0005180079 0)
(19.56435 -0.0005125364 0)
(19.5645 -0.0005066026 0)
(19.56465 -0.0005001849 0)
(19.5648 -0.000493261 0)
(19.56494 -0.0004858081 0)
(19.56508 -0.0004778033 0)
(19.56522 -0.000469223 0)
(19.56536 -0.0004600444 0)
(19.56549 -0.0004502444 0)
(19.56562 -0.000439801 0)
(19.56575 -0.0004286929 0)
(19.56588 -0.0004169003 0)
(19.566 -0.0004044049 0)
(19.56612 -0.0003911909 0)
(19.56623 -0.0003772446 0)
(19.56634 -0.0003625556 0)
(19.56645 -0.0003471169 0)
(19.56655 -0.0003309254 0)
(19.56665 -0.0003139825 0)
(19.56674 -0.0002962944 0)
(19.56682 -0.0002778726 0)
(19.56691 -0.0002587342 0)
(19.56698 -0.0002389025 0)
(19.56705 -0.0002184067 0)
(19.56712 -0.0001972828 0)
(19.56718 -0.0001755733 0)
(19.56723 -0.0001533272 0)
(19.56727 -0.0001306005 0)
(19.56731 -0.0001074557 0)
(19.56734 -8.39613e-05 0)
(19.56737 -6.019231e-05 0)
(19.56739 -3.622213e-05 0)
(19.5674 -1.214173e-05 0)
(28.24719 -0.0005217907 0)
(21.40011 -0.0004621425 0)
(18.6389 -0.0003636235 0)
(19.37314 -0.0003428846 0)
(19.65266 -0.000335432 0)
(19.57405 -0.0003271014 0)
(19.54584 -0.0003265923 0)
(19.5543 -0.0003337299 0)
(19.55721 -0.0003452129 0)
(19.55639 -0.0003594324 0)
(19.55618 -0.0003755557 0)
(19.55636 -0.0003928433 0)
(19.55648 -0.0004107193 0)
(19.55656 -0.0004287878 0)
(19.55666 -0.0004467684 0)
(19.55676 -0.0004644579 0)
(19.55687 -0.0004817106 0)
(19.55698 -0.0004984237 0)
(19.5571 -0.0005145262 0)
(19.55722 -0.0005299705 0)
(19.55734 -0.0005447269 0)
(19.55746 -0.0005587791 0)
(19.55759 -0.0005721217 0)
(19.55772 -0.0005847568 0)
(19.55785 -0.000596693 0)
(19.55799 -0.0006079433 0)
(19.55813 -0.0006185245 0)
(19.55827 -0.0006284556 0)
(19.55841 -0.0006377576 0)
(19.55856 -0.0006464527 0)
(19.5587 -0.0006545636 0)
(19.55885 -0.0006621131 0)
(19.559 -0.0006691243 0)
(19.55915 -0.0006756194 0)
(19.55931 -0.0006816203 0)
(19.55946 -0.000687148 0)
(19.55961 -0.0006922222 0)
(19.55977 -0.000696862 0)
(19.55993 -0.0007010849 0)
(19.56009 -0.0007049072 0)
(19.56024 -0.0007083441 0)
(19.5604 -0.0007114089 0)
(19.56056 -0.000714114 0)
(19.56073 -0.0007164701 0)
(19.56089 -0.0007184862 0)
(19.56105 -0.0007201703 0)
(19.56121 -0.0007215285 0)
(19.56137 -0.0007225654 0)
(19.56154 -0.0007232844 0)
(19.5617 -0.000723687 0)
(19.56186 -0.0007237733 0)
(19.56202 -0.0007235419 0)
(19.56219 -0.0007229899 0)
(19.56235 -0.0007221126 0)
(19.56251 -0.000720904 0)
(19.56267 -0.0007193564 0)
(19.56283 -0.0007174605 0)
(19.56299 -0.0007152054 0)
(19.56315 -0.0007125788 0)
(19.56331 -0.0007095667 0)
(19.56347 -0.0007061533 0)
(19.56363 -0.0007023216 0)
(19.56379 -0.0006980528 0)
(19.56395 -0.0006933268 0)
(19.5641 -0.0006881216 0)
(19.56426 -0.0006824142 0)
(19.56441 -0.00067618 0)
(19.56456 -0.0006693932 0)
(19.56471 -0.0006620268 0)
(19.56486 -0.0006540526 0)
(19.565 -0.0006454417 0)
(19.56515 -0.0006361645 0)
(19.56529 -0.0006261907 0)
(19.56543 -0.00061549 0)
(19.56557 -0.0006040319 0)
(19.5657 -0.0005917867 0)
(19.56584 -0.000578725 0)
(19.56597 -0.0005648189 0)
(19.56609 -0.000550042 0)
(19.56621 -0.0005343701 0)
(19.56633 -0.0005177817 0)
(19.56645 -0.0005002585 0)
(19.56656 -0.0004817861 0)
(19.56667 -0.0004623546 0)
(19.56677 -0.0004419589 0)
(19.56687 -0.0004206001 0)
(19.56696 -0.0003982851 0)
(19.56705 -0.0003750279 0)
(19.56713 -0.0003508498 0)
(19.56721 -0.0003257799 0)
(19.56728 -0.0002998553 0)
(19.56734 -0.0002731215 0)
(19.5674 -0.0002456323 0)
(19.56745 -0.0002174498 0)
(19.5675 -0.000188644 0)
(19.56754 -0.0001592922 0)
(19.56757 -0.0001294774 0)
(19.5676 -9.928779e-05 0)
(19.56762 -6.880679e-05 0)
(19.56763 -3.815226e-05 0)
(28.24703 -0.0003692721 0)
(21.40018 -0.0004193758 0)
(18.639 -0.0004124752 0)
(19.37323 -0.0004238255 0)
(19.65276 -0.0004307524 0)
(19.57416 -0.0004316756 0)
(19.54595 -0.0004341425 0)
(19.5544 -0.0004405421 0)
(19.55732 -0.0004503724 0)
(19.55649 -0.0004630708 0)
(19.55628 -0.0004781577 0)
(19.55646 -0.0004950645 0)
(19.55658 -0.0005132351 0)
(19.55666 -0.0005321991 0)
(19.55676 -0.0005515719 0)
(19.55686 -0.0005710436 0)
(19.55697 -0.0005903701 0)
(19.55708 -0.0006093626 0)
(19.5572 -0.0006278781 0)
(19.55731 -0.0006458104 0)
(19.55744 -0.0006630828 0)
(19.55756 -0.0006796423 0)
(19.55769 -0.0006954545 0)
(19.55782 -0.0007105 0)
(19.55796 -0.000724771 0)
(19.55809 -0.0007382686 0)
(19.55823 -0.0007510011 0)
(19.55837 -0.0007629821 0)
(19.55851 -0.000774229 0)
(19.55866 -0.0007847623 0)
(19.55881 -0.0007946043 0)
(19.55896 -0.0008037783 0)
(19.55911 -0.0008123086 0)
(19.55926 -0.0008202193 0)
(19.55941 -0.0008275343 0)
(19.55957 -0.0008342768 0)
(19.55972 -0.0008404693 0)
(19.55988 -0.0008461331 0)
(19.56003 -0.0008512882 0)
(19.56019 -0.0008559533 0)
(19.56035 -0.0008601456 0)
(19.56051 -0.0008638807 0)
(19.56067 -0.0008671725 0)
(19.56083 -0.0008700334 0)
(19.561 -0.000872474 0)
(19.56116 -0.0008745029 0)
(19.56132 -0.0008761274 0)
(19.56148 -0.0008773525 0)
(19.56165 -0.0008781819 0)
(19.56181 -0.000878617 0)
(19.56197 -0.0008786577 0)
(19.56213 -0.0008783019 0)
(19.5623 -0.0008775458 0)
(19.56246 -0.0008763833 0)
(19.56262 -0.0008748071 0)
(19.56278 -0.0008728073 0)
(19.56295 -0.0008703727 0)
(19.56311 -0.0008674898 0)
(19.56327 -0.0008641432 0)
(19.56343 -0.0008603159 0)
(19.56359 -0.0008559885 0)
(19.56375 -0.0008511401 0)
(19.5639 -0.0008457476 0)
(19.56406 -0.0008397863 0)
(19.56422 -0.0008332295 0)
(19.56437 -0.0008260486 0)
(19.56453 -0.0008182137 0)
(19.56468 -0.0008096929 0)
(19.56483 -0.000800453 0)
(19.56498 -0.0007904595 0)
(19.56512 -0.0007796766 0)
(19.56527 -0.0007680677 0)
(19.56541 -0.0007555957 0)
(19.56555 -0.0007422227 0)
(19.56569 -0.0007279113 0)
(19.56583 -0.0007126241 0)
(19.56596 -0.0006963249 0)
(19.56609 -0.0006789785 0)
(19.56622 -0.0006605521 0)
(19.56634 -0.000641015 0)
(19.56646 -0.0006203399 0)
(19.56658 -0.0005985037 0)
(19.56669 -0.0005754875 0)
(19.5668 -0.0005512782 0)
(19.5669 -0.0005258689 0)
(19.567 -0.0004992594 0)
(19.56709 -0.0004714577 0)
(19.56718 -0.00044248 0)
(19.56727 -0.0004123516 0)
(19.56734 -0.0003811076 0)
(19.56742 -0.0003487931 0)
(19.56748 -0.0003154634 0)
(19.56754 -0.0002811845 0)
(19.56759 -0.0002460324 0)
(19.56764 -0.0002100932 0)
(19.56768 -0.0001734623 0)
(19.56771 -0.0001362429 0)
(19.56774 -9.854714e-05 0)
(19.56776 -6.048357e-05 0)
(19.56777 -2.221194e-05 0)
(28.24694 -0.0002526445 0)
(21.40025 -0.0003186725 0)
(18.6391 -0.0003366729 0)
(19.37332 -0.0003610173 0)
(19.65285 -0.0003833568 0)
(19.57425 -0.0004030517 0)
(19.54603 -0.0004237462 0)
(19.55448 -0.0004467502 0)
(19.55739 -0.0004717352 0)
(19.55656 -0.0004981633 0)
(19.55635 -0.000525571 0)
(19.55652 -0.0005535114 0)
(19.55664 -0.0005815767 0)
(19.55672 -0.0006094327 0)
(19.55682 -0.0006368181 0)
(19.55692 -0.0006635324 0)
(19.55703 -0.0006894258 0)
(19.55714 -0.0007143901 0)
(19.55726 -0.0007383507 0)
(19.55738 -0.0007612595 0)
(19.5575 -0.0007830892 0)
(19.55763 -0.0008038293 0)
(19.55776 -0.0008234819 0)
(19.55789 -0.0008420591 0)
(19.55802 -0.0008595808 0)
(19.55816 -0.0008760724 0)
(19.5583 -0.0008915638 0)
(19.55844 -0.0009060877 0)
(19.55859 -0.0009196787 0)
(19.55873 -0.0009323727 0)
(19.55888 -0.0009442059 0)
(19.55903 -0.0009552146 0)
(19.55918 -0.0009654342 0)
(19.55933 -0.0009748994 0)
(19.55949 -0.0009836438 0)
(19.55964 -0.0009916991 0)
(19.5598 -0.0009990959 0)
(19.55996 -0.001005862 0)
(19.56012 -0.001012025 0)
(19.56027 -0.001017609 0)
(19.56043 -0.001022637 0)
(19.56059 -0.001027128 0)
(19.56076 -0.001031101 0)
(19.56092 -0.001034573 0)
(19.56108 -0.001037556 0)
(19.56124 -0.001040062 0)
(19.5614 -0.001042101 0)
(19.56157 -0.00104368 0)
(19.56173 -0.001044803 0)
(19.56189 -0.001045473 0)
(19.56206 -0.001045691 0)
(19.56222 -0.001045455 0)
(19.56238 -0.00104476 0)
(19.56255 -0.001043601 0)
(19.56271 -0.001041968 0)
(19.56287 -0.00103985 0)
(19.56304 -0.001037234 0)
(19.5632 -0.001034105 0)
(19.56336 -0.001030445 0)
(19.56352 -0.001026233 0)
(19.56368 -0.001021447 0)
(19.56384 -0.001016061 0)
(19.564 -0.00101005 0)
(19.56416 -0.001003382 0)
(19.56431 -0.0009960277 0)
(19.56447 -0.0009879519 0)
(19.56462 -0.0009791189 0)
(19.56477 -0.000969491 0)
(19.56493 -0.0009590282 0)
(19.56508 -0.0009476893 0)
(19.56522 -0.0009354314 0)
(19.56537 -0.0009222105 0)
(19.56551 -0.0009079816 0)
(19.56566 -0.0008926992 0)
(19.5658 -0.0008763178 0)
(19.56593 -0.000858792 0)
(19.56607 -0.0008400776 0)
(19.5662 -0.0008201316 0)
(19.56633 -0.0007989134 0)
(19.56645 -0.0007763851 0)
(19.56657 -0.0007525128 0)
(19.56669 -0.0007272668 0)
(19.5668 -0.0007006232 0)
(19.56691 -0.0006725643 0)
(19.56702 -0.0006430799 0)
(19.56712 -0.0006121682 0)
(19.56721 -0.0005798365 0)
(19.5673 -0.0005461025 0)
(19.56739 -0.0005109945 0)
(19.56747 -0.0004745529 0)
(19.56754 -0.0004368299 0)
(19.56761 -0.0003978904 0)
(19.56767 -0.0003578119 0)
(19.56772 -0.0003166844 0)
(19.56777 -0.0002746097 0)
(19.56781 -0.0002317011 0)
(19.56784 -0.000188081 0)
(19.56787 -0.0001438828 0)
(19.56789 -9.92359e-05 0)
(19.5679 -5.433247e-05 0)
(28.24685 -0.0002050054 0)
(21.40024 -0.0002953279 0)
(18.63911 -0.0003437728 0)
(19.37333 -0.0003912608 0)
(19.65286 -0.0004335732 0)
(19.57427 -0.0004702395 0)
(19.54605 -0.0005039882 0)
(19.5545 -0.0005365655 0)
(19.55742 -0.0005686154 0)
(19.55659 -0.0006003628 0)
(19.55638 -0.0006318894 0)
(19.55655 -0.0006631623 0)
(19.55667 -0.0006940697 0)
(19.55676 -0.000724472 0)
(19.55685 -0.0007542299 0)
(19.55696 -0.0007832162 0)
(19.55707 -0.0008113209 0)
(19.55718 -0.0008384548 0)
(19.5573 -0.0008645488 0)
(19.55742 -0.0008895529 0)
(19.55754 -0.0009134343 0)
(19.55767 -0.0009361749 0)
(19.5578 -0.0009577693 0)
(19.55793 -0.0009782224 0)
(19.55807 -0.000997548 0)
(19.55821 -0.001015767 0)
(19.55835 -0.001032904 0)
(19.55849 -0.00104899 0)
(19.55864 -0.001064058 0)
(19.55878 -0.001078142 0)
(19.55893 -0.001091279 0)
(19.55908 -0.001103504 0)
(19.55923 -0.001114854 0)
(19.55939 -0.001125364 0)
(19.55954 -0.00113507 0)
(19.5597 -0.001144004 0)
(19.55985 -0.001152198 0)
(19.56001 -0.001159683 0)
(19.56017 -0.001166485 0)
(19.56033 -0.001172632 0)
(19.56049 -0.001178147 0)
(19.56065 -0.001183051 0)
(19.56081 -0.001187364 0)
(19.56097 -0.001191102 0)
(19.56114 -0.001194281 0)
(19.5613 -0.001196911 0)
(19.56146 -0.001199003 0)
(19.56163 -0.001200564 0)
(19.56179 -0.001201599 0)
(19.56195 -0.001202109 0)
(19.56212 -0.001202095 0)
(19.56228 -0.001201554 0)
(19.56244 -0.00120048 0)
(19.56261 -0.001198865 0)
(19.56277 -0.0011967 0)
(19.56294 -0.001193971 0)
(19.5631 -0.001190662 0)
(19.56326 -0.001186756 0)
(19.56342 -0.001182231 0)
(19.56358 -0.001177064 0)
(19.56374 -0.001171229 0)
(19.5639 -0.001164698 0)
(19.56406 -0.001157437 0)
(19.56422 -0.001149414 0)
(19.56438 -0.001140592 0)
(19.56454 -0.001130931 0)
(19.56469 -0.00112039 0)
(19.56484 -0.001108924 0)
(19.565 -0.001096489 0)
(19.56515 -0.001083035 0)
(19.5653 -0.001068512 0)
(19.56544 -0.001052869 0)
(19.56559 -0.001036053 0)
(19.56573 -0.001018011 0)
(19.56587 -0.0009986895 0)
(19.56601 -0.0009780346 0)
(19.56614 -0.0009559938 0)
(19.56628 -0.0009325161 0)
(19.56641 -0.0009075528 0)
(19.56653 -0.0008810584 0)
(19.56666 -0.0008529918 0)
(19.56677 -0.0008233166 0)
(19.56689 -0.000792003 0)
(19.567 -0.0007590285 0)
(19.56711 -0.0007243791 0)
(19.56721 -0.0006880506 0)
(19.56731 -0.0006500494 0)
(19.5674 -0.0006103941 0)
(19.56748 -0.0005691161 0)
(19.56756 -0.0005262608 0)
(19.56764 -0.0004818878 0)
(19.56771 -0.0004360718 0)
(19.56777 -0.0003889027 0)
(19.56782 -0.0003404852 0)
(19.56787 -0.0002909387 0)
(19.56791 -0.0002403964 0)
(19.56795 -0.0001890028 0)
(19.56797 -0.0001369169 0)
(19.56799 -8.429309e-05 0)
(19.56801 -3.136292e-05 0)
(28.24678 -0.0001718449 0)
(21.40023 -0.0002677682 0)
(18.63912 -0.0003256078 0)
(19.37334 -0.0003802299 0)
(19.65288 -0.0004307617 0)
(19.57429 -0.0004766708 0)
(19.54608 -0.0005198351 0)
(19.55453 -0.0005617009 0)
(19.55744 -0.0006028592 0)
(19.55661 -0.0006434694 0)
(19.5564 -0.0006835391 0)
(19.55658 -0.0007229862 0)
(19.55669 -0.0007616703 0)
(19.55678 -0.0007994354 0)
(19.55688 -0.0008361352 0)
(19.55698 -0.0008716442 0)
(19.55709 -0.0009058606 0)
(19.5572 -0.0009387078 0)
(19.55732 -0.0009701329 0)
(19.55744 -0.001000104 0)
(19.55757 -0.001028607 0)
(19.5577 -0.001055644 0)
(19.55783 -0.001081229 0)
(19.55796 -0.001105387 0)
(19.5581 -0.001128149 0)
(19.55824 -0.001149556 0)
(19.55838 -0.001169649 0)
(19.55853 -0.001188476 0)
(19.55867 -0.001206084 0)
(19.55882 -0.001222522 0)
(19.55897 -0.001237841 0)
(19.55912 -0.001252088 0)
(19.55928 -0.001265312 0)
(19.55943 -0.00127756 0)
(19.55958 -0.001288876 0)
(19.55974 -0.001299302 0)
(19.5599 -0.00130888 0)
(19.56006 -0.001317645 0)
(19.56022 -0.001325635 0)
(19.56038 -0.00133288 0)
(19.56054 -0.001339412 0)
(19.5607 -0.001345255 0)
(19.56086 -0.001350435 0)
(19.56103 -0.001354972 0)
(19.56119 -0.001358884 0)
(19.56135 -0.001362187 0)
(19.56152 -0.001364892 0)
(19.56168 -0.001367008 0)
(19.56184 -0.001368543 0)
(19.56201 -0.001369499 0)
(19.56217 -0.001369877 0)
(19.56234 -0.001369674 0)
(19.5625 -0.001368886 0)
(19.56267 -0.001367502 0)
(19.56283 -0.001365513 0)
(19.56299 -0.001362904 0)
(19.56316 -0.001359658 0)
(19.56332 -0.001355753 0)
(19.56348 -0.001351167 0)
(19.56364 -0.001345872 0)
(19.56381 -0.00133984 0)
(19.56397 -0.001333038 0)
(19.56413 -0.001325429 0)
(19.56429 -0.001316975 0)
(19.56444 -0.001307634 0)
(19.5646 -0.001297361 0)
(19.56476 -0.001286109 0)
(19.56491 -0.001273826 0)
(19.56507 -0.001260459 0)
(19.56522 -0.001245954 0)
(19.56537 -0.001230252 0)
(19.56552 -0.001213293 0)
(19.56566 -0.001195017 0)
(19.56581 -0.00117536 0)
(19.56595 -0.001154262 0)
(19.56609 -0.001131657 0)
(19.56623 -0.001107486 0)
(19.56636 -0.001081686 0)
(19.56649 -0.001054201 0)
(19.56662 -0.001024975 0)
(19.56674 -0.0009939591 0)
(19.56686 -0.0009611082 0)
(19.56698 -0.0009263851 0)
(19.56709 -0.0008897606 0)
(19.5672 -0.0008512156 0)
(19.56731 -0.0008107415 0)
(19.5674 -0.0007683427 0)
(19.5675 -0.0007240371 0)
(19.56758 -0.0006778578 0)
(19.56767 -0.000629854 0)
(19.56774 -0.0005800919 0)
(19.56781 -0.0005286554 0)
(19.56788 -0.0004756463 0)
(19.56793 -0.0004211842 0)
(19.56798 -0.0003654062 0)
(19.56802 -0.0003084658 0)
(19.56806 -0.0002505306 0)
(19.56809 -0.0001917852 0)
(19.56811 -0.0001324098 0)
(19.56812 -7.267428e-05 0)
(28.24671 -0.0001592386 0)
(21.40019 -0.0002649693 0)
(18.6391 -0.0003351534 0)
(19.37333 -0.0004021372 0)
(19.65287 -0.0004661553 0)
(19.57428 -0.0005255166 0)
(19.54607 -0.0005811059 0)
(19.55452 -0.0006340468 0)
(19.55744 -0.0006849092 0)
(19.55661 -0.0007339408 0)
(19.5564 -0.0007812903 0)
(19.55658 -0.0008270397 0)
(19.5567 -0.0008712092 0)
(19.55679 -0.0009137851 0)
(19.55688 -0.000954741 0)
(19.55699 -0.0009940488 0)
(19.5571 -0.001031685 0)
(19.55722 -0.001067633 0)
(19.55734 -0.001101889 0)
(19.55746 -0.001134457 0)
(19.55759 -0.001165352 0)
(19.55772 -0.001194598 0)
(19.55785 -0.001222226 0)
(19.55799 -0.001248275 0)
(19.55813 -0.00127279 0)
(19.55827 -0.001295817 0)
(19.55841 -0.001317407 0)
(19.55856 -0.001337615 0)
(19.5587 -0.001356492 0)
(19.55885 -0.001374095 0)
(19.559 -0.001390477 0)
(19.55916 -0.00140569 0)
(19.55931 -0.001419787 0)
(19.55947 -0.001432818 0)
(19.55962 -0.00144483 0)
(19.55978 -0.001455869 0)
(19.55994 -0.001465977 0)
(19.5601 -0.001475196 0)
(19.56026 -0.001483561 0)
(19.56042 -0.001491108 0)
(19.56058 -0.001497867 0)
(19.56074 -0.001503867 0)
(19.56091 -0.001509132 0)
(19.56107 -0.001513686 0)
(19.56123 -0.001517547 0)
(19.5614 -0.00152073 0)
(19.56156 -0.001523248 0)
(19.56173 -0.001525111 0)
(19.56189 -0.001526324 0)
(19.56205 -0.001526892 0)
(19.56222 -0.001526813 0)
(19.56238 -0.001526085 0)
(19.56255 -0.001524701 0)
(19.56271 -0.001522652 0)
(19.56288 -0.001519925 0)
(19.56304 -0.001516503 0)
(19.56321 -0.001512366 0)
(19.56337 -0.001507493 0)
(19.56353 -0.001501857 0)
(19.5637 -0.001495428 0)
(19.56386 -0.001488173 0)
(19.56402 -0.001480056 0)
(19.56418 -0.001471036 0)
(19.56434 -0.00146107 0)
(19.5645 -0.001450111 0)
(19.56466 -0.00143811 0)
(19.56482 -0.001425012 0)
(19.56497 -0.00141076 0)
(19.56513 -0.001395295 0)
(19.56528 -0.001378554 0)
(19.56543 -0.001360471 0)
(19.56558 -0.001340979 0)
(19.56573 -0.001320009 0)
(19.56587 -0.001297488 0)
(19.56602 -0.001273346 0)
(19.56616 -0.001247511 0)
(19.5663 -0.001219909 0)
(19.56643 -0.001190473 0)
(19.56657 -0.001159133 0)
(19.56669 -0.001125825 0)
(19.56682 -0.001090491 0)
(19.56694 -0.001053076 0)
(19.56706 -0.001013536 0)
(19.56718 -0.0009718338 0)
(19.56729 -0.0009279435 0)
(19.56739 -0.0008818523 0)
(19.56749 -0.0008335611 0)
(19.56759 -0.0007830868 0)
(19.56768 -0.0007304635 0)
(19.56776 -0.000675744 0)
(19.56784 -0.0006190009 0)
(19.56791 -0.0005603275 0)
(19.56798 -0.0004998381 0)
(19.56803 -0.0004376684 0)
(19.56808 -0.0003739744 0)
(19.56813 -0.0003089322 0)
(19.56816 -0.0002427348 0)
(19.56819 -0.0001755956 0)
(19.56821 -0.0001077237 0)
(19.56823 -3.943295e-05 0)
(28.24664 -0.0001528563 0)
(21.40015 -0.0002648412 0)
(18.63908 -0.0003418055 0)
(19.37331 -0.0004153481 0)
(19.65286 -0.0004868608 0)
(19.57428 -0.0005540493 0)
(19.54606 -0.0006173342 0)
(19.55452 -0.0006777429 0)
(19.55744 -0.0007358248 0)
(19.55661 -0.000791815 0)
(19.5564 -0.0008458598 0)
(19.55658 -0.0008980432 0)
(19.5567 -0.000948387 0)
(19.55679 -0.0009968769 0)
(19.55689 -0.001043485 0)
(19.557 -0.00108818 0)
(19.55711 -0.00113094 0)
(19.55723 -0.001171748 0)
(19.55735 -0.001210603 0)
(19.55748 -0.001247514 0)
(19.55761 -0.001282501 0)
(19.55774 -0.001315597 0)
(19.55787 -0.001346843 0)
(19.55801 -0.001376287 0)
(19.55815 -0.001403984 0)
(19.55829 -0.001429993 0)
(19.55844 -0.001454376 0)
(19.55858 -0.001477197 0)
(19.55873 -0.001498523 0)
(19.55888 -0.001518418 0)
(19.55904 -0.001536946 0)
(19.55919 -0.001554172 0)
(19.55934 -0.001570156 0)
(19.5595 -0.001584957 0)
(19.55966 -0.001598632 0)
(19.55982 -0.001611234 0)
(19.55998 -0.001622814 0)
(19.56014 -0.001633417 0)
(19.5603 -0.001643089 0)
(19.56046 -0.001651868 0)
(19.56062 -0.001659791 0)
(19.56078 -0.001666891 0)
(19.56095 -0.001673196 0)
(19.56111 -0.001678734 0)
(19.56128 -0.001683525 0)
(19.56144 -0.001687587 0)
(19.56161 -0.001690937 0)
(19.56177 -0.001693583 0)
(19.56194 -0.001695535 0)
(19.5621 -0.001696796 0)
(19.56227 -0.001697366 0)
(19.56243 -0.001697243 0)
(19.5626 -0.001696419 0)
(19.56277 -0.001694883 0)
(19.56293 -0.001692622 0)
(19.5631 -0.001689618 0)
(19.56326 -0.001685849 0)
(19.56343 -0.00168129 0)
(19.56359 -0.001675912 0)
(19.56375 -0.001669682 0)
(19.56392 -0.001662563 0)
(19.56408 -0.001654514 0)
(19.56424 -0.001645491 0)
(19.5644 -0.001635445 0)
(19.56456 -0.001624324 0)
(19.56472 -0.001612072 0)
(19.56488 -0.001598628 0)
(19.56504 -0.001583928 0)
(19.56519 -0.001567905 0)
(19.56535 -0.001550488 0)
(19.5655 -0.001531604 0)
(19.56565 -0.001511175 0)
(19.5658 -0.001489122 0)
(19.56595 -0.001465365 0)
(19.56609 -0.00143982 0)
(19.56624 -0.001412405 0)
(19.56638 -0.001383037 0)
(19.56652 -0.001351635 0)
(19.56665 -0.001318118 0)
(19.56678 -0.001282413 0)
(19.56691 -0.001244446 0)
(19.56704 -0.001204156 0)
(19.56716 -0.001161484 0)
(19.56727 -0.001116386 0)
(19.56739 -0.001068827 0)
(19.56749 -0.001018787 0)
(19.5676 -0.0009662623 0)
(19.56769 -0.0009112653 0)
(19.56779 -0.0008538299 0)
(19.56787 -0.0007940109 0)
(19.56795 -0.0007318859 0)
(19.56803 -0.0006675567 0)
(19.56809 -0.0006011499 0)
(19.56815 -0.0005328168 0)
(19.5682 -0.0004627332 0)
(19.56825 -0.0003910988 0)
(19.56829 -0.0003181335 0)
(19.56832 -0.0002440817 0)