/*--------------------------------*- C++ -*----------------------------------*\
| =========                 |                                                 |
| \\      /  F ield         | OpenFOAM: The Open Source CFD Toolbox           |
|  \\    /   O peration     | Version:  2.3.0                                 |
|   \\  /    A nd           | Web:      www.OpenFOAM.org                      |
|    \\/     M anipulation  |                                                 |
\*---------------------------------------------------------------------------*/
FoamFile
{
    version     2.0;
    format      ascii;
    class       surfaceScalarField;
    location    "10000/topAir";
    object      phi;
}
// * * * * * * * * * * * * * * * * * * * * * * * * * * * * * * * * * * * * * //

dimensions      [1 0 -1 0 0 0 0];

internalField   nonuniform List<scalar> 
7860
(
0.009014345
4.283016e-06
0.009010542
3.805638e-06
0.009007531
3.0135e-06
0.009004446
3.086459e-06
0.009001228
3.219675e-06
0.00899797
3.258768e-06
0.008994687
3.284026e-06
0.008991374
3.312802e-06
0.008988037
3.337204e-06
0.00898468
3.356403e-06
0.008981308
3.372165e-06
0.008977923
3.385329e-06
0.008974526
3.396306e-06
0.00897112
3.40549e-06
0.008967707
3.413214e-06
0.008964287
3.419733e-06
0.008960862
3.425247e-06
0.008957431
3.429916e-06
0.008953997
3.43387e-06
0.00895056
3.437213e-06
0.00894712
3.440031e-06
0.008943677
3.442396e-06
0.008940233
3.444367e-06
0.008936786
3.445992e-06
0.008933339
3.447315e-06
0.00892989
3.44837e-06
0.008926441
3.449187e-06
0.008922991
3.449793e-06
0.008919541
3.45021e-06
0.00891609
3.450458e-06
0.008912639
3.450553e-06
0.008909189
3.450509e-06
0.008905738
3.450341e-06
0.008902288
3.450059e-06
0.008898838
3.449672e-06
0.008895389
3.449191e-06
0.00889194
3.448621e-06
0.008888492
3.447971e-06
0.008885045
3.447246e-06
0.008881599
3.446451e-06
0.008878153
3.44559e-06
0.008874708
3.444668e-06
0.008871264
3.443688e-06
0.008867822
3.442653e-06
0.00886438
3.441564e-06
0.00886094
3.440425e-06
0.0088575
3.439237e-06
0.008854062
3.438001e-06
0.008850625
3.436717e-06
0.00884719
3.435387e-06
0.008843756
3.43401e-06
0.008840323
3.432587e-06
0.008836892
3.431116e-06
0.008833462
3.429596e-06
0.008830034
3.428027e-06
0.008826608
3.426407e-06
0.008823183
3.424733e-06
0.00881976
3.423003e-06
0.008816339
3.421214e-06
0.00881292
3.419362e-06
0.008809502
3.417443e-06
0.008806087
3.415454e-06
0.008802673
3.413387e-06
0.008799262
3.411238e-06
0.008795853
3.408999e-06
0.008792446
3.406662e-06
0.008789042
3.404219e-06
0.00878564
3.40166e-06
0.008782241
3.398972e-06
0.008778845
3.396142e-06
0.008775452
3.393157e-06
0.008772062
3.389997e-06
0.008768675
3.386644e-06
0.008765292
3.383075e-06
0.008761913
3.379262e-06
0.008758538
3.375175e-06
0.008755167
3.370778e-06
0.008751801
3.366028e-06
0.00874844
3.360873e-06
0.008745085
3.355254e-06
0.008741735
3.349098e-06
0.008738393
3.342314e-06
0.008735058
3.334794e-06
0.008731732
3.326402e-06
0.008728415
3.316966e-06
0.008725109
3.306267e-06
0.008721815
3.294022e-06
0.008718535
3.279853e-06
0.008715271
3.26325e-06
0.008712028
3.243502e-06
0.008708808
3.219586e-06
0.008705618
3.189979e-06
0.008702466
3.152304e-06
0.008699363
3.102648e-06
0.008696329
3.034276e-06
0.008693394
2.934483e-06
0.008690614
2.779994e-06
0.008688099
2.515316e-06
0.008686041
2.058543e-06
1.037219e-06
0.009023259
5.908531e-07
0.00902466
2.407084e-06
0.009025086
2.590157e-06
0.009025529
2.644918e-06
0.009025944
2.807098e-06
0.009026281
2.922659e-06
0.009026566
2.999452e-06
0.009026816
3.062518e-06
0.009027038
3.114717e-06
0.009027238
3.157045e-06
0.009027418
3.191989e-06
0.009027582
3.221368e-06
0.009027731
3.246321e-06
0.009027869
3.267703e-06
0.009027996
3.28619e-06
0.009028113
3.302299e-06
0.009028222
3.316433e-06
0.009028322
3.328908e-06
0.009028416
3.33998e-06
0.009028503
3.349855e-06
0.009028584
3.3587e-06
0.00902866
3.366654e-06
0.00902873
3.373833e-06
0.009028796
3.380333e-06
0.009028857
3.386235e-06
0.009028913
3.391609e-06
0.009028966
3.396514e-06
0.009029014
3.401001e-06
0.009029059
3.405114e-06
0.009029101
3.40889e-06
0.009029139
3.412363e-06
0.009029174
3.415561e-06
0.009029205
3.41851e-06
0.009029234
3.421232e-06
0.00902926
3.423746e-06
0.009029283
3.426068e-06
0.009029303
3.428216e-06
0.009029321
3.4302e-06
0.009029336
3.432033e-06
0.009029349
3.433726e-06
0.009029359
3.435286e-06
0.009029367
3.436722e-06
0.009029372
3.43804e-06
0.009029376
3.439247e-06
0.009029377
3.440345e-06
0.009029376
3.441341e-06
0.009029373
3.442236e-06
0.009029368
3.443033e-06
0.009029361
3.443734e-06
0.009029352
3.444339e-06
0.009029341
3.444849e-06
0.009029328
3.445263e-06
0.009029313
3.44558e-06
0.009029297
3.445798e-06
0.009029279
3.445915e-06
0.00902926
3.445927e-06
0.009029239
3.44583e-06
0.009029216
3.445618e-06
0.009029192
3.445286e-06
0.009029166
3.444827e-06
0.009029139
3.444232e-06
0.009029111
3.443493e-06
0.009029082
3.442598e-06
0.009029052
3.441536e-06
0.009029021
3.440292e-06
0.009028988
3.438852e-06
0.009028955
3.437197e-06
0.009028922
3.435307e-06
0.009028887
3.43316e-06
0.009028853
3.430728e-06
0.009028818
3.427983e-06
0.009028783
3.42489e-06
0.009028748
3.42141e-06
0.009028714
3.417496e-06
0.00902868
3.413098e-06
0.009028647
3.408153e-06
0.009028615
3.40259e-06
0.009028585
3.396325e-06
0.009028556
3.389258e-06
0.00902853
3.381269e-06
0.009028507
3.372216e-06
0.009028488
3.361924e-06
0.009028472
3.35018e-06
0.009028462
3.336721e-06
0.009028458
3.321215e-06
0.009028461
3.303243e-06
0.009028472
3.282262e-06
0.009028495
3.257562e-06
0.00902853
3.228195e-06
0.00902858
3.192865e-06
0.00902865
3.149767e-06
0.009028744
3.096315e-06
0.009028867
3.028709e-06
0.009029029
2.941198e-06
0.009029238
2.824869e-06
0.009029507
2.665332e-06
0.009029847
2.43968e-06
0.009030256
2.106903e-06
0.009030705
1.609751e-06
8.015311e-07
0.00902068
8.709713e-07
0.009021408
1.681103e-06
0.009021963
2.037914e-06
0.009022376
2.233899e-06
0.009022746
2.438255e-06
0.009023073
2.597375e-06
0.009023362
2.710887e-06
0.009023624
2.800648e-06
0.009023864
2.874366e-06
0.009024086
2.934844e-06
0.009024293
2.985064e-06
0.009024487
3.027408e-06
0.009024669
3.063489e-06
0.009024842
3.094499e-06
0.009025007
3.121361e-06
0.009025164
3.144797e-06
0.009025315
3.16537e-06
0.00902546
3.18353e-06
0.0090256
3.19964e-06
0.009025736
3.213994e-06
0.009025867
3.226835e-06
0.009025996
3.238364e-06
0.00902612
3.248748e-06
0.009026242
3.258129e-06
0.009026362
3.266627e-06
0.009026479
3.274343e-06
0.009026594
3.281364e-06
0.009026707
3.287765e-06
0.009026818
3.293612e-06
0.009026928
3.29896e-06
0.009027037
3.303859e-06
0.009027144
3.308351e-06
0.00902725
3.312474e-06
0.009027355
3.31626e-06
0.009027458
3.319739e-06
0.009027561
3.322936e-06
0.009027664
3.325874e-06
0.009027765
3.328571e-06
0.009027866
3.331046e-06
0.009027966
3.333314e-06
0.009028066
3.335388e-06
0.009028166
3.337279e-06
0.009028265
3.338997e-06
0.009028363
3.340551e-06
0.009028462
3.341949e-06
0.00902856
3.343195e-06
0.009028658
3.344294e-06
0.009028755
3.345251e-06
0.009028853
3.346067e-06
0.00902895
3.346745e-06
0.009029048
3.347283e-06
0.009029145
3.347683e-06
0.009029243
3.347942e-06
0.009029341
3.348057e-06
0.009029439
3.348024e-06
0.009029537
3.34784e-06
0.009029635
3.347496e-06
0.009029734
3.346987e-06
0.009029833
3.346303e-06
0.009029932
3.345433e-06
0.009030032
3.344367e-06
0.009030132
3.343091e-06
0.009030233
3.341588e-06
0.009030335
3.339842e-06
0.009030437
3.337832e-06
0.00903054
3.335536e-06
0.009030645
3.332927e-06
0.00903075
3.329976e-06
0.009030856
3.32665e-06
0.009030964
3.32291e-06
0.009031073
3.318714e-06
0.009031184
3.314011e-06
0.009031297
3.308744e-06
0.009031412
3.302849e-06
0.009031528
3.296248e-06
0.009031648
3.288854e-06
0.00903177
3.280564e-06
0.009031895
3.271256e-06
0.009032023
3.260789e-06
0.009032155
3.248991e-06
0.009032292
3.235659e-06
0.009032433
3.220549e-06
0.00903258
3.203359e-06
0.009032733
3.183722e-06
0.009032893
3.161179e-06
0.009033061
3.135154e-06
0.009033239
3.104913e-06
0.009033427
3.069505e-06
0.009033627
3.027687e-06
0.009033842
2.977798e-06
0.009034074
2.917589e-06
0.009034327
2.843954e-06
0.009034603
2.752538e-06
0.009034907
2.637128e-06
0.009035243
2.488787e-06
0.009035614
2.294541e-06
0.009036017
2.03604e-06
0.009036437
1.687486e-06
0.009036827
1.218962e-06
6.04269e-07
0.009021641
5.586384e-07
0.009022013
1.310936e-06
0.009022335
1.718442e-06
0.009022621
1.949211e-06
0.009022904
2.156921e-06
0.009023173
2.329199e-06
0.009023423
2.461724e-06
0.009023655
2.568526e-06
0.009023872
2.6573e-06
0.009024076
2.731369e-06
0.009024267
2.793645e-06
0.009024448
2.846581e-06
0.009024619
2.891972e-06
0.009024782
2.931175e-06
0.009024938
2.965261e-06
0.009025087
2.995079e-06
0.009025231
3.021308e-06
0.00902537
3.044492e-06
0.009025504
3.065077e-06
0.009025635
3.083427e-06
0.009025762
3.099843e-06
0.009025885
3.114579e-06
0.009026006
3.127845e-06
0.009026124
3.139819e-06
0.00902624
3.150654e-06
0.009026353
3.160479e-06
0.009026465
3.169404e-06
0.009026575
3.177528e-06
0.009026684
3.184931e-06
0.009026791
3.191688e-06
0.009026897
3.197861e-06
0.009027002
3.203505e-06
0.009027105
3.208668e-06
0.009027208
3.213394e-06
0.00902731
3.217719e-06
0.009027411
3.221677e-06
0.009027512
3.225297e-06
0.009027611
3.228604e-06
0.009027711
3.231621e-06
0.00902781
3.234367e-06
0.009027908
3.23686e-06
0.009028006
3.239114e-06
0.009028104
3.241144e-06
0.009028202
3.242959e-06
0.009028299
3.244569e-06
0.009028396
3.245982e-06
0.009028493
3.247204e-06
0.00902859
3.248239e-06
0.009028687
3.249091e-06
0.009028784
3.249762e-06
0.009028881
3.250252e-06
0.009028978
3.25056e-06
0.009029075
3.250684e-06
0.009029173
3.25062e-06
0.00902927
3.250364e-06
0.009029368
3.249909e-06
0.009029466
3.249247e-06
0.009029565
3.248367e-06
0.009029664
3.24726e-06
0.009029763
3.245911e-06
0.009029863
3.244305e-06
0.009029964
3.242424e-06
0.009030065
3.240248e-06
0.009030167
3.237754e-06
0.00903027
3.234916e-06
0.009030374
3.231704e-06
0.009030479
3.228085e-06
0.009030585
3.22402e-06
0.009030692
3.219466e-06
0.0090308
3.214374e-06
0.00903091
3.208688e-06
0.009031022
3.202344e-06
0.009031136
3.195268e-06
0.009031251
3.187377e-06
0.009031369
3.178573e-06
0.009031489
3.168742e-06
0.009031611
3.157755e-06
0.009031737
3.145458e-06
0.009031866
3.13167e-06
0.009031999
3.116176e-06
0.009032136
3.098724e-06
0.009032278
3.079006e-06
0.009032424
3.056653e-06
0.009032577
3.031214e-06
0.009032736
3.002133e-06
0.009032902
2.968719e-06
0.009033077
2.930106e-06
0.009033261
2.885194e-06
0.009033456
2.832572e-06
0.009033664
2.770407e-06
0.009033885
2.696302e-06
0.009034122
2.607083e-06
0.009034376
2.498523e-06
0.009034648
2.364981e-06
0.009034938
2.198964e-06
0.009035242
1.990672e-06
0.00903555
1.727793e-06
0.009035841
1.396146e-06
0.009036078
9.816911e-07
4.84354e-07
0.009021509
5.927008e-07
0.009021718
1.104364e-06
0.009022001
1.438181e-06
0.009022273
1.678667e-06
0.009022539
1.893154e-06
0.009022793
2.075648e-06
0.009023032
2.222783e-06
0.009023257
2.343925e-06
0.009023469
2.445767e-06
0.009023668
2.531784e-06
0.009023857
2.604844e-06
0.009024036
2.66741e-06
0.009024206
2.721381e-06
0.009024369
2.76823e-06
0.009024525
2.809131e-06
0.009024675
2.845032e-06
0.009024819
2.876696e-06
0.009024959
2.904746e-06
0.009025094
2.929695e-06
0.009025225
2.951964e-06
0.009025353
2.971907e-06
0.009025477
2.98982e-06
0.009025599
3.005952e-06
0.009025718
3.020516e-06
0.009025835
3.033692e-06
0.00902595
3.045636e-06
0.009026062
3.056481e-06
0.009026173
3.066344e-06
0.009026283
3.075325e-06
0.009026391
3.083511e-06
0.009026498
3.09098e-06
0.009026603
3.097799e-06
0.009026708
3.104026e-06
0.009026811
3.109714e-06
0.009026914
3.114909e-06
0.009027016
3.11965e-06
0.009027117
3.123974e-06
0.009027218
3.127912e-06
0.009027318
3.131492e-06
0.009027417
3.134738e-06
0.009027516
3.137671e-06
0.009027615
3.14031e-06
0.009027714
3.14267e-06
0.009027812
3.144766e-06
0.00902791
3.146609e-06
0.009028007
3.148208e-06
0.009028105
3.149571e-06
0.009028202
3.150704e-06
0.0090283
3.151611e-06
0.009028397
3.152294e-06
0.009028495
3.152754e-06
0.009028592
3.152991e-06
0.00902869
3.153e-06
0.009028788
3.152778e-06
0.009028886
3.15232e-06
0.009028984
3.151616e-06
0.009029082
3.150658e-06
0.009029181
3.149433e-06
0.009029281
3.147927e-06
0.00902938
3.146125e-06
0.009029481
3.144007e-06
0.009029581
3.141552e-06
0.009029683
3.138735e-06
0.009029785
3.135529e-06
0.009029888
3.1319e-06
0.009029992
3.127815e-06
0.009030097
3.123231e-06
0.009030203
3.118103e-06
0.00903031
3.112378e-06
0.009030418
3.105997e-06
0.009030528
3.098892e-06
0.009030639
3.090987e-06
0.009030752
3.082193e-06
0.009030867
3.07241e-06
0.009030984
3.061521e-06
0.009031104
3.049392e-06
0.009031225
3.035869e-06
0.00903135
3.02077e-06
0.009031478
3.003883e-06
0.009031609
2.984958e-06
0.009031744
2.963701e-06
0.009031883
2.93976e-06
0.009032027
2.912711e-06
0.009032176
2.882045e-06
0.009032331
2.847142e-06
0.009032493
2.80724e-06
0.009032661
2.761402e-06
0.009032838
2.708457e-06
0.009033024
2.646941e-06
0.009033219
2.575003e-06
0.009033425
2.490302e-06
0.009033642
2.389859e-06
0.009033871
2.269898e-06
0.00903411
2.12567e-06
0.009034358
1.95131e-06
0.009034609
1.739857e-06
0.009034853
1.483582e-06
0.009035074
1.175467e-06
0.009035245
8.105361e-07
3.980213e-07
0.009021915
4.352895e-07
0.009022106
9.155284e-07
0.009022314
1.232345e-06
0.009022525
1.470136e-06
0.009022736
1.683742e-06
0.009022944
1.86821e-06
0.009023146
2.021224e-06
0.00902334
2.149728e-06
0.009023527
2.259205e-06
0.009023706
2.352842e-06
0.009023877
2.433269e-06
0.009024042
2.502775e-06
0.0090242
2.563186e-06
0.009024352
2.615958e-06
0.009024498
2.662277e-06
0.00902464
2.703111e-06
0.009024777
2.739259e-06
0.00902491
2.771377e-06
0.00902504
2.800014e-06
0.009025166
2.825628e-06
0.009025289
2.848602e-06
0.009025409
2.869264e-06
0.009025527
2.88789e-06
0.009025643
2.904716e-06
0.009025756
2.919946e-06
0.009025868
2.933755e-06
0.009025978
2.946294e-06
0.009026087
2.957695e-06
0.009026194
2.968073e-06
0.0090263
2.977527e-06
0.009026404
2.986147e-06
0.009026508
2.994009e-06
0.009026611
3.001181e-06
0.009026713
3.007723e-06
0.009026814
3.013689e-06
0.009026914
3.019125e-06
0.009027014
3.024072e-06
0.009027113
3.028568e-06
0.009027212
3.032643e-06
0.00902731
3.036327e-06
0.009027408
3.039644e-06
0.009027506
3.042615e-06
0.009027603
3.04526e-06
0.0090277
3.047594e-06
0.009027797
3.049631e-06
0.009027894
3.051382e-06
0.009027991
3.052855e-06
0.009028087
3.054057e-06
0.009028184
3.054994e-06
0.00902828
3.055667e-06
0.009028377
3.056078e-06
0.009028474
3.056225e-06
0.009028571
3.056106e-06
0.009028668
3.055715e-06
0.009028765
3.055045e-06
0.009028862
3.054087e-06
0.00902896
3.05283e-06
0.009029058
3.051258e-06
0.009029157
3.049358e-06
0.009029256
3.047108e-06
0.009029355
3.044488e-06
0.009029455
3.041471e-06
0.009029556
3.03803e-06
0.009029657
3.034132e-06
0.009029759
3.02974e-06
0.009029862
3.024812e-06
0.009029966
3.0193e-06
0.009030071
3.013152e-06
0.009030177
3.006307e-06
0.009030285
2.998696e-06
0.009030393
2.990242e-06
0.009030503
2.980856e-06
0.009030615
2.970437e-06
0.009030729
2.958871e-06
0.009030844
2.946025e-06
0.009030962
2.931748e-06
0.009031082
2.915864e-06
0.009031204
2.898171e-06
0.00903133
2.878431e-06
0.009031458
2.856368e-06
0.00903159
2.831656e-06
0.009031726
2.803913e-06
0.009031866
2.77268e-06
0.009032011
2.737412e-06
0.00903216
2.697456e-06
0.009032315
2.652019e-06
0.009032477
2.600144e-06
0.009032645
2.540659e-06
0.009032819
2.472135e-06
0.009033001
2.392819e-06
0.009033191
2.300564e-06
0.009033388
2.192754e-06
0.009033592
2.066228e-06
0.0090338
1.917249e-06
0.00903401
1.741532e-06
0.009034215
1.534471e-06
0.009034407
1.2916e-06
0.009034573
1.009926e-06
0.009034695
6.885259e-07
3.366583e-07
0.009021943
4.286741e-07
0.009022051
8.094227e-07
0.009022207
1.078659e-06
0.009022378
1.301412e-06
0.009022557
1.505477e-06
0.009022742
1.68499e-06
0.009022925
1.838071e-06
0.009023106
1.969538e-06
0.009023281
2.083387e-06
0.009023452
2.182142e-06
0.009023617
2.268002e-06
0.009023777
2.342949e-06
0.009023931
2.408631e-06
0.00902408
2.466411e-06
0.009024225
2.517424e-06
0.009024365
2.562621e-06
0.009024502
2.602799e-06
0.009024634
2.638626e-06
0.009024763
2.670666e-06
0.009024889
2.699396e-06
0.009025012
2.725222e-06
0.009025133
2.748491e-06
0.009025251
2.769498e-06
0.009025367
2.788499e-06
0.009025481
2.805715e-06
0.009025593
2.821336e-06
0.009025704
2.835529e-06
0.009025813
2.848439e-06
0.009025921
2.860193e-06
0.009026027
2.870902e-06
0.009026133
2.880664e-06
0.009026237
2.889566e-06
0.00902634
2.897683e-06
0.009026443
2.905083e-06
0.009026545
2.911827e-06
0.009026646
2.917965e-06
0.009026746
2.923546e-06
0.009026846
2.92861e-06
0.009026945
2.933194e-06
0.009027044
2.93733e-06
0.009027143
2.941045e-06
0.009027241
2.944365e-06
0.009027339
2.947311e-06
0.009027437
2.9499e-06
0.009027534
2.952148e-06
0.009027631
2.954068e-06
0.009027728
2.95567e-06
0.009027825
2.956961e-06
0.009027922
2.957947e-06
0.009028019
2.958632e-06
0.009028116
2.959015e-06
0.009028214
2.959097e-06
0.009028311
2.958873e-06
0.009028408
2.958337e-06
0.009028506
2.957482e-06
0.009028603
2.956297e-06
0.009028701
2.954769e-06
0.0090288
2.952883e-06
0.009028898
2.95062e-06
0.009028997
2.947958e-06
0.009029097
2.944873e-06
0.009029197
2.941336e-06
0.009029298
2.937315e-06
0.009029399
2.932774e-06
0.009029501
2.92767e-06
0.009029604
2.921957e-06
0.009029708
2.915581e-06
0.009029812
2.908483e-06
0.009029918
2.900595e-06
0.009030025
2.891842e-06
0.009030133
2.882135e-06
0.009030242
2.871378e-06
0.009030353
2.859458e-06
0.009030466
2.84625e-06
0.00903058
2.831608e-06
0.009030697
2.815366e-06
0.009030815
2.797334e-06
0.009030936
2.777292e-06
0.009031059
2.754985e-06
0.009031186
2.73012e-06
0.009031315
2.702351e-06
0.009031448
2.671275e-06
0.009031584
2.636418e-06
0.009031724
2.597222e-06
0.009031868
2.553024e-06
0.009032017
2.503037e-06
0.009032171
2.446323e-06
0.00903233
2.381764e-06
0.009032494
2.308023e-06
0.009032663
2.223513e-06
0.009032838
2.126351e-06
0.009033016
2.014334e-06
0.009033197
1.88493e-06
0.009033379
1.735311e-06
0.009033558
1.562474e-06
0.009033729
1.363522e-06
0.009033885
1.136097e-06
0.009034015
8.7942e-07
0.009034109
5.944936e-07
2.895192e-07
0.009022157
3.560459e-07
0.009022263
7.052434e-07
0.009022395
9.495835e-07
0.009022541
1.156827e-06
0.009022697
1.351166e-06
0.009022858
1.525273e-06
0.00902302
1.676748e-06
0.00902318
1.809045e-06
0.009023339
1.925133e-06
0.009023494
2.026991e-06
0.009023645
2.116449e-06
0.009023793
2.195215e-06
0.009023936
2.264758e-06
0.009024076
2.326326e-06
0.009024212
2.380984e-06
0.009024345
2.42964e-06
0.009024475
2.473071e-06
0.009024601
2.511934e-06
0.009024725
2.546795e-06
0.009024846
2.578135e-06
0.009024964
2.60637e-06
0.009025081
2.631855e-06
0.009025195
2.654901e-06
0.009025308
2.675773e-06
0.009025419
2.694704e-06
0.009025528
2.711896e-06
0.009025636
2.727527e-06
0.009025742
2.741753e-06
0.009025848
2.754708e-06
0.009025952
2.766513e-06
0.009026055
2.777275e-06
0.009026157
2.787087e-06
0.009026259
2.796032e-06
0.00902636
2.804183e-06
0.00902646
2.811606e-06
0.009026559
2.818358e-06
0.009026658
2.82449e-06
0.009026757
2.830048e-06
0.009026855
2.835072e-06
0.009026953
2.839597e-06
0.00902705
2.843654e-06
0.009027147
2.84727e-06
0.009027244
2.850469e-06
0.00902734
2.85327e-06
0.009027437
2.855691e-06
0.009027533
2.857745e-06
0.009027629
2.859444e-06
0.009027725
2.860796e-06
0.009027821
2.861807e-06
0.009027917
2.862481e-06
0.009028013
2.862819e-06
0.00902811
2.862819e-06
0.009028206
2.862478e-06
0.009028303
2.861788e-06
0.009028399
2.860742e-06
0.009028496
2.859328e-06
0.009028593
2.857531e-06
0.009028691
2.855334e-06
0.009028789
2.852716e-06
0.009028887
2.849654e-06
0.009028986
2.84612e-06
0.009029085
2.842083e-06
0.009029185
2.837508e-06
0.009029285
2.832353e-06
0.009029386
2.826574e-06
0.009029488
2.820119e-06
0.009029591
2.812929e-06
0.009029694
2.80494e-06
0.009029799
2.796077e-06
0.009029904
2.786258e-06
0.009030011
2.775389e-06
0.009030119
2.763365e-06
0.009030228
2.750064e-06
0.009030339
2.735351e-06
0.009030452
2.719072e-06
0.009030566
2.70105e-06
0.009030682
2.681084e-06
0.0090308
2.658943e-06
0.009030921
2.634362e-06
0.009031044
2.607035e-06
0.00903117
2.576609e-06
0.009031298
2.542674e-06
0.00903143
2.504754e-06
0.009031565
2.462293e-06
0.009031703
2.414644e-06
0.009031845
2.36105e-06
0.009031991
2.300623e-06
0.00903214
2.232331e-06
0.009032293
2.15497e-06
0.00903245
2.06715e-06
0.009032609
1.967278e-06
0.00903277
1.853566e-06
0.00903293
1.724055e-06
0.009033089
1.576692e-06
0.009033242
1.409469e-06
0.009033385
1.220684e-06
0.009033512
1.009292e-06
0.009033615
7.756155e-07
0.009033689
5.213193e-07
2.529622e-07
0.009022239
3.346883e-07
0.009022312
6.344866e-07
0.009022413
8.503122e-07
0.009022531
1.041834e-06
0.009022659
1.224143e-06
0.009022796
1.389635e-06
0.009022937
1.536053e-06
0.00902308
1.665924e-06
0.009023224
1.781384e-06
0.009023367
1.883884e-06
0.009023508
1.974857e-06
0.009023648
2.055699e-06
0.009023785
2.127654e-06
0.009023919
2.191808e-06
0.009024051
2.249114e-06
0.00902418
2.300404e-06
0.009024306
2.346401e-06
0.00902443
2.38773e-06
0.009024552
2.424935e-06
0.009024671
2.458487e-06
0.009024788
2.488797e-06
0.009024904
2.516222e-06
0.009025017
2.541071e-06
0.009025129
2.563618e-06
0.00902524
2.5841e-06
0.009025349
2.602725e-06
0.009025457
2.619679e-06
0.009025563
2.635122e-06
0.009025668
2.649197e-06
0.009025773
2.662031e-06
0.009025876
2.673736e-06
0.009025979
2.684412e-06
0.009026081
2.694146e-06
0.009026182
2.703016e-06
0.009026282
2.711094e-06
0.009026382
2.71844e-06
0.009026481
2.725109e-06
0.00902658
2.73115e-06
0.009026678
2.736607e-06
0.009026776
2.741518e-06
0.009026874
2.745916e-06
0.009026971
2.74983e-06
0.009027068
2.753286e-06
0.009027165
2.756305e-06
0.009027262
2.758906e-06
0.009027359
2.761104e-06
0.009027455
2.762912e-06
0.009027551
2.764338e-06
0.009027648
2.76539e-06
0.009027744
2.76607e-06
0.009027841
2.766381e-06
0.009027937
2.766321e-06
0.009028034
2.765885e-06
0.00902813
2.765066e-06
0.009028227
2.763855e-06
0.009028324
2.76224e-06
0.009028421
2.760204e-06
0.009028519
2.757729e-06
0.009028617
2.754793e-06
0.009028715
2.751371e-06
0.009028814
2.747431e-06
0.009028913
2.742941e-06
0.009029013
2.737862e-06
0.009029113
2.732151e-06
0.009029213
2.725758e-06
0.009029315
2.718628e-06
0.009029417
2.710699e-06
0.00902952
2.701901e-06
0.009029624
2.692156e-06
0.009029729
2.681374e-06
0.009029835
2.669457e-06
0.009029942
2.656293e-06
0.00903005
2.641756e-06
0.00903016
2.625702e-06
0.009030271
2.60797e-06
0.009030383
2.588378e-06
0.009030498
2.566717e-06
0.009030614
2.542751e-06
0.009030732
2.51621e-06
0.009030852
2.486784e-06
0.009030975
2.454121e-06
0.0090311
2.417813e-06
0.009031227
2.377396e-06
0.009031357
2.332331e-06
0.00903149
2.282002e-06
0.009031625
2.225699e-06
0.009031763
2.162608e-06
0.009031903
2.0918e-06
0.009032046
2.012218e-06
0.009032191
1.922679e-06
0.009032336
1.821873e-06
0.009032481
1.708387e-06
0.009032624
1.58075e-06
0.009032764
1.437519e-06
0.009032896
1.277411e-06
0.009033017
1.099527e-06
0.009033122
9.035968e-07
0.009033208
6.90475e-07
0.009033267
4.619942e-07
2.234171e-07
0.009022374
2.94669e-07
0.009022442
5.681707e-07
0.009022531
7.639933e-07
0.009022635
9.40268e-07
0.00902275
1.110689e-06
0.009022873
1.267591e-06
0.009023001
1.408494e-06
0.009023132
1.535176e-06
0.009023264
1.649123e-06
0.009023396
1.751341e-06
0.009023528
1.842915e-06
0.009023659
1.924963e-06
0.009023788
1.998522e-06
0.009023915
2.064524e-06
0.00902404
2.123813e-06
0.009024163
2.177138e-06
0.009024284
2.225166e-06
0.009024403
2.268485e-06
0.00902452
2.307611e-06
0.009024635
2.342999e-06
0.009024749
2.375049e-06
0.009024861
2.404112e-06
0.009024971
2.430498e-06
0.00902508
2.454479e-06
0.009025188
2.476296e-06
0.009025294
2.49616e-06
0.009025399
2.514259e-06
0.009025503
2.530761e-06
0.009025607
2.545812e-06
0.009025709
2.559544e-06
0.009025811
2.572073e-06
0.009025911
2.583504e-06
0.009026011
2.593927e-06
0.009026111
2.603427e-06
0.00902621
2.612076e-06
0.009026308
2.61994e-06
0.009026406
2.627077e-06
0.009026504
2.633539e-06
0.009026601
2.639371e-06
0.009026698
2.644614e-06
0.009026794
2.649304e-06
0.009026891
2.653472e-06
0.009026987
2.657144e-06
0.009027082
2.660346e-06
0.009027178
2.663095e-06
0.009027274
2.665409e-06
0.009027369
2.6673e-06
0.009027465
2.668778e-06
0.00902756
2.669851e-06
0.009027656
2.670522e-06
0.009027751
2.670793e-06
0.009027847
2.670662e-06
0.009027943
2.670124e-06
0.009028039
2.669173e-06
0.009028135
2.667798e-06
0.009028231
2.665985e-06
0.009028327
2.663718e-06
0.009028424
2.660976e-06
0.009028521
2.657737e-06
0.009028618
2.653972e-06
0.009028716
2.64965e-06
0.009028814
2.644736e-06
0.009028913
2.639188e-06
0.009029012
2.632959e-06
0.009029112
2.625999e-06
0.009029212
2.618248e-06
0.009029313
2.609642e-06
0.009029415
2.600106e-06
0.009029518
2.589558e-06
0.009029621
2.577906e-06
0.009029725
2.565047e-06
0.009029831
2.550863e-06
0.009029937
2.535225e-06
0.009030045
2.517985e-06
0.009030154
2.498978e-06
0.009030264
2.478019e-06
0.009030376
2.454895e-06
0.009030489
2.429369e-06
0.009030604
2.401173e-06
0.009030721
2.369999e-06
0.00903084
2.335501e-06
0.00903096
2.297285e-06
0.009031083
2.254905e-06
0.009031207
2.207852e-06
0.009031334
2.155551e-06
0.009031462
2.097352e-06
0.009031592
2.032523e-06
0.009031724
1.960247e-06
0.009031856
1.879619e-06
0.009031989
1.789654e-06
0.009032122
1.689298e-06
0.009032253
1.577463e-06
0.00903238
1.453076e-06
0.009032503
1.315161e-06
0.009032617
1.162955e-06
0.009032721
9.960765e-07
0.009032809
8.146986e-07
0.00903288
6.198733e-07
0.009032929
4.133426e-07
1.992645e-07
0.009022461
2.731727e-07
0.009022514
5.169064e-07
0.009022587
6.936095e-07
0.009022673
8.563974e-07
0.00902277
1.015406e-06
0.009022875
1.163245e-06
0.009022986
1.297562e-06
0.009023102
1.419661e-06
0.00902322
1.530579e-06
0.009023341
1.630996e-06
0.009023462
1.721721e-06
0.009023583
1.803637e-06
0.009023704
1.877588e-06
0.009023824
1.94436e-06
0.009023942
2.004677e-06
0.00902406
2.059202e-06
0.009024177
2.108533e-06
0.009024292
2.153206e-06
0.009024405
2.193701e-06
0.009024518
2.230446e-06
0.009024629
2.263819e-06
0.009024738
2.29416e-06
0.009024847
2.321768e-06
0.009024954
2.34691e-06
0.009025061
2.369824e-06
0.009025166
2.39072e-06
0.00902527
2.409786e-06
0.009025374
2.42719e-06
0.009025476
2.443081e-06
0.009025578
2.457593e-06
0.009025679
2.470843e-06
0.00902578
2.482939e-06
0.009025879
2.493975e-06
0.009025979
2.504036e-06
0.009026078
2.513199e-06
0.009026176
2.521532e-06
0.009026274
2.529093e-06
0.009026371
2.535939e-06
0.009026468
2.542116e-06
0.009026565
2.547667e-06
0.009026662
2.552628e-06
0.009026758
2.557034e-06
0.009026854
2.560912e-06
0.00902695
2.564287e-06
0.009027046
2.56718e-06
0.009027142
2.569607e-06
0.009027238
2.571582e-06
0.009027333
2.573116e-06
0.009027429
2.574217e-06
0.009027524
2.574888e-06
0.00902762
2.575131e-06
0.009027716
2.574944e-06
0.009027811
2.574323e-06
0.009027907
2.57326e-06
0.009028003
2.571743e-06
0.009028099
2.569759e-06
0.009028196
2.567289e-06
0.009028293
2.564314e-06
0.009028389
2.560807e-06
0.009028487
2.556741e-06
0.009028584
2.552082e-06
0.009028682
2.546792e-06
0.00902878
2.540828e-06
0.009028879
2.534143e-06
0.009028978
2.526681e-06
0.009029078
2.518383e-06
0.009029179
2.50918e-06
0.00902928
2.498996e-06
0.009029382
2.487745e-06
0.009029484
2.475333e-06
0.009029587
2.461654e-06
0.009029692
2.446588e-06
0.009029797
2.430002e-06
0.009029903
2.411749e-06
0.00903001
2.39166e-06
0.009030119
2.36955e-06
0.009030229
2.345208e-06
0.009030339
2.3184e-06
0.009030452
2.28886e-06
0.009030565
2.256292e-06
0.009030681
2.220361e-06
0.009030797
2.180692e-06
0.009030915
2.136864e-06
0.009031035
2.088405e-06
0.009031155
2.034789e-06
0.009031277
1.975431e-06
0.0090314
1.909685e-06
0.009031523
1.836846e-06
0.009031647
1.756154e-06
0.00903177
1.666802e-06
0.009031891
1.567963e-06
0.00903201
1.458816e-06
0.009032124
1.338602e-06
0.009032233
1.20669e-06
0.009032333
1.062678e-06
0.009032422
9.065083e-07
0.009032498
7.38593e-07
0.009032558
5.60022e-07
0.009032599
3.723718e-07
1.78984e-07
0.00902256
2.471517e-07
0.009022608
4.701689e-07
0.009022673
6.315806e-07
0.00902275
7.816844e-07
0.009022837
9.296778e-07
0.009022932
1.068582e-06
0.009023034
1.196105e-06
0.009023141
1.313191e-06
0.009023251
1.420541e-06
0.009023363
1.518568e-06
0.009023477
1.607842e-06
0.009023592
1.689037e-06
0.009023706
1.762821e-06
0.00902382
1.82984e-06
0.009023934
1.890706e-06
0.009024047
1.945993e-06
0.009024159
1.99623e-06
0.00902427
2.0419e-06
0.00902438
2.083442e-06
0.009024489
2.121252e-06
0.009024597
2.155689e-06
0.009024704
2.187073e-06
0.00902481
2.215693e-06
0.009024915
2.241807e-06
0.009025019
2.265647e-06
0.009025122
2.287422e-06
0.009025224
2.307315e-06
0.009025326
2.325496e-06
0.009025427
2.342112e-06
0.009025527
2.357299e-06
0.009025626
2.371175e-06
0.009025725
2.383851e-06
0.009025824
2.395421e-06
0.009025922
2.405973e-06
0.009026019
2.415585e-06
0.009026116
2.424326e-06
0.009026213
2.432259e-06
0.00902631
2.439439e-06
0.009026406
2.445916e-06
0.009026501
2.451733e-06
0.009026597
2.45693e-06
0.009026693
2.461541e-06
0.009026788
2.465595e-06
0.009026883
2.469117e-06
0.009026978
2.47213e-06
0.009027073
2.47465e-06
0.009027168
2.476693e-06
0.009027262
2.478269e-06
0.009027357
2.479387e-06
0.009027452
2.48005e-06
0.009027547
2.48026e-06
0.009027642
2.480016e-06
0.009027737
2.479312e-06
0.009027832
2.47814e-06
0.009027927
2.476489e-06
0.009028022
2.474344e-06
0.009028118
2.471687e-06
0.009028214
2.468496e-06
0.00902831
2.464745e-06
0.009028406
2.460403e-06
0.009028503
2.455438e-06
0.0090286
2.449809e-06
0.009028697
2.443472e-06
0.009028795
2.436378e-06
0.009028893
2.42847e-06
0.009028991
2.419686e-06
0.009029091
2.409957e-06
0.00902919
2.399204e-06
0.009029291
2.38734e-06
0.009029392
2.37427e-06
0.009029494
2.359884e-06
0.009029596
2.344064e-06
0.009029699
2.326676e-06
0.009029803
2.307571e-06
0.009029909
2.286583e-06
0.009030015
2.263528e-06
0.009030122
2.2382e-06
0.00903023
2.210369e-06
0.009030339
2.17978e-06
0.009030449
2.146148e-06
0.00903056
2.109156e-06
0.009030672
2.068451e-06
0.009030785