/*--------------------------------*- C++ -*----------------------------------*\
| =========                 |                                                 |
| \\      /  F ield         | OpenFOAM: The Open Source CFD Toolbox           |
|  \\    /   O peration     | Version:  2.3.0                                 |
|   \\  /    A nd           | Web:      www.OpenFOAM.org                      |
|    \\/     M anipulation  |                                                 |
\*---------------------------------------------------------------------------*/
FoamFile
{
    version     2.0;
    format      ascii;
    class       volVectorField;
    location    "10000/topAir";
    object      U;
}
// * * * * * * * * * * * * * * * * * * * * * * * * * * * * * * * * * * * * * //

dimensions      [0 1 -1 0 0 0 0];

internalField   nonuniform List<vector> 
4000
(
(11.42943 0.002844245 0)
(8.555695 0.002998973 0)
(7.395604 0.002494383 0)
(7.701173 0.002451537 0)
(7.815582 0.002505802 0)
(7.779754 0.00252587 0)
(7.765091 0.002541866 0)
(7.765777 0.002562776 0)
(7.764101 0.002583137 0)
(7.760835 0.002601246 0)
(7.75781 0.002617478 0)
(7.754934 0.002632045 0)
(7.752019 0.002645044 0)
(7.749079 0.002656628 0)
(7.746135 0.002666964 0)
(7.743186 0.002676198 0)
(7.740232 0.002684459 0)
(7.737273 0.002691859 0)
(7.734311 0.002698496 0)
(7.731346 0.002704453 0)
(7.728378 0.002709803 0)
(7.725408 0.002714608 0)
(7.722436 0.002718925 0)
(7.719462 0.0027228 0)
(7.716487 0.002726276 0)
(7.713511 0.002729388 0)
(7.710534 0.00273217 0)
(7.707557 0.002734649 0)
(7.704579 0.002736852 0)
(7.701601 0.0027388 0)
(7.698623 0.002740514 0)
(7.695645 0.002742011 0)
(7.692667 0.002743309 0)
(7.689689 0.002744421 0)
(7.686711 0.002745361 0)
(7.683734 0.00274614 0)
(7.680757 0.002746769 0)
(7.677781 0.002747258 0)
(7.674806 0.002747615 0)
(7.671831 0.002747849 0)
(7.668856 0.002747967 0)
(7.665883 0.002747976 0)
(7.66291 0.002747881 0)
(7.659938 0.002747688 0)
(7.656968 0.002747402 0)
(7.653998 0.002747028 0)
(7.651029 0.002746569 0)
(7.648061 0.00274603 0)
(7.645094 0.002745413 0)
(7.642128 0.002744722 0)
(7.639164 0.00274396 0)
(7.636201 0.002743128 0)
(7.633239 0.002742228 0)
(7.630278 0.002741263 0)
(7.627319 0.002740234 0)
(7.624361 0.002739143 0)
(7.621404 0.002737989 0)
(7.618449 0.002736773 0)
(7.615495 0.002735497 0)
(7.612543 0.00273416 0)
(7.609593 0.002732761 0)
(7.606644 0.0027313 0)
(7.603697 0.002729776 0)
(7.600752 0.002728187 0)
(7.597809 0.002726533 0)
(7.594867 0.002724809 0)
(7.591928 0.002723015 0)
(7.588991 0.002721146 0)
(7.586056 0.002719198 0)
(7.583124 0.002717166 0)
(7.580194 0.002715046 0)
(7.577267 0.00271283 0)
(7.574342 0.002710511 0)
(7.571421 0.002708079 0)
(7.568502 0.002705523 0)
(7.565588 0.002702833 0)
(7.562676 0.002699991 0)
(7.559769 0.00269698 0)
(7.556866 0.00269378 0)
(7.553968 0.002690364 0)
(7.551074 0.002686701 0)
(7.548186 0.002682754 0)
(7.545305 0.002678476 0)
(7.54243 0.002673807 0)
(7.539563 0.002668675 0)
(7.536704 0.002662983 0)
(7.533856 0.002656608 0)
(7.531019 0.002649385 0)
(7.528194 0.002641086 0)
(7.525386 0.002631392 0)
(7.522596 0.002619835 0)
(7.519829 0.002605699 0)
(7.51709 0.002587824 0)
(7.514388 0.00256421 0)
(7.511736 0.002531219 0)
(7.509152 0.002481542 0)
(7.506675 0.002400939 0)
(7.504353 0.002253501 0)
(7.50238 0.001981781 0)
(7.500671 0.001328807 0)
(11.43649 0.002483894 0)
(8.565443 0.003325613 0)
(7.409463 0.002983797 0)
(7.717959 0.00294236 0)
(7.835309 0.003043073 0)
(7.802632 0.003095025 0)
(7.791084 0.003122123 0)
(7.794841 0.003147006 0)
(7.796236 0.003167658 0)
(7.796042 0.003183016 0)
(7.796086 0.003194583 0)
(7.796275 0.003203436 0)
(7.796423 0.00321015 0)
(7.796543 0.003215184 0)
(7.796657 0.003218909 0)
(7.796764 0.003221607 0)
(7.796862 0.003223492 0)
(7.796953 0.003224727 0)
(7.797038 0.003225442 0)
(7.797117 0.003225738 0)
(7.79719 0.003225693 0)
(7.797259 0.003225372 0)
(7.797323 0.003224825 0)
(7.797382 0.003224094 0)
(7.797438 0.003223212 0)
(7.797489 0.003222206 0)
(7.797537 0.003221099 0)
(7.797582 0.003219909 0)
(7.797623 0.003218652 0)
(7.797661 0.00321734 0)
(7.797697 0.003215983 0)
(7.797729 0.003214592 0)
(7.797759 0.003213172 0)
(7.797786 0.00321173 0)
(7.79781 0.00321027 0)
(7.797832 0.003208797 0)
(7.797852 0.003207315 0)
(7.797869 0.003205824 0)
(7.797884 0.003204329 0)
(7.797897 0.003202829 0)
(7.797908 0.003201327 0)
(7.797917 0.003199822 0)
(7.797924 0.003198315 0)
(7.797928 0.003196806 0)
(7.797931 0.003195294 0)
(7.797932 0.003193778 0)
(7.797932 0.003192258 0)
(7.797929 0.003190732 0)
(7.797925 0.003189198 0)
(7.797919 0.003187655 0)
(7.797911 0.0031861 0)
(7.797902 0.003184531 0)
(7.797891 0.003182944 0)
(7.797879 0.003181337 0)
(7.797865 0.003179705 0)
(7.79785 0.003178046 0)
(7.797833 0.003176354 0)
(7.797815 0.003174625 0)
(7.797796 0.003172853 0)
(7.797775 0.003171032 0)
(7.797754 0.003169155 0)
(7.797731 0.003167216 0)
(7.797707 0.003165206 0)
(7.797682 0.003163116 0)
(7.797657 0.003160936 0)
(7.79763 0.003158654 0)
(7.797603 0.003156259 0)
(7.797575 0.003153735 0)
(7.797547 0.003151067 0)
(7.797518 0.003148238 0)
(7.797489 0.003145226 0)
(7.79746 0.003142009 0)
(7.797431 0.003138559 0)
(7.797402 0.003134847 0)
(7.797373 0.003130837 0)
(7.797345 0.003126488 0)
(7.797318 0.003121753 0)
(7.797292 0.003116575 0)
(7.797268 0.003110889 0)
(7.797245 0.003104614 0)
(7.797225 0.003097655 0)
(7.797207 0.003089897 0)
(7.797193 0.003081197 0)
(7.797183 0.003071378 0)
(7.797177 0.00306022 0)
(7.797177 0.003047439 0)
(7.797184 0.003032669 0)
(7.7972 0.003015425 0)
(7.797225 0.002995054 0)
(7.797262 0.002970656 0)
(7.797315 0.002940951 0)
(7.797385 0.002904061 0)
(7.797479 0.002857137 0)
(7.797601 0.002795657 0)
(7.79776 0.00271219 0)
(7.797965 0.002593621 0)
(7.798227 0.002417156 0)
(7.798554 0.002134115 0)
(7.798927 0.00167225 0)
(7.799338 0.0007610369 0)
(11.43437 8.320637e-05 0)
(8.563234 0.001026891 0)
(7.406606 0.001410831 0)
(7.715198 0.001627051 0)
(7.832586 0.001832515 0)
(7.799868 0.001981644 0)
(7.78831 0.002087272 0)
(7.792078 0.00217112 0)
(7.793487 0.002239691 0)
(7.79331 0.002296023 0)
(7.793375 0.002343213 0)
(7.793589 0.002383492 0)
(7.793764 0.002418314 0)
(7.793914 0.002448739 0)
(7.794059 0.002475574 0)
(7.7942 0.002499436 0)
(7.794333 0.002520804 0)
(7.794462 0.002540055 0)
(7.794586 0.002557493 0)
(7.794706 0.002573366 0)
(7.794822 0.002587875 0)
(7.794935 0.002601191 0)
(7.795045 0.002613453 0)
(7.795153 0.002624783 0)
(7.795258 0.002635282 0)
(7.795361 0.002645036 0)
(7.795462 0.002654123 0)
(7.795561 0.002662606 0)
(7.795659 0.002670543 0)
(7.795756 0.002677984 0)
(7.795851 0.002684973 0)
(7.795945 0.002691547 0)
(7.796037 0.002697742 0)
(7.796129 0.002703587 0)
(7.79622 0.002709109 0)
(7.796311 0.002714332 0)
(7.7964 0.002719277 0)
(7.796489 0.002723964 0)
(7.796578 0.002728408 0)
(7.796665 0.002732626 0)
(7.796753 0.002736629 0)
(7.79684 0.002740432 0)
(7.796926 0.002744043 0)
(7.797012 0.002747471 0)
(7.797098 0.002750726 0)
(7.797184 0.002753813 0)
(7.79727 0.002756739 0)
(7.797355 0.002759509 0)
(7.79744 0.002762127 0)
(7.797525 0.002764595 0)
(7.797611 0.002766916 0)
(7.797696 0.002769092 0)
(7.797781 0.002771122 0)
(7.797866 0.002773007 0)
(7.797951 0.002774745 0)
(7.798037 0.002776335 0)
(7.798123 0.002777772 0)
(7.798209 0.002779053 0)
(7.798295 0.002780173 0)
(7.798381 0.002781125 0)
(7.798468 0.002781902 0)
(7.798556 0.002782495 0)
(7.798643 0.002782894 0)
(7.798732 0.002783086 0)
(7.798821 0.002783058 0)
(7.798911 0.002782794 0)
(7.799001 0.002782276 0)
(7.799093 0.002781483 0)
(7.799185 0.002780392 0)
(7.799278 0.002778974 0)
(7.799373 0.002777199 0)
(7.799469 0.002775031 0)
(7.799566 0.002772429 0)
(7.799665 0.002769345 0)
(7.799766 0.002765723 0)
(7.799869 0.002761498 0)
(7.799974 0.002756595 0)
(7.800082 0.002750925 0)
(7.800192 0.002744382 0)
(7.800305 0.002736839 0)
(7.800422 0.002728146 0)
(7.800543 0.002718118 0)
(7.800668 0.002706531 0)
(7.800798 0.002693106 0)
(7.800934 0.002677497 0)
(7.801077 0.002659262 0)
(7.801227 0.002637838 0)
(7.801385 0.002612487 0)
(7.801553 0.002582232 0)
(7.801733 0.002545751 0)
(7.801927 0.002501226 0)
(7.802136 0.002446092 0)
(7.802365 0.002376667 0)
(7.802615 0.002287553 0)
(7.802892 0.002170733 0)
(7.803198 0.002014112 0)
(7.803534 0.001799931 0)
(7.803896 0.001501678 0)
(7.804252 0.001087498 0)
(7.804589 0.0005211113 0)
(11.43529 0.000815106 0)
(8.564035 0.001608562 0)
(7.406997 0.001962172 0)
(7.71542 0.002143179 0)
(7.832753 0.002309419 0)
(7.799978 0.002442942 0)
(7.788376 0.002541346 0)
(7.792116 0.002618839 0)
(7.793503 0.002682164 0)
(7.793308 0.002734004 0)
(7.793359 0.002776765 0)
(7.793561 0.002812427 0)
(7.793725 0.0028424 0)
(7.793866 0.002867743 0)
(7.794003 0.002889289 0)
(7.794137 0.002907693 0)
(7.794264 0.002923478 0)
(7.794387 0.002937061 0)
(7.794506 0.002948784 0)
(7.794621 0.002958923 0)
(7.794733 0.002967708 0)
(7.794842 0.002975327 0)
(7.794948 0.002981939 0)
(7.795052 0.002987677 0)
(7.795154 0.002992654 0)
(7.795254 0.002996963 0)
(7.795352 0.003000686 0)
(7.795449 0.003003893 0)
(7.795544 0.003006644 0)
(7.795638 0.003008989 0)
(7.795731 0.003010974 0)
(7.795823 0.003012637 0)
(7.795914 0.003014011 0)
(7.796004 0.003015126 0)
(7.796093 0.003016008 0)
(7.796182 0.003016677 0)
(7.79627 0.003017155 0)
(7.796357 0.003017456 0)
(7.796444 0.003017597 0)
(7.796531 0.00301759 0)
(7.796617 0.003017445 0)
(7.796702 0.003017171 0)
(7.796788 0.003016777 0)
(7.796873 0.003016269 0)
(7.796958 0.003015652 0)
(7.797043 0.00301493 0)
(7.797128 0.003014106 0)
(7.797213 0.003013181 0)
(7.797297 0.003012158 0)
(7.797382 0.003011035 0)
(7.797466 0.003009812 0)
(7.797551 0.003008487 0)
(7.797636 0.003007056 0)
(7.797721 0.003005516 0)
(7.797806 0.003003862 0)
(7.797891 0.003002088 0)
(7.797977 0.003000186 0)
(7.798063 0.002998149 0)
(7.798149 0.002995965 0)
(7.798236 0.002993626 0)
(7.798323 0.002991116 0)
(7.79841 0.002988423 0)
(7.798498 0.00298553 0)
(7.798587 0.002982418 0)
(7.798677 0.002979068 0)
(7.798767 0.002975454 0)
(7.798858 0.002971552 0)
(7.79895 0.002967331 0)
(7.799043 0.002962757 0)
(7.799137 0.002957792 0)
(7.799232 0.002952392 0)
(7.799328 0.002946508 0)
(7.799426 0.002940082 0)
(7.799526 0.00293305 0)
(7.799628 0.002925334 0)
(7.799731 0.002916848 0)
(7.799837 0.00290749 0)
(7.799945 0.00289714 0)
(7.800056 0.002885657 0)
(7.80017 0.002872874 0)
(7.800287 0.00285859 0)
(7.800408 0.002842566 0)
(7.800534 0.002824509 0)
(7.800664 0.00280406 0)
(7.800799 0.002780777 0)
(7.80094 0.002754104 0)
(7.801088 0.00272334 0)
(7.801244 0.002687583 0)
(7.801409 0.002645665 0)
(7.801583 0.002596047 0)
(7.801769 0.002536676 0)
(7.801967 0.002464774 0)
(7.80218 0.002376542 0)
(7.802408 0.002266728 0)
(7.802652 0.002128059 0)
(7.80291 0.001950477 0)
(7.803177 0.0017205 0)
(7.803444 0.001420763 0)
(7.803675 0.001032329 0)
(7.803875 0.0005455598 0)
(11.43524 0.0004175715 0)
(8.563905 0.0008655306 0)
(7.406703 0.001136258 0)
(7.715105 0.001323476 0)
(7.832446 0.001499803 0)
(7.799658 0.001651306 0)
(7.788042 0.001772871 0)
(7.791774 0.001873198 0)
(7.793156 0.001957876 0)
(7.792958 0.002029597 0)
(7.793006 0.002090731 0)
(7.793206 0.002143338 0)
(7.793369 0.002188989 0)
(7.79351 0.002228895 0)
(7.793647 0.002264017 0)
(7.79378 0.002295127 0)
(7.793908 0.002322841 0)
(7.794031 0.002347659 0)
(7.794151 0.002369989 0)
(7.794267 0.002390169 0)
(7.794379 0.002408476 0)
(7.794489 0.002425144 0)
(7.794596 0.002440369 0)
(7.794701 0.002454319 0)
(7.794804 0.002467134 0)
(7.794905 0.002478938 0)
(7.795004 0.002489835 0)
(7.795101 0.002499916 0)
(7.795197 0.00250926 0)
(7.795292 0.002517936 0)
(7.795386 0.002526006 0)
(7.795479 0.002533522 0)
(7.79557 0.002540532 0)
(7.795661 0.002547076 0)
(7.795751 0.002553193 0)
(7.79584 0.002558913 0)
(7.795929 0.002564267 0)
(7.796017 0.002569279 0)
(7.796104 0.002573973 0)
(7.796192 0.002578367 0)
(7.796278 0.00258248 0)
(7.796365 0.002586327 0)
(7.796451 0.002589922 0)
(7.796536 0.002593276 0)
(7.796622 0.002596399 0)
(7.796707 0.0025993 0)
(7.796793 0.002601984 0)
(7.796878 0.002604458 0)
(7.796963 0.002606726 0)
(7.797048 0.002608789 0)
(7.797133 0.002610651 0)
(7.797218 0.002612309 0)
(7.797303 0.002613764 0)
(7.797388 0.002615011 0)
(7.797474 0.002616048 0)
(7.79756 0.002616869 0)
(7.797645 0.002617466 0)
(7.797732 0.002617831 0)
(7.797818 0.002617954 0)
(7.797905 0.002617821 0)
(7.797992 0.00261742 0)
(7.79808 0.002616733 0)
(7.798168 0.002615741 0)
(7.798257 0.002614424 0)
(7.798347 0.002612755 0)
(7.798437 0.002610708 0)
(7.798528 0.002608251 0)
(7.79862 0.002605346 0)
(7.798713 0.002601954 0)
(7.798807 0.002598028 0)
(7.798902 0.002593514 0)
(7.798998 0.002588351 0)
(7.799096 0.00258247 0)
(7.799195 0.00257579 0)
(7.799296 0.002568219 0)
(7.799399 0.002559651 0)
(7.799504 0.00254996 0)
(7.799611 0.002539002 0)
(7.799721 0.002526605 0)
(7.799834 0.002512568 0)
(7.79995 0.002496651 0)
(7.800069 0.002478568 0)
(7.800192 0.002457971 0)
(7.80032 0.002434442 0)
(7.800452 0.002407466 0)
(7.800589 0.002376406 0)
(7.800732 0.002340471 0)
(7.800882 0.002298664 0)
(7.80104 0.002249721 0)
(7.801205 0.002192025 0)
(7.801379 0.002123491 0)
(7.801563 0.002041417 0)
(7.801756 0.001942301 0)
(7.801959 0.001821619 0)
(7.802171 0.001673618 0)
(7.802389 0.001491213 0)
(7.802605 0.00126619 0)
(7.802812 0.0009904871 0)
(7.802983 0.0006577745 0)
(7.803125 0.0002754615 0)
(11.43561 0.0004758657 0)
(8.564297 0.0009422086 0)
(7.407011 0.001255147 0)
(7.715339 0.001488181 0)
(7.832638 0.001692023 0)
(7.799808 0.001863697 0)
(7.788155 0.002002871 0)
(7.791857 0.002117564 0)
(7.793216 0.002213703 0)
(7.792998 0.002294715 0)
(7.79303 0.002363362 0)
(7.793216 0.002421955 0)
(7.793369 0.002472289 0)
(7.793499 0.002515764 0)
(7.793628 0.002553501 0)
(7.793753 0.002586403 0)
(7.793875 0.002615204 0)
(7.793992 0.002640503 0)
(7.794106 0.002662794 0)
(7.794218 0.002682489 0)
(7.794326 0.002699931 0)
(7.794432 0.002715409 0)
(7.794536 0.002729168 0)
(7.794638 0.002741415 0)
(7.794737 0.002752329 0)
(7.794836 0.002762061 0)
(7.794932 0.002770745 0)
(7.795028 0.002778494 0)
(7.795122 0.002785407 0)
(7.795214 0.00279157 0)
(7.795306 0.002797059 0)
(7.795397 0.00280194 0)
(7.795487 0.00280627 0)
(7.795576 0.002810102 0)
(7.795665 0.002813479 0)
(7.795753 0.002816442 0)
(7.79584 0.002819025 0)
(7.795927 0.002821258 0)
(7.796014 0.002823168 0)
(7.7961 0.002824779 0)
(7.796185 0.002826112 0)
(7.796271 0.002827184 0)
(7.796356 0.002828011 0)
(7.796441 0.002828605 0)
(7.796525 0.002828978 0)
(7.79661 0.002829139 0)
(7.796694 0.002829095 0)
(7.796779 0.002828852 0)
(7.796863 0.002828412 0)
(7.796947 0.002827779 0)
(7.797032 0.002826952 0)
(7.797116 0.002825931 0)
(7.7972 0.002824714 0)
(7.797285 0.002823295 0)
(7.79737 0.002821669 0)
(7.797455 0.002819829 0)
(7.79754 0.002817765 0)
(7.797626 0.002815465 0)
(7.797711 0.002812916 0)
(7.797798 0.002810103 0)
(7.797884 0.002807008 0)
(7.797971 0.002803611 0)
(7.798059 0.002799888 0)
(7.798147 0.002795812 0)
(7.798236 0.002791354 0)
(7.798325 0.002786479 0)
(7.798416 0.00278115 0)
(7.798507 0.002775323 0)
(7.798599 0.002768949 0)
(7.798692 0.002761973 0)
(7.798786 0.00275433 0)
(7.798881 0.002745949 0)
(7.798978 0.002736749 0)
(7.799076 0.002726634 0)
(7.799176 0.002715498 0)
(7.799277 0.002703216 0)
(7.799381 0.002689645 0)
(7.799486 0.002674616 0)
(7.799594 0.002657936 0)
(7.799705 0.002639375 0)
(7.799818 0.002618662 0)
(7.799935 0.002595478 0)
(7.800055 0.002569439 0)
(7.800179 0.002540086 0)
(7.800306 0.002506861 0)
(7.800439 0.002469088 0)
(7.800576 0.002425939 0)
(7.800719 0.002376391 0)
(7.800868 0.00231918 0)
(7.801023 0.002252734 0)
(7.801185 0.002175093 0)
(7.801353 0.00208382 0)
(7.801527 0.001975903 0)
(7.801706 0.001847668 0)
(7.801889 0.00169475 0)
(7.80207 0.001512221 0)
(7.802245 0.00129496 0)
(7.802404 0.00103891 0)
(7.802529 0.0007418652 0)
(7.802629 0.0004121632 0)
(11.43568 0.0003522882 0)
(8.564325 0.0006974579 0)
(7.406932 0.0009284345 0)
(7.715218 0.00110909 0)
(7.832497 0.001274147 0)
(7.799644 0.001418824 0)
(7.787971 0.001541103 0)
(7.79166 0.001645537 0)
(7.793008 0.001735743 0)
(7.792782 0.001813851 0)
(7.792808 0.001881688 0)
(7.792989 0.001940896 0)
(7.793138 0.001992825 0)
(7.793266 0.002038573 0)
(7.793392 0.002079053 0)
(7.793517 0.002115023 0)
(7.793637 0.002147115 0)
(7.793754 0.002175853 0)
(7.793868 0.002201681 0)
(7.793979 0.002224969 0)
(7.794087 0.002246032 0)
(7.794193 0.002265137 0)
(7.794297 0.002282513 0)
(7.794399 0.002298354 0)
(7.7945 0.002312828 0)
(7.794598 0.002326082 0)
(7.794695 0.00233824 0)
(7.794791 0.002349414 0)
(7.794886 0.002359698 0)
(7.794979 0.002369177 0)
(7.795071 0.002377924 0)
(7.795163 0.002386005 0)
(7.795254 0.002393477 0)
(7.795343 0.00240039 0)
(7.795432 0.002406789 0)
(7.795521 0.002412714 0)
(7.795609 0.002418199 0)
(7.795696 0.002423276 0)
(7.795783 0.002427972 0)
(7.79587 0.00243231 0)
(7.795956 0.002436312 0)
(7.796042 0.002439996 0)
(7.796127 0.002443377 0)
(7.796213 0.00244647 0)
(7.796298 0.002449286 0)
(7.796383 0.002451833 0)
(7.796468 0.002454119 0)
(7.796552 0.00245615 0)
(7.796637 0.002457929 0)
(7.796722 0.002459459 0)
(7.796806 0.002460739 0)
(7.796891 0.002461768 0)
(7.796976 0.002462543 0)
(7.797061 0.002463059 0)
(7.797146 0.002463309 0)
(7.797231 0.002463284 0)
(7.797317 0.002462973 0)
(7.797402 0.002462363 0)
(7.797488 0.00246144 0)
(7.797575 0.002460186 0)
(7.797661 0.002458579 0)
(7.797748 0.002456597 0)
(7.797836 0.002454214 0)
(7.797924 0.002451399 0)
(7.798013 0.002448118 0)
(7.798102 0.002444333 0)
(7.798192 0.00244 0)
(7.798283 0.00243507 0)
(7.798375 0.002429488 0)
(7.798468 0.00242319 0)
(7.798561 0.002416107 0)
(7.798656 0.002408155 0)
(7.798752 0.002399245 0)
(7.79885 0.00238927 0)
(7.798949 0.002378111 0)
(7.799049 0.002365629 0)
(7.799151 0.002351666 0)
(7.799256 0.002336037 0)
(7.799362 0.00231853 0)
(7.799471 0.002298896 0)
(7.799582 0.002276844 0)
(7.799696 0.00225203 0)
(7.799813 0.002224049 0)
(7.799933 0.002192421 0)
(7.800057 0.002156572 0)
(7.800184 0.002115813 0)
(7.800316 0.002069318 0)
(7.800452 0.002016088 0)
(7.800592 0.001954921 0)
(7.800737 0.00188436 0)
(7.800887 0.001802656 0)
(7.80104 0.001707723 0)
(7.801197 0.001597107 0)
(7.801355 0.001467997 0)
(7.801513 0.001317314 0)
(7.801666 0.001141951 0)
(7.801809 0.0009391931 0)
(7.801937 0.000707767 0)
(7.802034 0.0004481617 0)
(7.802111 0.0001682382 0)
(11.43589 0.0003481769 0)
(8.564536 0.0006730545 0)
(7.407105 0.0009041457 0)
(7.715365 0.001101473 0)
(7.832628 0.001285755 0)
(7.799755 0.00144998 0)
(7.788062 0.001591974 0)
(7.791732 0.001715193 0)
(7.793065 0.001822631 0)
(7.792825 0.001916317 0)
(7.792838 0.001998108 0)
(7.793008 0.002069715 0)
(7.793147 0.002132599 0)
(7.793266 0.002187984 0)
(7.793385 0.002236907 0)
(7.793502 0.002280246 0)
(7.793617 0.002318743 0)
(7.793728 0.002353024 0)
(7.793837 0.002383624 0)
(7.793943 0.002410995 0)
(7.794048 0.002435526 0)
(7.79415 0.00245755 0)
(7.794251 0.002477353 0)
(7.79435 0.002495183 0)
(7.794447 0.002511255 0)
(7.794543 0.002525755 0)
(7.794638 0.002538847 0)
(7.794731 0.002550673 0)
(7.794823 0.002561359 0)
(7.794915 0.002571014 0)
(7.795005 0.002579737 0)
(7.795095 0.002587611 0)
(7.795184 0.002594715 0)
(7.795272 0.002601114 0)
(7.79536 0.002606868 0)
(7.795447 0.00261203 0)
(7.795534 0.002616647 0)
(7.79562 0.002620761 0)
(7.795706 0.002624408 0)
(7.795791 0.00262762 0)
(7.795876 0.002630426 0)
(7.795961 0.00263285 0)
(7.796045 0.002634915 0)
(7.79613 0.00263664 0)
(7.796214 0.002638039 0)
(7.796298 0.002639127 0)
(7.796382 0.002639914 0)
(7.796466 0.002640408 0)
(7.79655 0.002640616 0)
(7.796634 0.002640542 0)
(7.796718 0.002640188 0)
(7.796802 0.002639553 0)
(7.796886 0.002638635 0)
(7.79697 0.00263743 0)
(7.797054 0.002635932 0)
(7.797139 0.00263413 0)
(7.797224 0.002632015 0)
(7.797309 0.002629572 0)
(7.797394 0.002626785 0)
(7.79748 0.002623634 0)
(7.797566 0.002620098 0)
(7.797652 0.002616151 0)
(7.797739 0.002611763 0)
(7.797826 0.002606903 0)
(7.797914 0.002601531 0)
(7.798003 0.002595607 0)
(7.798092 0.002589081 0)
(7.798182 0.002581901 0)
(7.798272 0.002574004 0)
(7.798364 0.002565322 0)
(7.798457 0.002555777 0)
(7.79855 0.002545281 0)
(7.798645 0.002533733 0)
(7.798741 0.00252102 0)
(7.798838 0.002507011 0)
(7.798937 0.002491559 0)
(7.799038 0.002474493 0)
(7.79914 0.002455619 0)
(7.799244 0.002434709 0)
(7.79935 0.002411504 0)
(7.799458 0.002385701 0)
(7.799569 0.002356946 0)
(7.799682 0.002324826 0)
(7.799798 0.002288858 0)
(7.799917 0.002248472 0)
(7.800039 0.002202996 0)
(7.800164 0.002151638 0)
(7.800293 0.002093464 0)
(7.800424 0.002027372 0)
(7.800559 0.001952072 0)
(7.800696 0.001866062 0)
(7.800835 0.001767622 0)
(7.800975 0.001654826 0)
(7.801115 0.001525592 0)
(7.801251 0.001377806 0)
(7.801381 0.001209557 0)
(7.801499 0.001019482 0)
(7.801602 0.0008075066 0)
(7.801679 0.0005748973 0)
(7.801738 0.0003280194 0)
(11.436 0.0002914058 0)
(8.564618 0.0005631573 0)
(7.407131 0.0007542956 0)
(7.715363 0.0009189578 0)
(7.832607 0.001073727 0)
(7.799712 0.001212462 0)
(7.787999 0.001333518 0)
(7.791653 0.001439647 0)
(7.792972 0.001533105 0)
(7.79272 0.001615389 0)
(7.792724 0.001687897 0)
(7.792886 0.001751942 0)
(7.793019 0.001808656 0)
(7.793132 0.001859009 0)
(7.793247 0.001903832 0)
(7.793361 0.00194384 0)
(7.793472 0.001979642 0)
(7.793581 0.002011764 0)
(7.793688 0.002040655 0)
(7.793793 0.002066699 0)
(7.793896 0.00209023 0)
(7.793998 0.002111534 0)
(7.794098 0.002130861 0)
(7.794196 0.002148424 0)
(7.794293 0.002164412 0)
(7.794388 0.002178988 0)
(7.794483 0.002192296 0)
(7.794576 0.00220446 0)
(7.794669 0.002215592 0)
(7.79476 0.002225787 0)
(7.794851 0.002235131 0)
(7.794941 0.0022437 0)
(7.79503 0.002251562 0)
(7.795118 0.002258774 0)
(7.795206 0.00226539 0)
(7.795294 0.002271455 0)
(7.79538 0.002277011 0)
(7.795467 0.002282093 0)
(7.795553 0.002286735 0)
(7.795639 0.002290963 0)
(7.795724 0.002294803 0)
(7.795809 0.002298275 0)
(7.795894 0.002301397 0)
(7.795979 0.002304186 0)
(7.796063 0.002306654 0)
(7.796148 0.002308811 0)
(7.796232 0.002310666 0)
(7.796316 0.002312225 0)
(7.7964 0.00231349 0)
(7.796484 0.002314465 0)
(7.796569 0.002315147 0)
(7.796653 0.002315536 0)
(7.796737 0.002315625 0)
(7.796821 0.002315409 0)
(7.796906 0.002314877 0)
(7.79699 0.002314019 0)
(7.797075 0.002312821 0)
(7.79716 0.002311266 0)
(7.797246 0.002309336 0)
(7.797331 0.002307007 0)
(7.797417 0.002304255 0)
(7.797503 0.00230105 0)
(7.79759 0.002297361 0)
(7.797677 0.00229315 0)
(7.797765 0.002288376 0)
(7.797853 0.002282992 0)
(7.797942 0.002276946 0)
(7.798032 0.002270178 0)
(7.798122 0.002262622 0)
(7.798213 0.002254204 0)
(7.798305 0.00224484 0)
(7.798398 0.002234434 0)
(7.798492 0.002222881 0)
(7.798587 0.002210057 0)
(7.798683 0.002195828 0)
(7.79878 0.002180035 0)
(7.798879 0.002162502 0)
(7.79898 0.002143025 0)
(7.799082 0.002121372 0)
(7.799186 0.002097276 0)
(7.799291 0.002070429 0)
(7.799399 0.002040478 0)
(7.799509 0.002007011 0)
(7.799621 0.001969557 0)
(7.799735 0.001927564 0)
(7.799852 0.001880395 0)
(7.799971 0.001827314 0)
(7.800092 0.001767469 0)
(7.800215 0.001699882 0)
(7.80034 0.00162344 0)
(7.800467 0.001536893 0)
(7.800593 0.001438868 0)
(7.800719 0.0013279 0)
(7.800843 0.001202509 0)
(7.800961 0.001061325 0)
(7.801072 0.0009032965 0)
(7.801172 0.0007279505 0)
(7.801257 0.0005359039 0)
(7.80132 0.0003287672 0)
(7.801368 0.0001116395 0)
(11.43614 0.0002744092 0)
(8.564752 0.0005244714 0)
(7.407237 0.0007046899 0)
(7.715456 0.0008673613 0)
(7.832691 0.001024588 0)
(7.799785 0.001169316 0)
(7.788059 0.001299234 0)
(7.791702 0.001415969 0)
(7.793011 0.001520892 0)
(7.79275 0.001614941 0)
(7.792745 0.001699129 0)
(7.792899 0.001774501 0)
(7.793024 0.001842023 0)
(7.793132 0.001902566 0)
(7.79324 0.001956914 0)
(7.793349 0.002005765 0)
(7.793455 0.002049736 0)
(7.79356 0.002089372 0)
(7.793663 0.002125148 0)
(7.793764 0.002157486 0)
(7.793864 0.002186753 0)
(7.793962 0.002213272 0)
(7.794059 0.002237328 0)
(7.794154 0.00225917 0)
(7.794249 0.002279021 0)
(7.794342 0.002297074 0)
(7.794434 0.002313502 0)
(7.794526 0.002328458 0)
(7.794616 0.002342077 0)
(7.794706 0.00235448 0)
(7.794795 0.002365775 0)
(7.794883 0.002376056 0)
(7.794971 0.00238541 0)
(7.795058 0.002393911 0)
(7.795145 0.002401629 0)
(7.795231 0.002408623 0)
(7.795316 0.002414948 0)
(7.795402 0.002420652 0)
(7.795487 0.002425778 0)
(7.795571 0.002430363 0)
(7.795656 0.002434442 0)
(7.79574 0.002438044 0)
(7.795824 0.002441194 0)
(7.795908 0.002443915 0)
(7.795991 0.002446227 0)
(7.796075 0.002448145 0)
(7.796158 0.002449682 0)
(7.796242 0.00245085 0)
(7.796325 0.002451655 0)
(7.796409 0.002452104 0)
(7.796492 0.002452198 0)
(7.796575 0.002451938 0)
(7.796659 0.002451322 0)
(7.796743 0.002450345 0)
(7.796826 0.002448999 0)
(7.79691 0.002447275 0)
(7.796994 0.002445159 0)
(7.797079 0.002442636 0)
(7.797163 0.002439687 0)
(7.797248 0.00243629 0)
(7.797333 0.002432418 0)
(7.797419 0.002428043 0)
(7.797505 0.002423131 0)
(7.797591 0.002417644 0)
(7.797678 0.002411539 0)
(7.797765 0.002404766 0)
(7.797853 0.002397272 0)
(7.797941 0.002388994 0)
(7.798031 0.002379864 0)
(7.79812 0.002369803 0)
(7.798211 0.002358724 0)
(7.798303 0.002346528 0)
(7.798395 0.002333105 0)
(7.798488 0.002318329 0)
(7.798583 0.00230206 0)
(7.798678 0.002284137 0)
(7.798775 0.002264378 0)
(7.798873 0.00224258 0)
(7.798973 0.002218507 0)
(7.799074 0.002191893 0)
(7.799176 0.002162436 0)
(7.799281 0.002129788 0)
(7.799386 0.002093554 0)
(7.799494 0.00205328 0)
(7.799603 0.002008451 0)
(7.799714 0.001958478 0)
(7.799827 0.001902692 0)
(7.799941 0.001840337 0)
(7.800056 0.00177057 0)
(7.800172 0.001692454 0)
(7.800287 0.001604976 0)
(7.800402 0.001507067 0)
(7.800515 0.001397644 0)
(7.800625 0.00127569 0)
(7.800728 0.001140356 0)
(7.800824 0.0009911314 0)
(7.800909 0.0008280257 0)
(7.80098 0.0006519039 0)
(7.801031 0.000464335 0)
(7.801071 0.0002693491 0)
(11.43624 0.0002428066 0)
(8.564838 0.0004630598 0)
(7.40729 0.0006210821 0)
(7.715493 0.0007646396 0)
(7.832717 0.0009036781 0)
(7.799795 0.001031702 0)
(7.788054 0.001146745 0)
(7.791683 0.001250232 0)
(7.792979 0.001343326 0)
(7.792707 0.001426822 0)
(7.792692 0.001501596 0)
(7.792838 0.001568556 0)
(7.792955 0.001628545 0)
(7.793056 0.001682325 0)
(7.793159 0.001730589 0)
(7.793262 0.001773953 0)
(7.793365 0.001812965 0)
(7.793465 0.001848112 0)
(7.793565 0.001879819 0)
(7.793664 0.001908463 0)
(7.793761 0.001934374 0)
(7.793857 0.001957844 0)
(7.793952 0.001979128 0)
(7.794047 0.001998452 0)
(7.79414 0.002016014 0)
(7.794232 0.002031989 0)
(7.794323 0.002046534 0)
(7.794414 0.002059784 0)
(7.794504 0.002071862 0)
(7.794593 0.002082875 0)
(7.794682 0.002092919 0)
(7.79477 0.002102078 0)
(7.794857 0.002110428 0)
(7.794944 0.002118037 0)
(7.79503 0.002124963 0)
(7.795116 0.002131261 0)
(7.795202 0.002136975 0)
(7.795287 0.00214215 0)
(7.795372 0.00214682 0)
(7.795457 0.002151018 0)
(7.795541 0.002154772 0)
(7.795626 0.002158108 0)
(7.79571 0.002161045 0)
(7.795794 0.002163602 0)
(7.795877 0.002165793 0)
(7.795961 0.002167632 0)
(7.796044 0.002169126 0)
(7.796128 0.002170282 0)
(7.796211 0.002171106 0)
(7.796295 0.002171598 0)
(7.796378 0.002171758 0)
(7.796462 0.002171584 0)
(7.796545 0.002171068 0)
(7.796629 0.002170204 0)
(7.796713 0.00216898 0)
(7.796797 0.002167384 0)
(7.796881 0.0021654 0)
(7.796965 0.002163008 0)
(7.79705 0.002160186 0)
(7.797134 0.00215691 0)
(7.797219 0.00215315 0)
(7.797305 0.002148873 0)
(7.79739 0.002144043 0)
(7.797476 0.002138617 0)
(7.797563 0.00213255 0)
(7.79765 0.002125787 0)
(7.797737 0.002118272 0)
(7.797825 0.002109939 0)
(7.797914 0.002100714 0)
(7.798003 0.002090516 0)
(7.798092 0.002079253 0)
(7.798183 0.002066823 0)
(7.798274 0.002053112 0)
(7.798367 0.00203799 0)
(7.79846 0.002021313 0)
(7.798554 0.00200292 0)
(7.798649 0.001982627 0)
(7.798745 0.001960229 0)
(7.798842 0.001935495 0)
(7.798941 0.001908162 0)
(7.799041 0.001877935 0)
(7.799142 0.001844481 0)
(7.799244 0.001807422 0)
(7.799347 0.001766335 0)
(7.799452 0.001720743 0)
(7.799558 0.00167011 0)
(7.799664 0.001613842 0)
(7.799772 0.00155128 0)
(7.799879 0.001481708 0)
(7.799987 0.001404355 0)
(7.800093 0.001318415 0)
(7.800198 0.001223074 0)
(7.8003 0.001117557 0)
(7.800398 0.00100119 0)
(7.800489 0.0008734985 0)
(7.800573 0.0007343264 0)
(7.800646 0.0005839629 0)
(7.800706 0.0004233631 0)
(7.80075 0.0002539778 0)
(7.800783 7.901677e-05 0)
(11.43635 0.0002253491 0)
(8.564936 0.0004273673 0)
(7.407366 0.0005738533 0)
(7.715561 0.0007101014 0)
(7.832779 0.0008443514 0)
(7.79985 0.0009703003 0)
(7.788099 0.0010859 0)
(7.79172 0.001192044 0)
(7.793009 0.001289389 0)
(7.79273 0.001378325 0)
(7.792708 0.001459379 0)
(7.792848 0.001533162 0)
(7.79296 0.001600284 0)
(7.793056 0.001661325 0)
(7.793154 0.001716837 0)
(7.793253 0.001767335 0)
(7.793351 0.001813291 0)
(7.793449 0.001855138 0)
(7.793545 0.001893268 0)
(7.793641 0.001928035 0)
(7.793735 0.001959758 0)
(7.793829 0.001988722 0)
(7.793922 0.002015186 0)
(7.794014 0.002039379 0)
(7.794105 0.002061508 0)
(7.794195 0.002081759 0)
(7.794285 0.002100298 0)
(7.794374 0.002117274 0)
(7.794462 0.002132821 0)
(7.79455 0.002147059 0)
(7.794637 0.002160096 0)
(7.794723 0.00217203 0)
(7.79481 0.002182947 0)
(7.794895 0.002192926 0)
(7.794981 0.002202037 0)
(7.795065 0.002210345 0)
(7.79515 0.002217905 0)
(7.795234 0.002224768 0)
(7.795318 0.00223098 0)
(7.795402 0.002236582 0)
(7.795486 0.002241609 0)
(7.795569 0.002246092 0)
(7.795653 0.00225006 0)
(7.795736 0.002253537 0)
(7.795819 0.002256544 0)
(7.795902 0.002259097 0)
(7.795984 0.002261212 0)
(7.796067 0.002262899 0)
(7.79615 0.002264167 0)
(7.796233 0.002265022 0)
(7.796316 0.002265466 0)
(7.796398 0.002265499 0)
(7.796481 0.00226512 0)
(7.796564 0.002264322 0)
(7.796647 0.002263097 0)
(7.796731 0.002261434 0)
(7.796814 0.002259318 0)
(7.796897 0.002256733 0)
(7.796981 0.002253657 0)
(7.797065 0.002250065 0)
(7.797149 0.00224593 0)
(7.797234 0.00224122 0)
(7.797319 0.002235896 0)
(7.797404 0.002229919 0)
(7.797489 0.00222324 0)
(7.797575 0.002215808 0)
(7.797662 0.002207563 0)
(7.797748 0.002198438 0)
(7.797836 0.002188362 0)
(7.797924 0.00217725 0)
(7.798012 0.002165011 0)
(7.798101 0.002151541 0)