/*--------------------------------*- C++ -*----------------------------------*\
| =========                 |                                                 |
| \\      /  F ield         | OpenFOAM: The Open Source CFD Toolbox           |
|  \\    /   O peration     | Version:  2.3.0                                 |
|   \\  /    A nd           | Web:      www.OpenFOAM.org                      |
|    \\/     M anipulation  |                                                 |
\*---------------------------------------------------------------------------*/
FoamFile
{
    version     2.0;
    format      ascii;
    class       surfaceScalarField;
    location    "9600/topAir";
    object      phi;
}
// * * * * * * * * * * * * * * * * * * * * * * * * * * * * * * * * * * * * * //

dimensions      [1 0 -1 0 0 0 0];

internalField   nonuniform List<scalar> 
7860
(
0.009318226
4.801505e-06
0.009313995
4.232214e-06
0.009310624
3.374467e-06
0.009307169
3.456675e-06
0.009303571
3.599799e-06
0.009299929
3.642901e-06
0.009296258
3.671498e-06
0.009292555
3.703481e-06
0.009288824
3.73055e-06
0.009285072
3.751913e-06
0.009281303
3.769456e-06
0.009277519
3.784096e-06
0.009273722
3.796296e-06
0.009269915
3.806496e-06
0.0092661
3.815067e-06
0.009262277
3.822292e-06
0.009258449
3.828394e-06
0.009254615
3.833553e-06
0.009250777
3.837913e-06
0.009246935
3.84159e-06
0.00924309
3.844682e-06
0.009239243
3.847267e-06
0.009235393
3.849411e-06
0.009231542
3.85117e-06
0.009227689
3.85259e-06
0.009223835
3.853711e-06
0.00921998
3.854566e-06
0.009216125
3.855186e-06
0.009212269
3.855594e-06
0.009208413
3.855813e-06
0.009204557
3.855861e-06
0.009200701
3.855755e-06
0.009196846
3.855509e-06
0.009192991
3.855136e-06
0.009189136
3.854647e-06
0.009185282
3.854051e-06
0.009181428
3.853357e-06
0.009177575
3.852573e-06
0.009173724
3.851705e-06
0.009169873
3.850759e-06
0.009166023
3.84974e-06
0.009162174
3.848652e-06
0.009158327
3.847499e-06
0.00915448
3.846284e-06
0.009150635
3.845011e-06
0.009146792
3.843681e-06
0.009142949
3.842295e-06
0.009139108
3.840856e-06
0.009135269
3.839365e-06
0.009131431
3.837821e-06
0.009127595
3.836225e-06
0.00912376
3.834577e-06
0.009119927
3.832875e-06
0.009116096
3.83112e-06
0.009112267
3.829309e-06
0.009108439
3.827441e-06
0.009104614
3.825513e-06
0.00910079
3.823522e-06
0.009096968
3.821465e-06
0.009093149
3.819338e-06
0.009089332
3.817136e-06
0.009085517
3.814855e-06
0.009081705
3.812488e-06
0.009077894
3.810029e-06
0.009074087
3.807469e-06
0.009070282
3.8048e-06
0.00906648
3.802012e-06
0.009062681
3.799093e-06
0.009058885
3.796031e-06
0.009055092
3.792811e-06
0.009051303
3.789415e-06
0.009047517
3.785826e-06
0.009043735
3.782019e-06
0.009039957
3.777971e-06
0.009036183
3.77365e-06
0.009032414
3.769023e-06
0.00902865
3.764049e-06
0.009024891
3.758679e-06
0.009021138
3.752858e-06
0.009017392
3.746516e-06
0.009013652
3.739573e-06
0.00900992
3.731928e-06
0.009006197
3.723459e-06
0.009002483
3.714015e-06
0.008998779
3.703402e-06
0.008995088
3.691378e-06
0.00899141
3.677623e-06
0.008987748
3.661717e-06
0.008984105
3.643087e-06
0.008980484
3.620941e-06
0.00897689
3.594137e-06
0.008973329
3.560972e-06
0.00896981
3.518795e-06
0.008966347
3.463239e-06
0.00896296
3.386796e-06
0.008959685
3.275299e-06
0.008956582
3.102802e-06
0.008953775
2.807402e-06
0.008951477
2.297768e-06
1.157798e-06
0.009328098
6.639136e-07
0.00932965
2.682402e-06
0.009330134
2.89316e-06
0.009330634
2.958143e-06
0.009331098
3.138179e-06
0.009331474
3.267163e-06
0.009331793
3.3535e-06
0.009332072
3.424238e-06
0.00933232
3.482712e-06
0.009332542
3.530162e-06
0.009332742
3.569351e-06
0.009332923
3.602304e-06
0.009333089
3.630299e-06
0.009333241
3.654297e-06
0.009333381
3.675055e-06
0.00933351
3.693151e-06
0.009333629
3.709036e-06
0.009333739
3.723065e-06
0.009333841
3.735524e-06
0.009333936
3.746642e-06
0.009334024
3.756609e-06
0.009334105
3.765579e-06
0.009334181
3.77368e-06
0.009334251
3.781023e-06
0.009334316
3.787697e-06
0.009334375
3.79378e-06
0.00933443
3.799337e-06
0.009334481
3.804428e-06
0.009334527
3.809099e-06
0.00933457
3.813393e-06
0.009334608
3.817348e-06
0.009334643
3.820996e-06
0.009334674
3.824364e-06
0.009334701
3.827478e-06
0.009334725
3.83036e-06
0.009334746
3.833027e-06
0.009334764
3.835498e-06
0.009334779
3.837786e-06
0.00933479
3.839906e-06
0.009334799
3.841867e-06
0.009334805
3.84368e-06
0.009334808
3.845354e-06
0.009334809
3.846897e-06
0.009334807
3.848313e-06
0.009334802
3.849609e-06
0.009334795
3.850789e-06
0.009334785
3.851857e-06
0.009334773
3.852814e-06
0.009334759
3.853664e-06
0.009334742
3.854406e-06
0.009334723
3.855042e-06
0.009334702
3.85557e-06
0.009334679
3.855989e-06
0.009334654
3.856298e-06
0.009334627
3.856492e-06
0.009334598
3.856569e-06
0.009334567
3.856523e-06
0.009334534
3.856348e-06
0.009334499
3.856039e-06
0.009334463
3.855587e-06
0.009334425
3.854983e-06
0.009334386
3.854217e-06
0.009334345
3.853276e-06
0.009334303
3.852147e-06
0.009334259
3.850815e-06
0.009334215
3.849262e-06
0.009334169
3.847468e-06
0.009334123
3.845411e-06
0.009334076
3.843064e-06
0.009334028
3.840399e-06
0.00933398
3.837382e-06
0.009333932
3.833974e-06
0.009333884
3.830132e-06
0.009333836
3.825805e-06
0.009333789
3.820933e-06
0.009333742
3.815447e-06
0.009333697
3.809269e-06
0.009333653
3.802303e-06
0.009333612
3.794436e-06
0.009333573
3.785536e-06
0.009333537
3.775442e-06
0.009333505
3.763959e-06
0.009333477
3.750846e-06
0.009333455
3.73581e-06
0.00933344
3.718478e-06
0.009333433
3.698379e-06
0.009333436
3.674906e-06
0.009333451
3.647261e-06
0.009333479
3.614382e-06
0.009333525
3.574816e-06
0.009333593
3.526539e-06
0.009333687
3.466651e-06
0.009333815
3.390894e-06
0.009333985
3.292821e-06
0.00933421
3.162442e-06
0.009334501
2.983636e-06
0.009334873
2.730732e-06
0.009335323
2.357827e-06
0.00933582
1.80079e-06
8.958253e-07
0.009325222
9.681091e-07
0.009326033
1.873438e-06
0.009326652
2.276496e-06
0.009327115
2.498072e-06
0.009327528
2.726401e-06
0.009327892
2.904186e-06
0.009328215
3.031309e-06
0.009328507
3.131792e-06
0.009328776
3.214266e-06
0.009329024
3.281941e-06
0.009329255
3.338153e-06
0.009329472
3.385559e-06
0.009329676
3.425964e-06
0.009329869
3.4607e-06
0.009330053
3.490801e-06
0.009330229
3.517072e-06
0.009330398
3.540143e-06
0.00933056
3.560518e-06
0.009330717
3.578601e-06
0.009330868
3.594721e-06
0.009331016
3.609151e-06
0.009331159
3.622114e-06
0.009331298
3.633798e-06
0.009331435
3.64436e-06
0.009331568
3.653935e-06
0.009331699
3.662636e-06
0.009331828
3.67056e-06
0.009331955
3.677791e-06
0.009332079
3.684403e-06
0.009332202
3.690457e-06
0.009332323
3.696008e-06
0.009332443
3.701105e-06
0.009332561
3.705789e-06
0.009332679
3.710096e-06
0.009332795
3.71406e-06
0.00933291
3.717709e-06
0.009333024
3.721067e-06
0.009333138
3.724157e-06
0.009333251
3.726997e-06
0.009333363
3.729606e-06
0.009333474
3.731998e-06
0.009333585
3.734185e-06
0.009333696
3.736179e-06
0.009333806
3.73799e-06
0.009333916
3.739624e-06
0.009334026
3.74109e-06
0.009334135
3.742391e-06
0.009334245
3.743532e-06
0.009334354
3.744517e-06
0.009334463
3.745345e-06
0.009334572
3.746019e-06
0.009334681
3.746536e-06
0.00933479
3.746896e-06
0.009334899
3.747094e-06
0.009335008
3.747128e-06
0.009335118
3.74699e-06
0.009335227
3.746675e-06
0.009335338
3.746174e-06
0.009335448
3.745477e-06
0.009335559
3.744573e-06
0.009335671
3.743448e-06
0.009335783
3.742087e-06
0.009335895
3.740472e-06
0.009336009
3.738585e-06
0.009336123
3.736401e-06
0.009336239
3.733897e-06
0.009336355
3.731042e-06
0.009336473
3.727803e-06
0.009336592
3.724144e-06
0.009336712
3.720021e-06
0.009336834
3.715386e-06
0.009336958
3.710183e-06
0.009337083
3.704348e-06
0.009337211
3.697808e-06
0.009337342
3.690477e-06
0.009337475
3.682256e-06
0.009337611
3.67303e-06
0.009337751
3.662664e-06
0.009337894
3.650996e-06
0.009338042
3.637837e-06
0.009338194
3.622958e-06
0.009338352
3.606083e-06
0.009338516
3.586877e-06
0.009338687
3.564927e-06
0.009338866
3.539719e-06
0.009339053
3.510606e-06
0.009339252
3.476765e-06
0.009339462
3.437131e-06
0.009339686
3.39031e-06
0.009339926
3.334441e-06
0.009340186
3.267003e-06
0.009340468
3.184515e-06
0.009340776
3.082097e-06
0.009341116
2.95279e-06
0.009341492
2.786582e-06
0.009341907
2.568938e-06
0.009342358
2.279305e-06
0.009342827
1.888793e-06
0.009343264
1.363876e-06
6.752806e-07
0.00932628
6.260212e-07
0.009326691
1.464192e-06
0.00932705
1.920151e-06
0.009327371
2.179178e-06
0.009327688
2.411482e-06
0.009327989
2.604061e-06
0.009328269
2.752358e-06
0.009328529
2.871895e-06
0.009328772
2.971245e-06
0.009328999
3.05415e-06
0.009329214
3.123873e-06
0.009329416
3.183149e-06
0.009329608
3.233987e-06
0.00932979
3.277904e-06
0.009329965
3.316099e-06
0.009330132
3.349521e-06
0.009330293
3.378928e-06
0.009330448
3.40493e-06
0.009330598
3.428025e-06
0.009330744
3.44862e-06
0.009330886
3.467054e-06
0.009331024
3.483608e-06
0.00933116
3.498518e-06
0.009331292
3.511984e-06
0.009331421
3.524175e-06
0.009331549
3.535236e-06
0.009331674
3.545293e-06
0.009331797
3.554451e-06
0.009331918
3.562805e-06
0.009332038
3.570435e-06
0.009332157
3.577412e-06
0.009332274
3.583797e-06
0.00933239
3.589645e-06
0.009332505
3.595003e-06
0.009332619
3.599913e-06
0.009332732
3.604412e-06
0.009332844
3.608533e-06
0.009332956
3.612304e-06
0.009333067
3.615749e-06
0.009333178
3.618893e-06
0.009333288
3.621752e-06
0.009333398
3.624345e-06
0.009333507
3.626686e-06
0.009333616
3.628787e-06
0.009333725
3.630659e-06
0.009333834
3.632309e-06
0.009333943
3.633746e-06
0.009334051
3.634974e-06
0.00933416
3.635996e-06
0.009334268
3.636815e-06
0.009334377
3.637432e-06
0.009334485
3.637845e-06
0.009334594
3.638052e-06
0.009334703
3.638049e-06
0.009334812
3.63783e-06
0.009334922
3.637388e-06
0.009335032
3.636714e-06
0.009335142
3.635797e-06
0.009335253
3.634624e-06
0.009335364
3.63318e-06
0.009335476
3.631448e-06
0.009335589
3.629408e-06
0.009335702
3.627037e-06
0.009335816
3.62431e-06
0.009335932
3.621197e-06
0.009336048
3.617665e-06
0.009336165
3.613676e-06
0.009336284
3.609188e-06
0.009336404
3.604151e-06
0.009336525
3.598511e-06
0.009336648
3.592206e-06
0.009336773
3.585162e-06
0.0093369
3.577298e-06
0.00933703
3.56852e-06
0.009337161
3.558717e-06
0.009337296
3.547765e-06
0.009337433
3.535516e-06
0.009337574
3.521797e-06
0.009337719
3.506407e-06
0.009337867
3.489105e-06
0.009338021
3.469606e-06
0.009338179
3.447568e-06
0.009338344
3.422575e-06
0.009338514
3.394122e-06
0.009338692
3.361585e-06
0.009338879
3.324192e-06
0.009339075
3.28097e-06
0.009339281
3.230686e-06
0.0093395
3.171758e-06
0.009339732
3.102135e-06
0.00933998
3.019127e-06
0.009340245
2.919177e-06
0.00934053
2.797552e-06
0.009340834
2.64793e-06
0.009341159
2.461915e-06
0.009341499
2.228531e-06
0.009341845
1.933987e-06
0.009342171
1.56241e-06
0.009342437
1.098083e-06
5.40977e-07
0.009326142
6.612612e-07
0.009326375
1.233314e-06
0.009326691
1.606947e-06
0.009326996
1.876393e-06
0.009327292
2.116457e-06
0.009327577
2.32063e-06
0.009327844
2.485294e-06
0.009328096
2.62088e-06
0.009328332
2.734857e-06
0.009328555
2.831124e-06
0.009328766
2.912896e-06
0.009328966
2.98293e-06
0.009329156
3.043351e-06
0.009329338
3.095804e-06
0.009329512
3.141608e-06
0.00932968
3.181819e-06
0.009329841
3.217294e-06
0.009329997
3.248728e-06
0.009330148
3.276693e-06
0.009330295
3.301664e-06
0.009330438
3.324033e-06
0.009330577
3.344133e-06
0.009330713
3.362242e-06
0.009330846
3.378598e-06
0.009330977
3.393402e-06
0.009331105
3.406828e-06
0.009331231
3.419027e-06
0.009331355
3.430126e-06
0.009331478
3.44024e-06
0.009331599
3.449465e-06
0.009331718
3.457888e-06
0.009331836
3.465583e-06
0.009331953
3.472617e-06
0.009332069
3.479049e-06
0.009332184
3.484928e-06
0.009332298
3.4903e-06
0.009332411
3.495206e-06
0.009332523
3.499679e-06
0.009332635
3.503752e-06
0.009332747
3.507451e-06
0.009332857
3.510801e-06
0.009332968
3.513821e-06
0.009333078
3.516529e-06
0.009333188
3.518941e-06
0.009333297
3.52107e-06
0.009333407
3.522927e-06
0.009333516
3.524519e-06
0.009333625
3.525853e-06
0.009333734
3.526934e-06
0.009333843
3.527765e-06
0.009333952
3.528346e-06
0.009334061
3.528676e-06
0.00933417
3.528752e-06
0.00933428
3.528569e-06
0.009334389
3.52812e-06
0.009334499
3.527398e-06
0.00933461
3.526389e-06
0.00933472
3.525082e-06
0.009334831
3.523461e-06
0.009334943
3.521507e-06
0.009335055
3.519199e-06
0.009335168
3.516513e-06
0.009335282
3.513422e-06
0.009335396
3.509894e-06
0.009335511
3.505894e-06
0.009335628
3.501381e-06
0.009335745
3.496309e-06
0.009335863
3.490627e-06
0.009335983
3.484276e-06
0.009336105
3.477189e-06
0.009336227
3.469291e-06
0.009336352
3.460496e-06
0.009336479
3.450705e-06
0.009336607
3.439804e-06
0.009336738
3.427664e-06
0.009336872
3.414134e-06
0.009337008
3.39904e-06
0.009337148
3.38218e-06
0.009337291
3.363316e-06
0.009337438
3.342167e-06
0.009337589
3.318404e-06
0.009337745
3.29163e-06
0.009337906
3.261374e-06
0.009338073
3.227063e-06
0.009338247
3.188001e-06
0.009338428
3.143338e-06
0.009338617
3.092019e-06
0.009338815
3.032734e-06
0.009339022
2.963841e-06
0.009339241
2.883269e-06
0.009339472
2.788392e-06
0.009339715
2.675873e-06
0.009339971
2.541482e-06
0.009340239
2.379898e-06
0.009340517
2.184553e-06
0.009340798
1.947649e-06
0.009341071
1.66053e-06
0.009341318
1.315339e-06
0.00934151
9.065047e-07
4.443678e-07
0.009326591
4.870261e-07
0.009326803
1.023244e-06
0.009327035
1.377401e-06
0.00932727
1.64353e-06
0.009327506
1.882495e-06
0.009327739
2.088809e-06
0.009327964
2.259966e-06
0.009328182
2.403723e-06
0.00932839
2.526201e-06
0.009328591
2.630964e-06
0.009328782
2.72096e-06
0.009328966
2.798744e-06
0.009329143
2.866361e-06
0.009329313
2.925437e-06
0.009329477
2.977298e-06
0.009329636
3.023027e-06
0.009329789
3.063517e-06
0.009329938
3.099502e-06
0.009330083
3.131595e-06
0.009330224
3.160307e-06
0.009330362
3.186069e-06
0.009330497
3.209245e-06
0.009330629
3.230144e-06
0.009330758
3.249032e-06
0.009330885
3.266135e-06
0.00933101
3.281648e-06
0.009331133
3.295742e-06
0.009331255
3.308562e-06
0.009331374
3.320239e-06
0.009331493
3.330883e-06
0.00933161
3.340593e-06
0.009331726
3.349455e-06
0.009331841
3.357546e-06
0.009331955
3.364933e-06
0.009332068
3.371675e-06
0.00933218
3.377824e-06
0.009332292
3.383426e-06
0.009332403
3.388522e-06
0.009332514
3.393149e-06
0.009332624
3.397337e-06
0.009332733
3.401114e-06
0.009332843
3.404506e-06
0.009332951
3.407531e-06
0.00933306
3.410208e-06
0.009333169
3.412553e-06
0.009333277
3.414577e-06
0.009333385
3.416291e-06
0.009333493
3.417701e-06
0.009333601
3.418814e-06
0.009333709
3.419632e-06
0.009333817
3.420156e-06
0.009333926
3.420384e-06
0.009334034
3.420315e-06
0.009334143
3.41994e-06
0.009334251
3.419253e-06
0.009334361
3.418244e-06
0.00933447
3.416898e-06
0.00933458
3.415202e-06
0.00933469
3.413135e-06
0.009334801
3.410678e-06
0.009334912
3.407806e-06
0.009335024
3.404489e-06
0.009335137
3.400697e-06
0.00933525
3.396392e-06
0.009335365
3.391534e-06
0.00933548
3.386074e-06
0.009335596
3.379961e-06
0.009335714
3.373134e-06
0.009335833
3.365526e-06
0.009335953
3.35706e-06
0.009336074
3.347648e-06
0.009336197
3.337191e-06
0.009336323
3.325577e-06
0.00933645
3.312677e-06
0.009336579
3.298342e-06
0.009336711
3.282403e-06
0.009336845
3.264662e-06
0.009336982
3.244893e-06
0.009337123
3.22283e-06
0.009337267
3.198163e-06
0.009337415
3.170527e-06
0.009337567
3.139492e-06
0.009337724
3.104545e-06
0.009337885
3.065077e-06
0.009338053
3.020352e-06
0.009338227
2.969485e-06
0.009338408
2.9114e-06
0.009338595
2.844787e-06
0.009338791
2.768043e-06
0.009338995
2.679203e-06
0.009339208
2.575863e-06
0.009339429
2.45509e-06
0.009339657
2.313346e-06
0.00933989
2.146441e-06
0.009340125
1.949576e-06
0.009340355
1.717593e-06
0.00934057
1.445492e-06
0.009340755
1.129922e-06
0.009340892
7.698544e-07
3.756657e-07
0.009326624
4.788064e-07
0.009326745
9.045354e-07
0.009326919
1.205615e-06
0.00932711
1.454778e-06
0.009327311
1.683045e-06
0.009327517
1.883847e-06
0.009327723
2.055102e-06
0.009327924
2.202191e-06
0.009328121
2.329576e-06
0.009328312
2.440079e-06
0.009328497
2.536161e-06
0.009328675
2.620037e-06
0.009328848
2.693554e-06
0.009329015
2.758232e-06
0.009329176
2.815344e-06
0.009329333
2.865951e-06
0.009329485
2.910947e-06
0.009329634
2.951077e-06
0.009329778
2.986973e-06
0.009329919
3.019168e-06
0.009330057
3.048116e-06
0.009330191
3.074203e-06
0.009330324
3.097763e-06
0.009330453
3.11908e-06
0.009330581
3.1384e-06
0.009330706
3.155937e-06
0.00933083
3.171877e-06
0.009330952
3.186383e-06
0.009331073
3.199595e-06
0.009331192
3.211639e-06
0.00933131
3.222625e-06
0.009331426
3.232647e-06
0.009331542
3.241793e-06
0.009331657
3.250137e-06
0.00933177
3.257745e-06
0.009331883
3.264677e-06
0.009331996
3.270985e-06
0.009332107
3.276715e-06
0.009332219
3.281908e-06
0.009332329
3.286599e-06
0.009332439
3.29082e-06
0.009332549
3.294598e-06
0.009332659
3.297957e-06
0.009332768
3.300917e-06
0.009332877
3.303496e-06
0.009332986
3.305707e-06
0.009333094
3.307561e-06
0.009333203
3.309069e-06
0.009333312
3.310234e-06
0.00933342
3.311062e-06
0.009333529
3.311553e-06
0.009333637
3.311705e-06
0.009333746
3.311515e-06
0.009333855
3.310976e-06
0.009333964
3.310079e-06
0.009334073
3.308813e-06
0.009334183
3.307163e-06
0.009334293
3.30511e-06
0.009334404
3.302636e-06
0.009334515
3.299714e-06
0.009334626
3.296319e-06
0.009334738
3.292417e-06
0.009334851
3.287973e-06
0.009334964
3.282945e-06
0.009335078
3.277286e-06
0.009335193
3.270945e-06
0.00933531
3.263861e-06
0.009335427
3.255968e-06
0.009335545
3.247189e-06
0.009335665
3.23744e-06
0.009335786
3.226623e-06
0.009335908
3.214628e-06
0.009336032
3.20133e-06
0.009336158
3.186587e-06
0.009336286
3.170237e-06
0.009336417
3.152094e-06
0.009336549
3.131945e-06
0.009336685
3.109542e-06
0.009336823
3.084601e-06
0.009336964
3.056792e-06
0.009337109
3.025728e-06
0.009337258
2.990957e-06
0.00933741
2.951949e-06
0.009337567
2.908076e-06
0.009337729
2.858598e-06
0.009337896
2.80263e-06
0.009338068
2.739124e-06
0.009338246
2.666824e-06
0.00933843
2.584235e-06
0.009338619
2.489576e-06
0.009338814
2.380739e-06
0.009339014
2.255256e-06
0.009339217
2.110289e-06
0.009339421
1.942671e-06
0.009339622
1.74904e-06
0.009339813
1.526148e-06
0.009339987
1.271358e-06
0.009340133
9.837973e-07
0.009340238
6.645898e-07
3.229192e-07
0.009326862
3.981688e-07
0.009326981
7.883773e-07
0.009327127
1.061533e-06
0.009327291
1.293315e-06
0.009327465
1.510673e-06
0.009327645
1.705402e-06
0.009327825
1.874827e-06
0.009328005
2.022812e-06
0.009328182
2.152672e-06
0.009328355
2.266622e-06
0.009328524
2.366706e-06
0.009328689
2.454837e-06
0.00932885
2.532656e-06
0.009329007
2.60156e-06
0.009329159
2.662738e-06
0.009329307
2.717208e-06
0.009329452
2.765835e-06
0.009329594
2.809357e-06
0.009329732
2.848403e-06
0.009329868
2.883515e-06
0.00933
2.915154e-06
0.009330131
2.94372e-06
0.009330259
2.969558e-06
0.009330384
2.992966e-06
0.009330508
3.014203e-06
0.009330631
3.033497e-06
0.009330751
3.051046e-06
0.009330871
3.067021e-06
0.009330988
3.081577e-06
0.009331105
3.094847e-06
0.009331221
3.10695e-06
0.009331335
3.11799e-06
0.009331449
3.12806e-06
0.009331562
3.137243e-06
0.009331674
3.145611e-06
0.009331785
3.153228e-06
0.009331896
3.160152e-06
0.009332006
3.166433e-06
0.009332115
3.172117e-06
0.009332225
3.177242e-06
0.009332334
3.181844e-06
0.009332442
3.185952e-06
0.009332551
3.189593e-06
0.009332659
3.192789e-06
0.009332766
3.195559e-06
0.009332874
3.197919e-06
0.009332982
3.19988e-06
0.009333089
3.201454e-06
0.009333197
3.202646e-06
0.009333304
3.20346e-06
0.009333412
3.203898e-06
0.00933352
3.203957e-06
0.009333628
3.203634e-06
0.009333736
3.202921e-06
0.009333844
3.201809e-06
0.009333952
3.200284e-06
0.009334061
3.198329e-06
0.00933417
3.195927e-06
0.00933428
3.193053e-06
0.00933439
3.189682e-06
0.0093345
3.185781e-06
0.009334611
3.181318e-06
0.009334723
3.17625e-06
0.009334835
3.170533e-06
0.009334948
3.164116e-06
0.009335062
3.156942e-06
0.009335177
3.148944e-06
0.009335293
3.14005e-06
0.00933541
3.130177e-06
0.009335528
3.119232e-06
0.009335648
3.107111e-06
0.009335769
3.093694e-06
0.009335891
3.078846e-06
0.009336015
3.062416e-06
0.009336141
3.04423e-06
0.009336269
3.024091e-06
0.009336399
3.001772e-06
0.009336532
2.977016e-06
0.009336667
2.949524e-06
0.009336805
2.918955e-06
0.009336946
2.884912e-06
0.00933709
2.846936e-06
0.009337237
2.804493e-06
0.009337388
2.756962e-06
0.009337543
2.703615e-06
0.009337702
2.643604e-06
0.009337865
2.575937e-06
0.009338033
2.499455e-06
0.009338204
2.412809e-06
0.009338379
2.31444e-06
0.009338557
2.202567e-06
0.009338737
2.075185e-06
0.009338917
1.9301e-06
0.009339095
1.765011e-06
0.009339266
1.577669e-06
0.009339426
1.36617e-06
0.009339568
1.129341e-06
0.009339685
8.675472e-07
0.009339767
5.826537e-07
2.820079e-07
0.009326955
3.740146e-07
0.009327036
7.092231e-07
0.00932715
9.505491e-07
0.009327281
1.164708e-06
0.009327424
1.368585e-06
0.009327577
1.55367e-06
0.009327735
1.717435e-06
0.009327895
1.862706e-06
0.009328056
1.991866e-06
0.009328216
2.106538e-06
0.009328374
2.208322e-06
0.00932853
2.29878e-06
0.009328683
2.379302e-06
0.009328834
2.451103e-06
0.009328981
2.515247e-06
0.009329125
2.572665e-06
0.009329266
2.624165e-06
0.009329405
2.670445e-06
0.009329541
2.712115e-06
0.009329675
2.749702e-06
0.009329806
2.783663e-06
0.009329935
2.814397e-06
0.009330062
2.842253e-06
0.009330187
2.867533e-06
0.009330311
2.890504e-06
0.009330433
2.9114e-06
0.009330553
2.930425e-06
0.009330672
2.947762e-06
0.00933079
2.963569e-06
0.009330907
2.977988e-06
0.009331023
2.991144e-06
0.009331137
3.003148e-06
0.009331251
3.014099e-06
0.009331364
3.024085e-06
0.009331477
3.033183e-06
0.009331588
3.041462e-06
0.009331699
3.048985e-06
0.00933181
3.055805e-06
0.00933192
3.061971e-06
0.00933203
3.067526e-06
0.009332139
3.072506e-06
0.009332248
3.076946e-06
0.009332356
3.080872e-06
0.009332465
3.08431e-06
0.009332573
3.087279e-06
0.009332681
3.089798e-06
0.009332789
3.091879e-06
0.009332897
3.093533e-06
0.009333005
3.094768e-06
0.009333112
3.095587e-06
0.00933322
3.095992e-06
0.009333328
3.095981e-06
0.009333436
3.095549e-06
0.009333544
3.094689e-06
0.009333653
3.093389e-06
0.009333761
3.091636e-06
0.00933387
3.089413e-06
0.00933398
3.086697e-06
0.009334089
3.083464e-06
0.009334199
3.079686e-06
0.009334309
3.075329e-06
0.00933442
3.070355e-06
0.009334532
3.064721e-06
0.009334644
3.058378e-06
0.009334757
3.051271e-06
0.00933487
3.043339e-06
0.009334985
3.03451e-06
0.0093351
3.024708e-06
0.009335216
3.013844e-06
0.009335334
3.001819e-06
0.009335452
2.988521e-06
0.009335572
2.973825e-06
0.009335693
2.957589e-06
0.009335816
2.939654e-06
0.00933594
2.919839e-06
0.009336067
2.897938e-06
0.009336195
2.873718e-06
0.009336325
2.846915e-06
0.009336457
2.817225e-06
0.009336592
2.784302e-06
0.009336729
2.74775e-06
0.009336869
2.707114e-06
0.009337011
2.661871e-06
0.009337157
2.61142e-06
0.009337305
2.555069e-06
0.009337457
2.492023e-06
0.009337611
2.421369e-06
0.009337769
2.342066e-06
0.009337928
2.252931e-06
0.00933809
2.152638e-06
0.009338253
2.039718e-06
0.009338416
1.91259e-06
0.009338576
1.769605e-06
0.009338732
1.609146e-06
0.00933888
1.429778e-06
0.009339016
1.230492e-06
0.009339134
1.010988e-06
0.009339229
7.722219e-07
0.009339296
5.162481e-07
2.489591e-07
0.009327105
3.294569e-07
0.009327181
6.351809e-07
0.00932728
8.541214e-07
0.009327396
1.051232e-06
0.009327525
1.24181e-06
0.009327662
1.417282e-06
0.009327805
1.574871e-06
0.009327951
1.716564e-06
0.009328099
1.844021e-06
0.009328247
1.958366e-06
0.009328395
2.060811e-06
0.009328541
2.152608e-06
0.009328685
2.234913e-06
0.009328827
2.308772e-06
0.009328967
2.375125e-06
0.009329104
2.434812e-06
0.00932924
2.488578e-06
0.009329373
2.537078e-06
0.009329504
2.580892e-06
0.009329633
2.620527e-06
0.00932976
2.65643e-06
0.009329885
2.688994e-06
0.009330008
2.718565e-06
0.00933013
2.745447e-06
0.009330251
2.769909e-06
0.00933037
2.792188e-06
0.009330488
2.812493e-06
0.009330604
2.831012e-06
0.00933072
2.847909e-06
0.009330834
2.863331e-06
0.009330948
2.877407e-06
0.009331061
2.890254e-06
0.009331173
2.901975e-06
0.009331284
2.912663e-06
0.009331395
2.922399e-06
0.009331505
2.931257e-06
0.009331614
2.939301e-06
0.009331723
2.946589e-06
0.009331832
2.953173e-06
0.00933194
2.959098e-06
0.009332048
2.964404e-06
0.009332156
2.969125e-06
0.009332264
2.973293e-06
0.009332371
2.976933e-06
0.009332478
2.980066e-06
0.009332585
2.982712e-06
0.009332692
2.984885e-06
0.009332799
2.986595e-06
0.009332906
2.987851e-06
0.009333013
2.988658e-06
0.00933312
2.989016e-06
0.009333227
2.988924e-06
0.009333334
2.988377e-06
0.009333441
2.987367e-06
0.009333548
2.985881e-06
0.009333656
2.983905e-06
0.009333764
2.98142e-06
0.009333872
2.978404e-06
0.009333981
2.974829e-06
0.00933409
2.970666e-06
0.009334199
2.965879e-06
0.009334309
2.960427e-06
0.00933442
2.954265e-06
0.009334531
2.947341e-06
0.009334642
2.939597e-06
0.009334755
2.930967e-06
0.009334868
2.921378e-06
0.009334982
2.910747e-06
0.009335096
2.898982e-06
0.009335212
2.885979e-06
0.009335329
2.871623e-06
0.009335447
2.855783e-06
0.009335566
2.838312e-06
0.009335687
2.819046e-06
0.009335809
2.7978e-06
0.009335933
2.774365e-06
0.009336058
2.748504e-06
0.009336185
2.719952e-06
0.009336313
2.688405e-06
0.009336444
2.653522e-06
0.009336577
2.614913e-06
0.009336712
2.572137e-06
0.009336849
2.524694e-06
0.009336989
2.472014e-06
0.00933713
2.413452e-06
0.009337274
2.34828e-06
0.009337419
2.275677e-06
0.009337567
2.194729e-06
0.009337715
2.104421e-06
0.009337864
2.003649e-06
0.009338013
1.891233e-06
0.009338159
1.765955e-06
0.009338302
1.626611e-06
0.009338439
1.472109e-06
0.009338567
1.301594e-06
0.009338683
1.114637e-06
0.009338783
9.114361e-07
0.009338862
6.931678e-07
0.009338916
4.617847e-07
2.219437e-07
0.009327202
3.05328e-07
0.009327262
5.778427e-07
0.009327343
7.754228e-07
0.009327439
9.574377e-07
0.009327548
1.135239e-06
0.009327665
1.300565e-06
0.00932779
1.450781e-06
0.009327919
1.587341e-06
0.009328052
1.711406e-06
0.009328186
1.823734e-06
0.009328322
1.925229e-06
0.009328457
2.016877e-06
0.009328592
2.099623e-06
0.009328727
2.174344e-06
0.00932886
2.241849e-06
0.009328991
2.30288e-06
0.009329122
2.358105e-06
0.00932925
2.408123e-06
0.009329377
2.453469e-06
0.009329503
2.494623e-06
0.009329627
2.532008e-06
0.00932975
2.566002e-06
0.009329872
2.59694e-06
0.009329992
2.625122e-06
0.009330111
2.650811e-06
0.009330228
2.674245e-06
0.009330345
2.695632e-06
0.009330461
2.71516e-06
0.009330575
2.732995e-06
0.009330689
2.749288e-06
0.009330802
2.76417e-06
0.009330915
2.77776e-06
0.009331026
2.790166e-06
0.009331138
2.801481e-06
0.009331248
2.81179e-06
0.009331358
2.82117e-06
0.009331468
2.829688e-06
0.009331577
2.837405e-06
0.009331685
2.844373e-06
0.009331794
2.85064e-06
0.009331902
2.856248e-06
0.00933201
2.861234e-06
0.009332117
2.865629e-06
0.009332225
2.869461e-06
0.009332332
2.872753e-06
0.009332439
2.875524e-06
0.009332546
2.877789e-06
0.009332653
2.87956e-06
0.00933276
2.880845e-06
0.009332867
2.881649e-06
0.009332974
2.881974e-06
0.009333081
2.881818e-06
0.009333188
2.881175e-06
0.009333295
2.880036e-06
0.009333403
2.878389e-06
0.00933351
2.876219e-06
0.009333618
2.873505e-06
0.009333726
2.870225e-06
0.009333835
2.866349e-06
0.009333944
2.861846e-06
0.009334053
2.856678e-06
0.009334162
2.850803e-06
0.009334272
2.844174e-06
0.009334383
2.836736e-06
0.009334494
2.828428e-06
0.009334606
2.819182e-06
0.009334718
2.808922e-06
0.009334831
2.797562e-06
0.009334945
2.785008e-06
0.00933506
2.771152e-06
0.009335176
2.755875e-06
0.009335293
2.739044e-06
0.00933541
2.72051e-06
0.009335529
2.700106e-06
0.009335649
2.677646e-06
0.009335771
2.652919e-06
0.009335894
2.625692e-06
0.009336018
2.5957e-06
0.009336144
2.562647e-06
0.009336271
2.526199e-06
0.0093364
2.485982e-06
0.00933653
2.441577e-06
0.009336663
2.392509e-06
0.009336796
2.338252e-06
0.009336931
2.278215e-06
0.009337068
2.211743e-06
0.009337206
2.138112e-06
0.009337344
2.056532e-06
0.009337482
1.966151e-06
0.00933762
1.866066e-06
0.009337755
1.755349e-06
0.009337888
1.633082e-06
0.009338016
1.498413e-06
0.009338138
1.350637e-06
0.00933825
1.189301e-06
0.00933835
1.014343e-06
0.009338436
8.262243e-07
0.009338503
6.261659e-07
0.009338548
4.159339e-07
1.992699e-07
0.009327313
2.762925e-07
0.009327367
5.256148e-07
0.009327439
7.060904e-07
0.009327525
8.739239e-07
0.009327623
1.039407e-06
0.009327729
1.19474e-06
0.009327843
1.337354e-06
0.009327962
1.468306e-06
0.009328085
1.588376e-06
0.009328211
1.698027e-06
0.009328338
1.797896e-06
0.009328466
1.888733e-06
0.009328594
1.971288e-06
0.009328722
2.046281e-06
0.009328849
2.114397e-06
0.009328976
2.176276e-06
0.009329101
2.23251e-06
0.009329225
2.283639e-06
0.009329348
2.330153e-06
0.00932947
2.372495e-06
0.009329591
2.411066e-06
0.00932971
2.446225e-06
0.009329829
2.478292e-06
0.009329946
2.507559e-06
0.009330063
2.534282e-06
0.009330178
2.558695e-06
0.009330292
2.581006e-06
0.009330406
2.6014e-06
0.009330519
2.620045e-06
0.009330631
2.637091e-06
0.009330742
2.652672e-06
0.009330853
2.666909e-06
0.009330963
2.679909e-06
0.009331073
2.691771e-06
0.009331182
2.702581e-06
0.00933129
2.712416e-06
0.009331399
2.721347e-06
0.009331507
2.729436e-06
0.009331614
2.736738e-06
0.009331721
2.743302e-06
0.009331828
2.749172e-06
0.009331935
2.754385e-06
0.009332042
2.758975e-06
0.009332148
2.76297e-06
0.009332254
2.766394e-06
0.009332361
2.769267e-06
0.009332467
2.771606e-06
0.009332573
2.773422e-06
0.009332679
2.774724e-06
0.009332785
2.775517e-06
0.009332891
2.775803e-06
0.009332997
2.77558e-06
0.009333104
2.774842e-06
0.00933321
2.77358e-06
0.009333316
2.771781e-06
0.009333423
2.769429e-06
0.00933353
2.766503e-06
0.009333637
2.762979e-06
0.009333745
2.758826e-06
0.009333853
2.754013e-06
0.009333961
2.7485e-06
0.009334069
2.742244e-06
0.009334178
2.735195e-06
0.009334288
2.727296e-06
0.009334398
2.718486e-06
0.009334508
2.708695e-06
0.009334619
2.697843e-06
0.009334731
2.685845e-06
0.009334843
2.672601e-06
0.009334956
2.658005e-06
0.00933507
2.641935e-06
0.009335185
2.624257e-06
0.009335301
2.604821e-06
0.009335417
2.583462e-06
0.009335535
2.559992e-06
0.009335654
2.534205e-06
0.009335773
2.50587e-06
0.009335894
2.474731e-06
0.009336016
2.440501e-06
0.00933614
2.402859e-06
0.009336264