/*--------------------------------*- C++ -*----------------------------------*\
| =========                 |                                                 |
| \\      /  F ield         | OpenFOAM: The Open Source CFD Toolbox           |
|  \\    /   O peration     | Version:  2.3.0                                 |
|   \\  /    A nd           | Web:      www.OpenFOAM.org                      |
|    \\/     M anipulation  |                                                 |
\*---------------------------------------------------------------------------*/
FoamFile
{
    version     2.0;
    format      ascii;
    class       volScalarField;
    location    "9900/wall";
    object      T;
}
// * * * * * * * * * * * * * * * * * * * * * * * * * * * * * * * * * * * * * //

dimensions      [0 0 0 1 0 0 0];

internalField   nonuniform List<scalar> 
2000
(
1153.502
1153.568
1153.602
1153.599
1153.588
1153.575
1153.561
1153.546
1153.53
1153.513
1153.497
1153.48
1153.463
1153.446
1153.429
1153.412
1153.395
1153.378
1153.361
1153.343
1153.326
1153.309
1153.292
1153.274
1153.257
1153.24
1153.223
1153.205
1153.188
1153.171
1153.153
1153.136
1153.119
1153.101
1153.084
1153.067
1153.049
1153.032
1153.015
1152.997
1152.98
1152.963
1152.945
1152.928
1152.911
1152.893
1152.876
1152.859
1152.841
1152.824
1152.806
1152.789
1152.772
1152.754
1152.737
1152.72
1152.702
1152.685
1152.667
1152.65
1152.633
1152.615
1152.598
1152.58
1152.563
1152.546
1152.528
1152.511
1152.493
1152.476
1152.459
1152.441
1152.424
1152.406
1152.389
1152.372
1152.354
1152.337
1152.319
1152.302
1152.284
1152.267
1152.25
1152.232
1152.215
1152.198
1152.18
1152.163
1152.146
1152.128
1152.111
1152.094
1152.077
1152.06
1152.044
1152.028
1152.012
1151.998
1151.985
1151.976
1111.043
1111.066
1111.083
1111.085
1111.08
1111.071
1111.06
1111.048
1111.035
1111.02
1111.006
1110.991
1110.976
1110.961
1110.946
1110.93
1110.915
1110.899
1110.884
1110.868
1110.852
1110.837
1110.821
1110.805
1110.789
1110.774
1110.758
1110.742
1110.726
1110.711
1110.695
1110.679
1110.663
1110.647
1110.631
1110.616
1110.6
1110.584
1110.568
1110.552
1110.536
1110.521
1110.505
1110.489
1110.473
1110.457
1110.441
1110.425
1110.41
1110.394
1110.378
1110.362
1110.346
1110.33
1110.314
1110.298
1110.283
1110.267
1110.251
1110.235
1110.219
1110.203
1110.187
1110.171
1110.155
1110.14
1110.124
1110.108
1110.092
1110.076
1110.06
1110.044
1110.028
1110.012
1109.996
1109.98
1109.965
1109.949
1109.933
1109.917
1109.901
1109.885
1109.869
1109.854
1109.838
1109.822
1109.806
1109.791
1109.775
1109.759
1109.744
1109.729
1109.714
1109.699
1109.685
1109.671
1109.659
1109.647
1109.638
1109.633
1068.561
1068.569
1068.577
1068.579
1068.576
1068.569
1068.561
1068.551
1068.54
1068.528
1068.515
1068.502
1068.489
1068.476
1068.462
1068.448
1068.434
1068.421
1068.407
1068.392
1068.378
1068.364
1068.35
1068.336
1068.322
1068.307
1068.293
1068.279
1068.265
1068.25
1068.236
1068.222
1068.208
1068.193
1068.179
1068.165
1068.15
1068.136
1068.122
1068.107
1068.093
1068.079
1068.064
1068.05
1068.036
1068.021
1068.007
1067.993
1067.978
1067.964
1067.95
1067.935
1067.921
1067.907
1067.892
1067.878
1067.863
1067.849
1067.835
1067.82
1067.806
1067.792
1067.777
1067.763
1067.749
1067.734
1067.72
1067.705
1067.691
1067.677
1067.662
1067.648
1067.634
1067.619
1067.605
1067.59
1067.576
1067.562
1067.547
1067.533
1067.519
1067.504
1067.49
1067.476
1067.462
1067.447
1067.433
1067.419
1067.405
1067.392
1067.378
1067.365
1067.351
1067.339
1067.327
1067.315
1067.305
1067.296
1067.29
1067.286
1026.069
1026.072
1026.076
1026.076
1026.074
1026.069
1026.062
1026.054
1026.045
1026.035
1026.024
1026.013
1026.002
1025.99
1025.978
1025.966
1025.954
1025.942
1025.929
1025.917
1025.904
1025.892
1025.879
1025.866
1025.854
1025.841
1025.828
1025.816
1025.803
1025.79
1025.778
1025.765
1025.752
1025.739
1025.727
1025.714
1025.701
1025.688
1025.675
1025.663
1025.65
1025.637
1025.624
1025.611
1025.599
1025.586
1025.573
1025.56
1025.547
1025.535
1025.522
1025.509
1025.496
1025.483
1025.471
1025.458
1025.445
1025.432
1025.419
1025.406
1025.394
1025.381
1025.368
1025.355
1025.342
1025.329
1025.317
1025.304
1025.291
1025.278
1025.265
1025.252
1025.24
1025.227
1025.214
1025.201
1025.188
1025.175
1025.163
1025.15
1025.137
1025.124
1025.112
1025.099
1025.086
1025.074
1025.061
1025.049
1025.037
1025.025
1025.013
1025.001
1024.99
1024.979
1024.969
1024.959
1024.951
1024.944
1024.939
1024.937
983.5742
983.5754
983.5764
983.5761
983.5741
983.5702
983.5649
983.5583
983.5507
983.5424
983.5335
983.5241
983.5144
983.5043
983.4941
983.4837
983.4731
983.4624
983.4516
983.4408
983.4299
983.4189
983.4079
983.3969
983.3858
983.3747
983.3636
983.3524
983.3413
983.3301
983.3189
983.3077
983.2965
983.2853
983.2741
983.2629
983.2517
983.2404
983.2292
983.218
983.2067
983.1955
983.1842
983.173
983.1617
983.1505
983.1392
983.128
983.1167
983.1055
983.0942
983.0829
983.0717
983.0604
983.0491
983.0379
983.0266
983.0153
983.004
982.9928
982.9815
982.9702
982.9589
982.9477
982.9364
982.9251
982.9138
982.9026
982.8913
982.88
982.8687
982.8575
982.8462
982.8349
982.8237
982.8124
982.8012
982.79
982.7788
982.7676
982.7564
982.7452
982.7341
982.723
982.712
982.7011
982.6902
982.6794
982.6688
982.6583
982.648
982.6381
982.6285
982.6193
982.6108
982.6031
982.5964
982.591
982.5872
982.5854
941.0775
941.0779
941.078
941.0773
941.0754
941.0724
941.0681
941.0629
941.0568
941.05
941.0427
941.035
941.0269
941.0185
941.0099
941.0011
940.9921
940.983
940.9739
940.9646
940.9553
940.9459
940.9365
940.927
940.9175
940.908
940.8985
940.8889
940.8793
940.8697
940.8601
940.8505
940.8409
940.8312
940.8216
940.8119
940.8023
940.7926
940.7829
940.7733
940.7636
940.7539
940.7442
940.7346
940.7249
940.7152
940.7055
940.6958
940.6861
940.6764
940.6667
940.657
940.6473
940.6376
940.6279
940.6182
940.6085
940.5988
940.5891
940.5794
940.5697
940.56
940.5503
940.5406
940.5309
940.5211
940.5114
940.5017
940.492
940.4823
940.4726
940.4629
940.4532
940.4436
940.4339
940.4242
940.4146
940.4049
940.3953
940.3857
940.3761
940.3665
940.357
940.3475
940.3381
940.3287
940.3195
940.3103
940.3013
940.2924
940.2838
940.2754
940.2674
940.2598
940.2529
940.2466
940.2412
940.237
940.2341
940.2326
898.58
898.5801
898.5799
898.5791
898.5776
898.5752
898.5719
898.5678
898.5631
898.5578
898.552
898.5458
898.5393
898.5325
898.5255
898.5183
898.5109
898.5034
898.4959
898.4882
898.4805
898.4727
898.4649
898.457
898.4491
898.4412
898.4332
898.4252
898.4172
898.4092
898.4012
898.3931
898.3851
898.377
898.3689
898.3608
898.3528
898.3447
898.3366
898.3285
898.3204
898.3123
898.3042
898.2961
898.288
898.2798
898.2717
898.2636
898.2555
898.2474
898.2393
898.2311
898.223
898.2149
898.2068
898.1986
898.1905
898.1824
898.1743
898.1661
898.158
898.1499
898.1417
898.1336
898.1255
898.1174
898.1092
898.1011
898.093
898.0849
898.0768
898.0686
898.0605
898.0524
898.0443
898.0363
898.0282
898.0201
898.0121
898.0041
897.9961
897.9881
897.9802
897.9723
897.9645
897.9567
897.949
897.9414
897.934
897.9267
897.9196
897.9128
897.9063
897.9002
897.8947
897.8897
897.8855
897.8822
897.8799
897.8788
856.0821
856.0821
856.0819
856.0812
856.0801
856.0783
856.076
856.073
856.0696
856.0656
856.0613
856.0566
856.0516
856.0463
856.0409
856.0353
856.0295
856.0236
856.0176
856.0116
856.0054
855.9992
855.993
855.9867
855.9804
855.974
855.9677
855.9613
855.9548
855.9484
855.942
855.9355
855.929
855.9225
855.916
855.9096
855.9031
855.8965
855.89
855.8835
855.877
855.8705
855.864
855.8574
855.8509
855.8444
855.8378
855.8313
855.8248
855.8182
855.8117
855.8052
855.7986
855.7921
855.7855
855.779
855.7725
855.7659
855.7594
855.7528
855.7463
855.7398
855.7332
855.7267
855.7201
855.7136
855.7071
855.7005
855.694
855.6875
855.6809
855.6744
855.6679
855.6614
855.6549
855.6484
855.6419
855.6354
855.629
855.6226
855.6162
855.6098
855.6035
855.5972
855.5909
855.5847
855.5786
855.5726
855.5668
855.561
855.5555
855.5501
855.5451
855.5404
855.5361
855.5323
855.5291
855.5265
855.5248
855.5239
813.5838
813.5838
813.5837
813.5834
813.5827
813.5817
813.5802
813.5784
813.5761
813.5734
813.5705
813.5672
813.5637
813.56
813.5561
813.552
813.5478
813.5435
813.5391
813.5346
813.5301
813.5255
813.5208
813.5161
813.5114
813.5066
813.5018
813.497
813.4922
813.4873
813.4825
813.4776
813.4727
813.4678
813.4629
813.458
813.4531
813.4482
813.4432
813.4383
813.4334
813.4284
813.4235
813.4186
813.4136
813.4087
813.4037
813.3988
813.3938
813.3889
813.3839
813.379
813.374
813.3691
813.3641
813.3592
813.3542
813.3493
813.3443
813.3394
813.3344
813.3295
813.3245
813.3196
813.3146
813.3097
813.3047
813.2998
813.2949
813.2899
813.285
813.2801
813.2751
813.2702
813.2653
813.2604
813.2555
813.2507
813.2458
813.241
813.2362
813.2314
813.2266
813.2219
813.2173
813.2127
813.2081
813.2037
813.1993
813.1951
813.191
813.1872
813.1835
813.1801
813.177
813.1742
813.1719
813.1701
813.1689
813.1682
771.0851
771.0852
771.0854
771.0854
771.0853
771.085
771.0845
771.0836
771.0825
771.0812
771.0795
771.0777
771.0756
771.0734
771.071
771.0685
771.0659
771.0631
771.0603
771.0574
771.0544
771.0514
771.0483
771.0452
771.042
771.0388
771.0356
771.0324
771.0292
771.0259
771.0226
771.0193
771.016
771.0127
771.0094
771.0061
771.0028
770.9994
770.9961
770.9928
770.9894
770.9861
770.9827
770.9794
770.976
770.9727
770.9693
770.9659
770.9626
770.9592
770.9559
770.9525
770.9492
770.9458
770.9424
770.9391
770.9357
770.9323
770.929
770.9256
770.9223
770.9189
770.9155
770.9122
770.9088
770.9055
770.9021
770.8988
770.8954
770.8921
770.8888
770.8854
770.8821
770.8788
770.8755
770.8722
770.8689
770.8656
770.8623
770.8591
770.8559
770.8527
770.8495
770.8464
770.8433
770.8403
770.8373
770.8344
770.8316
770.8288
770.8262
770.8237
770.8214
770.8192
770.8173
770.8155
770.8141
770.8129
770.8121
770.8116
728.5859
728.5862
728.5866
728.5871
728.5877
728.5882
728.5885
728.5888
728.5888
728.5887
728.5884
728.588
728.5874
728.5866
728.5857
728.5847
728.5836
728.5824
728.5811
728.5798
728.5784
728.5769
728.5754
728.5739
728.5723
728.5707
728.5691
728.5674
728.5658
728.5641
728.5624
728.5607
728.559
728.5572
728.5555
728.5538
728.552
728.5503
728.5485
728.5468
728.545
728.5433
728.5415
728.5397
728.538
728.5362
728.5344
728.5327
728.5309
728.5291
728.5274
728.5256
728.5238
728.522
728.5203
728.5185
728.5167
728.515
728.5132
728.5114
728.5096
728.5079
728.5061
728.5043
728.5026
728.5008
728.4991
728.4973
728.4955
728.4938
728.492
728.4903
728.4886
728.4868
728.4851
728.4834
728.4817
728.48
728.4784
728.4767
728.4751
728.4735
728.4719
728.4703
728.4688
728.4673
728.4659
728.4645
728.4632
728.4619
728.4607
728.4596
728.4586
728.4577
728.4568
728.4561
728.4554
728.4549
728.4545
728.4542
686.0861
686.0866
686.0874
686.0884
686.0897
686.091
686.0923
686.0936
686.0949
686.096
686.097
686.098
686.0988
686.0995
686.1001
686.1006
686.101
686.1013
686.1016
686.1018
686.1019
686.102
686.1021
686.1021
686.1021
686.1021
686.102
686.102
686.1019
686.1018
686.1017
686.1015
686.1014
686.1013
686.1011
686.101
686.1008
686.1006
686.1005
686.1003
686.1001
686.0999
686.0997
686.0996
686.0994
686.0992
686.099
686.0988
686.0986
686.0985
686.0983
686.0981
686.0979
686.0977
686.0975
686.0973
686.0972
686.097
686.0968
686.0966
686.0964
686.0962
686.0961
686.0959
686.0957
686.0955
686.0954
686.0952
686.095
686.0949
686.0947
686.0945
686.0944
686.0943
686.0941
686.094
686.0939
686.0938
686.0937
686.0936
686.0936
686.0936
686.0935
686.0936
686.0936
686.0937
686.0938
686.0939
686.0941
686.0942
686.0945
686.0947
686.095
686.0953
686.0955
686.0958
686.096
686.0961
686.0961
686.0959
643.5856
643.5863
643.5875
643.5891
643.5911
643.5933
643.5957
643.5981
643.6006
643.603
643.6054
643.6077
643.6099
643.612
643.6141
643.6161
643.618
643.6198
643.6216
643.6234
643.6251
643.6267
643.6283
643.6299
643.6315
643.633
643.6345
643.636
643.6375
643.639
643.6404
643.6419
643.6433
643.6447
643.6461
643.6476
643.649
643.6504
643.6518
643.6532
643.6546
643.656
643.6574
643.6588
643.6602
643.6616
643.6629
643.6643
643.6657
643.6671
643.6685
643.6699
643.6713
643.6727
643.6741
643.6755
643.6769
643.6783
643.6796
643.681
643.6824
643.6838
643.6852
643.6866
643.688
643.6894
643.6909
643.6923
643.6937
643.6951
643.6965
643.698
643.6994
643.7008
643.7023
643.7037
643.7052
643.7067
643.7082
643.7097
643.7112
643.7127
643.7143
643.7158
643.7174
643.719
643.7206
643.7223
643.7239
643.7256
643.7272
643.7289
643.7304
643.7319
643.7333
643.7346
643.7356
643.7363
643.7367
643.7368
601.084
601.085
601.0867
601.0891
601.0919
601.0951
601.0986
601.1022
601.1059
601.1096
601.1133
601.117
601.1206
601.1242
601.1277
601.1312
601.1346
601.1379
601.1412
601.1445
601.1477
601.1509
601.1541
601.1572
601.1603
601.1634
601.1664
601.1695
601.1725
601.1755
601.1786
601.1816
601.1846
601.1875
601.1905
601.1935
601.1965
601.1994
601.2024
601.2054
601.2083
601.2113
601.2143
601.2172
601.2202
601.2231
601.2261
601.2291
601.232
601.235
601.2379
601.2409
601.2439
601.2468
601.2498
601.2527
601.2557
601.2587
601.2616
601.2646
601.2676
601.2705
601.2735
601.2765
601.2794
601.2824
601.2854
601.2884
601.2914
601.2943
601.2973
601.3003
601.3033
601.3063
601.3094
601.3124
601.3154
601.3185
601.3215
601.3246
601.3276
601.3307
601.3338
601.3369
601.3401
601.3432
601.3464
601.3495
601.3526
601.3557
601.3588
601.3618
601.3647
601.3675
601.37
601.3723
601.3742
601.3757
601.3765
601.3768
558.5812
558.5825
558.5849
558.5881
558.592
558.5963
558.6009
558.6058
558.6107
558.6158
558.6208
558.6259
558.6309
558.6359
558.6409
558.6458
558.6507
558.6555
558.6603
558.6651
558.6698
558.6746
558.6792
558.6839
558.6885
558.6931
558.6977
558.7023
558.7069
558.7115
558.716
558.7206
558.7251
558.7296
558.7342
558.7387
558.7432
558.7477
558.7523
558.7568
558.7613
558.7658
558.7703
558.7748
558.7794
558.7839
558.7884
558.7929
558.7974
558.8019
558.8064
558.8109
558.8155
558.82
558.8245
558.829
558.8335
558.838
558.8426
558.8471
558.8516
558.8561
558.8607
558.8652
558.8697
558.8742
558.8788
558.8833
558.8879
558.8924
558.897
558.9015
558.9061
558.9106
558.9152
558.9198
558.9244
558.929
558.9336
558.9382
558.9428
558.9474
558.9521
558.9567
558.9614
558.966
558.9707
558.9753
558.9799
558.9845
558.989
558.9934
558.9977
559.0018
559.0055
559.0089
559.0118
559.014
559.0155
559.016
516.0767
516.0786
516.0818
516.0862
516.0912
516.0968
516.1027
516.1088
516.1151
516.1214
516.1279
516.1343
516.1408
516.1472
516.1536
516.16
516.1663
516.1726
516.1789
516.1852
516.1914
516.1976
516.2038
516.21
516.2161
516.2222
516.2284
516.2345
516.2406
516.2467
516.2527
516.2588
516.2649
516.271
516.277
516.2831
516.2891
516.2952
516.3013
516.3073
516.3134
516.3194
516.3255
516.3315
516.3376
516.3436
516.3497
516.3557
516.3618
516.3678
516.3739
516.3799
516.386
516.392
516.3981
516.4041
516.4102
516.4163
516.4223
516.4284
516.4344
516.4405
516.4466
516.4526
516.4587
516.4648
516.4709
516.4769
516.483
516.4891
516.4952
516.5013
516.5074
516.5135
516.5196
516.5257
516.5318
516.538
516.5441
516.5502
516.5564
516.5625
516.5687
516.5749
516.581
516.5872
516.5934
516.5995
516.6056
516.6117
516.6176
516.6235
516.6292
516.6346
516.6397
516.6443
516.6483
516.6514
516.6535
516.6544
473.5701
473.5728
473.5774
473.5831
473.5895
473.5965
473.6037
473.6112
473.6189
473.6266
473.6344
473.6423
473.6501
473.658
473.6658
473.6736
473.6814
473.6892
473.6969
473.7046
473.7124
473.72
473.7277
473.7354
473.743
473.7506
473.7583
473.7659
473.7735
473.7811
473.7887
473.7962
473.8038
473.8114
473.819
473.8266
473.8341
473.8417
473.8493
473.8568
473.8644
473.872
473.8795
473.8871
473.8947
473.9022
473.9098
473.9174
473.925
473.9325
473.9401
473.9477
473.9553
473.9628
473.9704
473.978
473.9856
473.9931
474.0007
474.0083
474.0159
474.0235
474.0311
474.0387
474.0463
474.0539
474.0615
474.0691
474.0767
474.0843
474.0919
474.0995
474.1071
474.1147
474.1224
474.13
474.1376
474.1453
474.1529
474.1606
474.1682
474.1759
474.1836
474.1912
474.1989
474.2066
474.2142
474.2219
474.2294
474.237
474.2444
474.2518
474.2589
474.2658
474.2723
474.2783
474.2836
474.2879
474.2909
474.2922
431.0606
431.0648
431.0714
431.0789
431.087
431.0954
431.1042
431.1131
431.1222
431.1313
431.1405
431.1497
431.159
431.1682
431.1775
431.1867
431.1959
431.2051
431.2143
431.2235
431.2326
431.2418
431.2509
431.26
431.2692
431.2783
431.2874
431.2965
431.3055
431.3146
431.3237
431.3328
431.3418
431.3509
431.36
431.369
431.3781
431.3872
431.3962
431.4053
431.4144
431.4234
431.4325
431.4416
431.4506
431.4597
431.4687
431.4778
431.4869
431.496
431.505
431.5141
431.5232
431.5323
431.5413
431.5504
431.5595
431.5686
431.5776
431.5867
431.5958
431.6049
431.614
431.6231
431.6322
431.6413
431.6504
431.6595
431.6686
431.6777
431.6868
431.6959
431.705
431.7141
431.7233
431.7324
431.7415
431.7507
431.7598
431.769
431.7781
431.7873
431.7964
431.8056
431.8147
431.8239
431.833
431.8421
431.8512
431.8602
431.8692
431.878
431.8867
431.8951
431.9032
431.9108
431.9176
431.9233
431.9275
431.9296
388.5466
388.5542
388.5641
388.5738
388.5837
388.5938
388.604
388.6144
388.6249
388.6355
388.646
388.6567
388.6673
388.6779
388.6886
388.6992
388.7098
388.7204
388.731
388.7416
388.7522
388.7628
388.7734
388.7839
388.7945
388.8051
388.8156
388.8262
388.8367
388.8472
388.8578
388.8683
388.8788
388.8894
388.8999
388.9104
388.921
388.9315
388.942
388.9526
388.9631
388.9736
388.9842
388.9947
389.0053
389.0158
389.0263
389.0369
389.0474
389.058
389.0685
389.0791
389.0896
389.1002
389.1107
389.1213
389.1318
389.1424
389.1529
389.1635
389.1741
389.1846
389.1952
389.2058
389.2163
389.2269
389.2375
389.248
389.2586
389.2692
389.2798
389.2904
389.301
389.3116
389.3222
389.3328
389.3434
389.354
389.3646
389.3752
389.3858
389.3964
389.407
389.4177
389.4283
389.4389
389.4495
389.4601
389.4707
389.4812
389.4916
389.502
389.5123
389.5223
389.5321
389.5414
389.5501
389.5578
389.5638
389.5672
346.0246
346.0411
346.0564
346.0683
346.0798
346.0915
346.1034
346.1152
346.1271
346.1391
346.1511
346.1631
346.1751
346.1871
346.1991
346.2111
346.2231
346.2351
346.2471
346.2591
346.2711
346.283
346.295
346.307
346.319
346.331
346.3429
346.3549
346.3669
346.3788
346.3908
346.4028
346.4148
346.4267
346.4387
346.4507
346.4627
346.4746
346.4866
346.4986
346.5106
346.5225
346.5345
346.5465
346.5585
346.5705
346.5825
346.5944
346.6064
346.6184
346.6304
346.6424
346.6544
346.6664
346.6784
346.6904
346.7024
346.7144
346.7264
346.7384
346.7504
346.7625
346.7745
346.7865
346.7985
346.8105
346.8225
346.8346
346.8466
346.8586
346.8707
346.8827
346.8947
346.9068
346.9188
346.9308
346.9429
346.9549
346.967
346.979
346.9911
347.0032
347.0152
347.0273
347.0393
347.0514
347.0635
347.0755
347.0875
347.0995
347.1115
347.1234
347.1353
347.147
347.1586
347.1699
347.1809
347.1911
347.2
347.2061
)
;

boundaryField
{
    leftLet
    {
        type            zeroGradient;
    }
    rightLet
    {
        type            zeroGradient;
    }
    frontAndBack
    {
        type            empty;
    }
    wall_to_bottomAir
    {
        type            compressible::turbulentTemperatureCoupledBaffleMixed;
        refValue        nonuniform List<scalar> 
100
(
1199.426
1199.645
1199.704
1199.665
1199.639
1199.622
1199.604
1199.585
1199.566
1199.547
1199.528
1199.509
1199.49
1199.471
1199.453
1199.434
1199.415
1199.396
1199.377
1199.358
1199.339
1199.32
1199.301
1199.283
1199.264
1199.245
1199.226
1199.207
1199.188
1199.169
1199.15
1199.131
1199.112
1199.093
1199.075
1199.056
1199.037
1199.018
1198.999
1198.98
1198.961
1198.942
1198.923
1198.904
1198.885
1198.866
1198.847
1198.828
1198.809
1198.79
1198.771
1198.752
1198.734
1198.715
1198.696
1198.677
1198.658
1198.639
1198.62
1198.601
1198.582
1198.563
1198.544
1198.525
1198.506
1198.487
1198.468
1198.449
1198.43
1198.411
1198.392
1198.373
1198.354
1198.335
1198.316
1198.297
1198.277
1198.258
1198.239
1198.22
1198.201
1198.182
1198.163
1198.144
1198.125
1198.106
1198.087
1198.068
1198.049
1198.03
1198.011
1197.992
1197.973
1197.953
1197.934
1197.915
1197.896
1197.877
1197.858
1197.839
)
;
        refGradient     uniform 0;
        valueFraction   nonuniform List<scalar> 
100
(
0.4615385
0.4615385
0.4615385
0.4615385
0.4615385
0.4615385
0.4615385
0.4615385
0.4615385
0.4615385
0.4615385
0.4615385
0.4615385
0.4615385
0.4615385
0.4615385
0.4615385
0.4615385
0.4615385
0.4615385
0.4615385
0.4615385
0.4615385
0.4615385
0.4615385
0.4615385
0.4615385
0.4615385
0.4615385
0.4615385
0.4615385
0.4615385
0.4615385
0.4615385
0.4615385
0.4615385
0.4615385
0.4615385
0.4615385
0.4615385
0.4615385
0.4615385
0.4615385
0.4615385
0.4615385
0.4615385
0.4615385
0.4615385
0.4615385
0.4615385
0.4615385
0.4615385
0.4615385
0.4615385
0.4615385
0.4615385
0.4615385
0.4615385
0.4615385
0.4615385
0.4615385
0.4615385
0.4615385
0.4615385
0.4615385
0.4615385
0.4615385
0.4615385
0.4615385
0.4615385
0.4615385
0.4615385
0.4615385
0.4615385
0.4615385
0.4615385
0.4615385
0.4615385
0.4615385
0.4615385
0.4615385
0.4615385
0.4615385
0.4615385
0.4615385
0.4615385
0.4615385
0.4615385
0.4615385
0.4615385
0.4615385
0.4615385
0.4615385
0.4615385
0.4615385
0.4615385
0.4615385
0.4615385
0.4615385
0.4615385
)
;
        value           nonuniform List<scalar> 
100
(
1174.698
1174.834
1174.88
1174.861
1174.842
1174.828
1174.812
1174.794
1174.777
1174.76
1174.742
1174.724
1174.706
1174.689
1174.671
1174.653
1174.635
1174.617
1174.599
1174.581
1174.563
1174.545
1174.527
1174.509
1174.491
1174.473
1174.455
1174.437
1174.419
1174.401
1174.383
1174.365
1174.347
1174.328
1174.31
1174.292
1174.274
1174.256
1174.238
1174.22
1174.202
1174.184
1174.166
1174.148
1174.13
1174.112
1174.093
1174.075
1174.057
1174.039
1174.021
1174.003
1173.985
1173.967
1173.949
1173.931
1173.912
1173.894
1173.876
1173.858
1173.84
1173.822
1173.804
1173.785
1173.767
1173.749
1173.731
1173.713
1173.695
1173.677
1173.658
1173.64
1173.622
1173.604
1173.586
1173.568
1173.55
1173.531
1173.513
1173.495
1173.477
1173.459
1173.441
1173.422
1173.404
1173.386
1173.368
1173.35
1173.332
1173.314
1173.296
1173.278
1173.26
1173.242
1173.224
1173.207
1173.189
1173.173
1173.157
1173.143
)
;
        Tnbr            T;
        thicknessLayers 0();
        kappaLayers     0();
        kappa           solidThermo;
        kappaName       none;
    }
    wall_to_topAir
    {
        type            compressible::turbulentTemperatureCoupledBaffleMixed;
        refValue        nonuniform List<scalar> 
100
(
299.9409
299.9862
300.0099
300.0207
300.0332
300.0469
300.0605
300.0739
300.0873
300.1008
300.1142
300.1277
300.1411
300.1546
300.168
300.1815
300.195
300.2084
300.2219
300.2354
300.2488
300.2623
300.2758
300.2893
300.3027
300.3162
300.3297
300.3432
300.3567
300.3702
300.3836
300.3971
300.4106
300.4241
300.4376
300.4511
300.4646
300.4781
300.4916
300.5051
300.5186
300.5321
300.5457
300.5592
300.5727
300.5862
300.5997
300.6132
300.6268
300.6403
300.6538
300.6673
300.6809
300.6944
300.7079
300.7215
300.735
300.7485
300.7621
300.7756
300.7892
300.8027
300.8162
300.8298
300.8433
300.8569
300.8705
300.884
300.8976
300.9111
300.9247
300.9383
300.9518
300.9654
300.979
300.9925
301.0061
301.0197
301.0333
301.0468
301.0604
301.074
301.0876
301.1012
301.1148
301.1283
301.1419
301.1555
301.1691
301.1827
301.1963
301.2099
301.2235
301.2371
301.2507
301.2643
301.2779
301.2915
301.3051
301.3187
)
;
        refGradient     uniform 0;
        valueFraction   nonuniform List<scalar> 
100
(
0.4615385
0.4615385
0.4615385
0.4615385
0.4615385
0.4615385
0.4615385
0.4615385
0.4615385
0.4615385
0.4615385
0.4615385
0.4615385
0.4615385
0.4615385
0.4615385
0.4615385
0.4615385
0.4615385
0.4615385
0.4615385
0.4615385
0.4615385
0.4615385
0.4615385
0.4615385
0.4615385
0.4615385
0.4615385
0.4615385
0.4615385
0.4615385
0.4615385
0.4615385
0.4615385
0.4615385
0.4615385
0.4615385
0.4615385
0.4615385
0.4615385
0.4615385
0.4615385
0.4615385
0.4615385
0.4615385
0.4615385
0.4615385
0.4615385
0.4615385
0.4615385
0.4615385
0.4615385
0.4615385
0.4615385
0.4615385
0.4615385
0.4615385
0.4615385
0.4615385
0.4615385
0.4615385
0.4615385
0.4615385
0.4615385
0.4615385
0.4615385
0.4615385
0.4615385
0.4615385
0.4615385
0.4615385
0.4615385
0.4615385
0.4615385
0.4615385
0.4615385
0.4615385
0.4615385
0.4615385
0.4615385
0.4615385
0.4615385
0.4615385
0.4615385
0.4615385
0.4615385
0.4615385
0.4615385
0.4615385
0.4615385
0.4615385
0.4615385
0.4615385
0.4615385
0.4615385
0.4615385
0.4615385
0.4615385
0.4615385
)
;
        value           nonuniform List<scalar> 
100
(
324.7552
324.785
324.8042
324.8156
324.8275
324.8402
324.8528
324.8654
324.878
324.8906
324.9033
324.916
324.9286
324.9413
324.954
324.9667
324.9793
324.992
325.0047
325.0174
325.03
325.0427
325.0554
325.068
325.0807
325.0934
325.1061
325.1187
325.1314
325.1441
325.1567
325.1694
325.1821
325.1948
325.2074
325.2201
325.2328
325.2455
325.2581
325.2708
325.2835
325.2962
325.3089
325.3216
325.3343
325.347
325.3597
325.3723
325.385
325.3977
325.4104
325.4231
325.4358
325.4486
325.4613
325.474
325.4867
325.4994
325.5121
325.5248
325.5375
325.5503
325.563
325.5757
325.5884
325.6012
325.6139
325.6266
325.6394
325.6521
325.6648
325.6776
325.6903
325.7031
325.7158
325.7285
325.7413
325.7541
325.7668
325.7796
325.7923
325.8051
325.8179
325.8306
325.8434
325.8561
325.8689
325.8817
325.8944
325.9072
325.9199
325.9326
325.9452
325.9578
325.9704
325.9827
325.9949
326.0067
326.0177
326.0273
)
;
        Tnbr            T;
        thicknessLayers 0();
        kappaLayers     0();
        kappa           solidThermo;
        kappaName       none;
    }
}


// ************************************************************************* //
