/*--------------------------------*- C++ -*----------------------------------*\
| =========                 |                                                 |
| \\      /  F ield         | OpenFOAM: The Open Source CFD Toolbox           |
|  \\    /   O peration     | Version:  2.3.0                                 |
|   \\  /    A nd           | Web:      www.OpenFOAM.org                      |
|    \\/     M anipulation  |                                                 |
\*---------------------------------------------------------------------------*/
FoamFile
{
    version     2.0;
    format      ascii;
    class       surfaceScalarField;
    location    "9600/bottomAir";
    object      phi;
}
// * * * * * * * * * * * * * * * * * * * * * * * * * * * * * * * * * * * * * //

dimensions      [1 0 -1 0 0 0 0];

internalField   nonuniform List<scalar> 
7860
(
0.006594715
-1.217568e-06
0.00659507
-3.542372e-07
0.006595161
-8.95169e-08
0.006595274
-1.121298e-07
0.006595357
-8.226626e-08
0.006595411
-5.386124e-08
0.006595456
-4.543696e-08
0.006595499
-4.266321e-08
0.00659554
-4.121732e-08
0.006595582
-4.124694e-08
0.006595624
-4.228772e-08
0.006595668
-4.381422e-08
0.006595713
-4.559792e-08
0.006595761
-4.752453e-08
0.00659581
-4.951498e-08
0.006595861
-5.151535e-08
0.006595915
-5.349247e-08
0.00659597
-5.542441e-08
0.006596027
-5.729666e-08
0.006596086
-5.909974e-08
0.006596147
-6.082743e-08
0.006596209
-6.247633e-08
0.006596273
-6.404436e-08
0.006596339
-6.553122e-08
0.006596406
-6.693707e-08
0.006596474
-6.826326e-08
0.006596543
-6.951121e-08
0.006596614
-7.068313e-08
0.006596686
-7.178111e-08
0.006596758
-7.280776e-08
0.006596832
-7.37655e-08
0.006596907
-7.465705e-08
0.006596982
-7.548493e-08
0.006597058
-7.625178e-08
0.006597135
-7.696005e-08
0.006597213
-7.761221e-08
0.006597291
-7.821054e-08
0.00659737
-7.875724e-08
0.006597449
-7.925436e-08
0.006597529
-7.970379e-08
0.006597609
-8.010731e-08
0.006597689
-8.046646e-08
0.00659777
-8.078272e-08
0.006597851
-8.105728e-08
0.006597932
-8.12913e-08
0.006598014
-8.148561e-08
0.006598095
-8.164103e-08
0.006598177
-8.175803e-08
0.006598259
-8.18371e-08
0.006598341
-8.187832e-08
0.006598422
-8.188185e-08
0.006598504
-8.184742e-08
0.006598586
-8.177481e-08
0.006598668
-8.16634e-08
0.006598749
-8.151263e-08
0.00659883
-8.132149e-08
0.006598912
-8.108907e-08
0.006598992
-8.0814e-08
0.006599073
-8.049501e-08
0.006599153
-8.013037e-08
0.006599233
-7.971844e-08
0.006599312
-7.925714e-08
0.006599391
-7.874449e-08
0.006599469
-7.817804e-08
0.006599546
-7.755549e-08
0.006599623
-7.687408e-08
0.006599699
-7.613117e-08
0.006599775
-7.532372e-08
0.006599849
-7.444883e-08
0.006599923
-7.350323e-08
0.006599995
-7.24838e-08
0.006600066
-7.138711e-08
0.006600137
-7.020995e-08
0.006600205
-6.894881e-08
0.006600273
-6.760049e-08
0.006600339
-6.616156e-08
0.006600404
-6.462898e-08
0.006600467
-6.299959e-08
0.006600528
-6.127067e-08
0.006600588
-5.943954e-08
0.006600645
-5.750404e-08
0.0066007
-5.546218e-08
0.006600754
-5.331266e-08
0.006600805
-5.10544e-08
0.006600853
-4.868719e-08
0.0066009
-4.62112e-08
0.006600943
-4.362754e-08
0.006600984
-4.093785e-08
0.006601022
-3.814484e-08
0.006601058
-3.525182e-08
0.00660109
-3.226328e-08
0.006601119
-2.918442e-08
0.006601145
-2.602173e-08
0.006601168
-2.278268e-08
0.006601187
-1.947647e-08
0.006601203
-1.611452e-08
0.006601216
-1.271211e-08
0.006601225
-9.295492e-09
0.006601231
-5.899097e-09
-2.661567e-09
0.006593728
-6.608685e-07
0.006593731
-3.567767e-07
0.006593794
-1.516446e-07
0.006593812
-1.285829e-07
0.006593839
-1.092e-07
0.006593874
-8.819671e-08
0.006593909
-8.010178e-08
0.006593945
-7.848652e-08
0.006593982
-7.901496e-08
0.006594022
-8.104565e-08
0.006594064
-8.413662e-08
0.006594108
-8.780549e-08
0.006594154
-9.177197e-08
0.006594202
-9.588224e-08
0.006594253
-1.000314e-07
0.006594305
-1.041474e-07
0.00659436
-1.081822e-07
0.006594416
-1.121035e-07
0.006594475
-1.158897e-07
0.006594535
-1.195262e-07
0.006594597
-1.230042e-07
0.006594661
-1.263185e-07
0.006594726
-1.29467e-07
0.006594793
-1.324495e-07
0.006594861
-1.352679e-07
0.006594931
-1.379247e-07
0.006595002
-1.404237e-07
0.006595074
-1.427693e-07
0.006595147
-1.449663e-07
0.006595221
-1.470198e-07
0.006595296
-1.489351e-07
0.006595372
-1.507174e-07
0.006595449
-1.523722e-07
0.006595527
-1.539046e-07
0.006595605
-1.553198e-07
0.006595684
-1.566226e-07
0.006595764
-1.578177e-07
0.006595844
-1.589095e-07
0.006595924
-1.599021e-07
0.006596005
-1.607994e-07
0.006596087
-1.616049e-07
0.006596169
-1.623218e-07
0.006596251
-1.629529e-07
0.006596333
-1.635009e-07
0.006596416
-1.639677e-07
0.006596499
-1.643553e-07
0.006596582
-1.646652e-07
0.006596665
-1.648985e-07
0.006596748
-1.650559e-07
0.006596831
-1.651379e-07
0.006596914
-1.651445e-07
0.006596998
-1.650755e-07
0.006597081
-1.649301e-07
0.006597164
-1.647075e-07
0.006597247
-1.64406e-07
0.006597329
-1.640242e-07
0.006597412
-1.635598e-07
0.006597494
-1.630105e-07
0.006597576
-1.623733e-07
0.006597657
-1.616451e-07
0.006597738
-1.608223e-07
0.006597819
-1.599011e-07
0.006597899
-1.588772e-07
0.006597979
-1.57746e-07
0.006598058
-1.565026e-07
0.006598136
-1.551417e-07
0.006598213
-1.536578e-07
0.00659829
-1.520451e-07
0.006598366
-1.502974e-07
0.006598441
-1.484085e-07
0.006598515
-1.463719e-07
0.006598587
-1.441809e-07
0.006598659
-1.418288e-07
0.006598729
-1.393088e-07
0.006598798
-1.366142e-07
0.006598866
-1.337385e-07
0.006598932
-1.306751e-07
0.006598996
-1.27418e-07
0.006599059
-1.239614e-07
0.00659912
-1.203001e-07
0.006599179
-1.164296e-07
0.006599236
-1.123461e-07
0.00659929
-1.080464e-07
0.006599343
-1.035289e-07
0.006599393
-9.879266e-08
0.006599441
-9.383827e-08
0.006599486
-8.866758e-08
0.006599528
-8.328416e-08
0.006599568
-7.769301e-08
0.006599604
-7.190106e-08
0.006599638
-6.591686e-08
0.006599668
-5.975102e-08
0.006599696
-5.341589e-08
0.00659972
-4.6926e-08
0.006599741
-4.029782e-08
0.006599758
-3.355022e-08
0.006599772
-2.670432e-08
0.006599783
-1.978467e-08
0.00659979
-1.281719e-08
-5.836504e-09
0.006594
-3.676996e-07
0.006593898
-2.533906e-07
0.0065939
-1.529485e-07
0.00659391
-1.37505e-07
0.00659393
-1.290358e-07
0.006593961
-1.183454e-07
0.006593995
-1.14055e-07
0.006594031
-1.145352e-07
0.006594069
-1.171797e-07
0.00659411
-1.212535e-07
0.006594152
-1.263608e-07
0.006594196
-1.320916e-07
0.006594242
-1.381583e-07
0.006594291
-1.443779e-07
0.006594341
-1.506225e-07
0.006594394
-1.568007e-07
0.006594448
-1.628485e-07
0.006594505
-1.687218e-07
0.006594563
-1.7439e-07
0.006594623
-1.798329e-07
0.006594685
-1.850375e-07
0.006594749
-1.899966e-07
0.006594814
-1.94707e-07
0.006594881
-1.991687e-07
0.006594949
-2.033843e-07
0.006595018
-2.07358e-07
0.006595089
-2.110954e-07
0.006595161
-2.146031e-07
0.006595233
-2.178882e-07
0.006595307
-2.209585e-07
0.006595382
-2.238219e-07
0.006595458
-2.264864e-07
0.006595534
-2.289601e-07
0.006595612
-2.312507e-07
0.00659569
-2.333659e-07
0.006595768
-2.35313e-07
0.006595848
-2.370992e-07
0.006595927
-2.387309e-07
0.006596008
-2.402144e-07
0.006596088
-2.415554e-07
0.006596169
-2.427592e-07
0.006596251
-2.438306e-07
0.006596333
-2.447739e-07
0.006596415
-2.455928e-07
0.006596497
-2.462907e-07
0.006596579
-2.468702e-07
0.006596662
-2.473336e-07
0.006596745
-2.476825e-07
0.006596828
-2.479182e-07
0.006596911
-2.480412e-07
0.006596993
-2.480516e-07
0.006597076
-2.47949e-07
0.006597159
-2.477323e-07
0.006597242
-2.474002e-07
0.006597324
-2.469504e-07
0.006597407
-2.463805e-07
0.006597489
-2.456872e-07
0.006597571
-2.448668e-07
0.006597652
-2.439152e-07
0.006597733
-2.428275e-07
0.006597814
-2.415984e-07
0.006597894
-2.402221e-07
0.006597974
-2.386922e-07
0.006598053
-2.370017e-07
0.006598132
-2.351433e-07
0.00659821
-2.33109e-07
0.006598287
-2.308906e-07
0.006598364
-2.284793e-07
0.006598439
-2.258658e-07
0.006598514
-2.230406e-07
0.006598587
-2.199941e-07
0.00659866
-2.167161e-07
0.006598731
-2.131964e-07
0.006598801
-2.094249e-07
0.00659887
-2.053913e-07
0.006598937
-2.010857e-07
0.006599003
-1.964982e-07
0.006599067
-1.916196e-07
0.00659913
-1.864412e-07
0.006599191
-1.80955e-07
0.006599249
-1.751539e-07
0.006599306
-1.690321e-07
0.00659936
-1.62585e-07
0.006599413
-1.558095e-07
0.006599463
-1.487043e-07
0.00659951
-1.412701e-07
0.006599555
-1.335097e-07
0.006599597
-1.254279e-07
0.006599636
-1.170326e-07
0.006599673
-1.083336e-07
0.006599706
-9.934405e-08
0.006599736
-9.007946e-08
0.006599764
-8.055844e-08
0.006599787
-7.080238e-08
0.006599808
-6.083564e-08
0.006599825
-5.068541e-08
0.006599839
-4.038141e-08
0.006599849
-2.995584e-08
0.006599856
-1.943921e-08
-8.86225e-09
0.00659409
-2.105045e-07
0.006594031
-1.933542e-07
0.006594034
-1.552245e-07
0.006594046
-1.479893e-07
0.006594063
-1.455464e-07
0.006594087
-1.42424e-07
0.006594116
-1.427773e-07
0.006594148
-1.464959e-07
0.006594183
-1.521393e-07
0.006594221
-1.590267e-07
0.006594261
-1.667779e-07
0.006594304
-1.750494e-07
0.006594349
-1.83577e-07
0.006594397
-1.921786e-07
0.006594447
-2.007241e-07
0.006594499
-2.091195e-07
0.006594554
-2.172978e-07
0.00659461
-2.252119e-07
0.006594668
-2.328297e-07
0.006594729
-2.401299e-07
0.006594791
-2.470996e-07
0.006594854
-2.537319e-07
0.006594919
-2.600252e-07
0.006594986
-2.659811e-07
0.006595054
-2.716044e-07
0.006595124
-2.769016e-07
0.006595194
-2.818811e-07
0.006595266
-2.865522e-07
0.006595339
-2.909252e-07
0.006595413
-2.950107e-07
0.006595488
-2.988196e-07
0.006595564
-3.023629e-07
0.006595641
-3.056515e-07
0.006595718
-3.086961e-07
0.006595796
-3.115069e-07
0.006595875
-3.14094e-07
0.006595954
-3.164668e-07
0.006596034
-3.186341e-07
0.006596114
-3.206043e-07
0.006596195
-3.223852e-07
0.006596276
-3.239837e-07
0.006596358
-3.254064e-07
0.00659644
-3.266589e-07
0.006596522
-3.277464e-07
0.006596604
-3.286731e-07
0.006596687
-3.294429e-07
0.00659677
-3.300585e-07
0.006596852
-3.305223e-07
0.006596935
-3.308359e-07
0.006597018
-3.31e-07
0.006597101
-3.310148e-07
0.006597184
-3.308798e-07
0.006597267
-3.305935e-07
0.00659735
-3.30154e-07
0.006597432
-3.295586e-07
0.006597515
-3.288037e-07
0.006597597
-3.278852e-07
0.006597679
-3.267981e-07
0.00659776
-3.255368e-07
0.006597841
-3.24095e-07
0.006597922
-3.224654e-07
0.006598003
-3.206404e-07
0.006598083
-3.186112e-07
0.006598162
-3.163689e-07
0.006598241
-3.139033e-07
0.006598319
-3.112041e-07
0.006598396
-3.082599e-07
0.006598473
-3.050591e-07
0.006598548
-3.015893e-07
0.006598623
-2.978377e-07
0.006598697
-2.937913e-07
0.00659877
-2.894364e-07
0.006598841
-2.847595e-07
0.006598912
-2.797466e-07
0.006598981
-2.743841e-07
0.006599048
-2.686584e-07
0.006599114
-2.625562e-07
0.006599179
-2.56065e-07
0.006599241
-2.491728e-07
0.006599302
-2.418687e-07
0.006599361
-2.341431e-07
0.006599418
-2.259878e-07
0.006599473
-2.173963e-07
0.006599525
-2.083643e-07
0.006599576
-1.988898e-07
0.006599623
-1.889733e-07
0.006599668
-1.786182e-07
0.006599711
-1.67831e-07
0.00659975
-1.566215e-07
0.006599787
-1.450031e-07
0.006599821
-1.329928e-07
0.006599851
-1.206113e-07
0.006599879
-1.078832e-07
0.006599903
-9.48368e-08
0.006599923
-8.150407e-08
0.00659994
-6.792045e-08
0.006599954
-5.412432e-08
0.006599964
-4.015723e-08
0.006599971
-2.60593e-08
-1.18867e-08
0.006594158
-1.41854e-07
0.00659412
-1.547485e-07
0.006594112
-1.45922e-07
0.006594114
-1.496844e-07
0.006594125
-1.557113e-07
0.006594144
-1.611124e-07
0.006594169
-1.678488e-07
0.006594199
-1.763103e-07
0.006594233
-1.859132e-07
0.00659427
-1.962501e-07
0.006594311
-2.070735e-07
0.006594354
-2.181592e-07
0.006594399
-2.293171e-07
0.006594447
-2.404029e-07
0.006594498
-2.513082e-07
0.006594551
-2.619513e-07
0.006594606
-2.722723e-07
0.006594662
-2.822277e-07
0.006594721
-2.917879e-07
0.006594782
-3.009333e-07
0.006594844
-3.096527e-07
0.006594909
-3.179412e-07
0.006594974
-3.25799e-07
0.006595041
-3.332302e-07
0.00659511
-3.402419e-07
0.00659518
-3.468436e-07
0.006595251
-3.530465e-07
0.006595323
-3.588629e-07
0.006595397
-3.64306e-07
0.006595471
-3.693896e-07
0.006595546
-3.741276e-07
0.006595622
-3.785342e-07
0.006595699
-3.82623e-07
0.006595777
-3.864076e-07
0.006595855
-3.89901e-07
0.006595934
-3.931158e-07
0.006596014
-3.960639e-07
0.006596094
-3.987563e-07
0.006596174
-4.012037e-07
0.006596255
-4.034157e-07
0.006596337
-4.054011e-07
0.006596418
-4.071681e-07
0.0065965
-4.087237e-07
0.006596583
-4.100744e-07
0.006596665
-4.112255e-07
0.006596748
-4.121817e-07
0.006596831
-4.129468e-07
0.006596914
-4.135234e-07
0.006596997
-4.139136e-07
0.00659708
-4.141183e-07
0.006597163
-4.141378e-07
0.006597246
-4.139714e-07
0.006597329
-4.136173e-07
0.006597412
-4.13073e-07
0.006597495
-4.123352e-07
0.006597577
-4.113994e-07
0.00659766
-4.102605e-07
0.006597742
-4.089123e-07
0.006597823
-4.073476e-07
0.006597905
-4.055586e-07
0.006597986
-4.035363e-07
0.006598067
-4.01271e-07
0.006598147
-3.987519e-07
0.006598226
-3.959675e-07
0.006598305
-3.929053e-07
0.006598384
-3.895522e-07
0.006598461
-3.85894e-07
0.006598538
-3.819159e-07
0.006598614
-3.776025e-07
0.006598689
-3.729376e-07
0.006598763
-3.679047e-07
0.006598836
-3.624866e-07
0.006598908
-3.56666e-07
0.006598979
-3.504255e-07
0.006599048
-3.437475e-07
0.006599116
-3.366148e-07
0.006599183
-3.290105e-07
0.006599247
-3.209183e-07
0.006599311
-3.123231e-07
0.006599372
-3.032107e-07
0.006599431
-2.935685e-07
0.006599489
-2.833859e-07
0.006599544
-2.726544e-07
0.006599597
-2.613679e-07
0.006599648
-2.495234e-07
0.006599696
-2.371211e-07
0.006599741
-2.241648e-07
0.006599784
-2.106622e-07
0.006599824
-1.966252e-07
0.006599861
-1.820703e-07
0.006599895
-1.670186e-07
0.006599926
-1.514958e-07
0.006599954
-1.355326e-07
0.006599978
-1.191643e-07
0.006599999
-1.024309e-07
0.006600016
-8.537663e-08
0.00660003
-6.804934e-08
0.006600041
-5.050082e-08
0.006600047
-3.278104e-08
-1.496172e-08
0.00659416
-9.962669e-08
0.006594137
-1.305115e-07
0.006594133
-1.413554e-07
0.006594139
-1.549586e-07
0.006594153
-1.684728e-07
0.006594173
-1.807844e-07
0.006594198
-1.931072e-07
0.006594228
-2.060364e-07
0.006594262
-2.194754e-07
0.006594298
-2.332371e-07
0.006594338
-2.471753e-07
0.006594381
-2.611454e-07
0.006594427
-2.7501e-07
0.006594475
-2.886537e-07
0.006594526
-3.019851e-07
0.006594579
-3.14933e-07
0.006594634
-3.274437e-07
0.006594691
-3.394784e-07
0.00659475
-3.510104e-07
0.006594811
-3.620231e-07
0.006594874
-3.725078e-07
0.006594938
-3.824626e-07
0.006595004
-3.918906e-07
0.006595072
-4.007988e-07
0.006595141
-4.091978e-07
0.006595211
-4.171001e-07
0.006595282
-4.245205e-07
0.006595355
-4.314748e-07
0.006595428
-4.379796e-07
0.006595503
-4.44052e-07
0.006595578
-4.497094e-07
0.006595655
-4.54969e-07
0.006595732
-4.598477e-07
0.00659581
-4.643622e-07
0.006595888
-4.685282e-07
0.006595968
-4.72361e-07
0.006596047
-4.75875e-07
0.006596128
-4.790839e-07
0.006596208
-4.820002e-07
0.00659629
-4.846357e-07
0.006596371
-4.870011e-07
0.006596453
-4.891061e-07
0.006596535
-4.909593e-07
0.006596618
-4.925684e-07
0.0065967
-4.9394e-07
0.006596783
-4.950796e-07
0.006596866
-4.959916e-07
0.006596949
-4.966795e-07
0.006597033
-4.971455e-07
0.006597116
-4.97391e-07
0.006597199
-4.974161e-07
0.006597282
-4.9722e-07
0.006597366
-4.968008e-07
0.006597449
-4.961553e-07
0.006597532
-4.952795e-07
0.006597614
-4.941682e-07
0.006597697
-4.928151e-07
0.006597779
-4.912128e-07
0.006597861
-4.893528e-07
0.006597943
-4.872256e-07
0.006598024
-4.848204e-07
0.006598105
-4.821256e-07
0.006598185
-4.791281e-07
0.006598265
-4.758142e-07
0.006598344
-4.721687e-07
0.006598423
-4.681758e-07
0.006598501
-4.638184e-07
0.006598578
-4.590787e-07
0.006598654
-4.539378e-07
0.00659873
-4.483764e-07
0.006598804
-4.423741e-07
0.006598878
-4.359102e-07
0.00659895
-4.289637e-07
0.006599021
-4.215131e-07
0.006599091
-4.135371e-07
0.006599159
-4.050144e-07
0.006599226
-3.959242e-07
0.006599291
-3.862466e-07
0.006599355
-3.759626e-07
0.006599417
-3.650546e-07
0.006599477
-3.535068e-07
0.006599535
-3.413057e-07
0.00659959
-3.284402e-07
0.006599644
-3.149025e-07
0.006599695
-3.006881e-07
0.006599744
-2.857965e-07
0.00659979
-2.702316e-07
0.006599833
-2.54002e-07
0.006599874
-2.371216e-07
0.006599911
-2.196098e-07
0.006599946
-2.014913e-07
0.006599977
-1.827972e-07
0.006600005
-1.635641e-07
0.00660003
-1.438347e-07
0.006600051
-1.236571e-07
0.006600068
-1.030849e-07
0.006600083
-8.217614e-08
0.006600093
-6.099408e-08
0.0066001
-3.960016e-08
-1.808519e-08
0.006594165
-8.157652e-08
0.006594155
-1.197994e-07
0.006594155
-1.403943e-07
0.006594162
-1.609114e-07
0.006594175
-1.806617e-07
0.006594193
-1.990414e-07
0.006594217
-2.167725e-07
0.006594246
-2.343974e-07
0.006594278
-2.520052e-07
0.006594314
-2.695268e-07
0.006594354
-2.868855e-07
0.006594397
-3.039978e-07
0.006594442
-3.207746e-07
0.006594491
-3.371351e-07
0.006594542
-3.53012e-07
0.006594595
-3.683518e-07
0.006594651
-3.831138e-07
0.006594708
-3.972689e-07
0.006594768
-4.107983e-07
0.00659483
-4.236917e-07
0.006594893
-4.35946e-07
0.006594958
-4.475642e-07
0.006595025
-4.585541e-07
0.006595093
-4.689272e-07
0.006595162
-4.786983e-07
0.006595233
-4.878843e-07
0.006595305
-4.965038e-07
0.006595378
-5.045766e-07
0.006595452
-5.121234e-07
0.006595527
-5.191649e-07
0.006595603
-5.257221e-07
0.00659568
-5.318158e-07
0.006595757
-5.374661e-07
0.006595835
-5.426927e-07
0.006595914
-5.475145e-07
0.006595994
-5.519495e-07
0.006596074
-5.560148e-07
0.006596155
-5.597263e-07
0.006596236
-5.630989e-07
0.006596317
-5.661464e-07
0.006596399
-5.688813e-07
0.006596481
-5.71315e-07
0.006596564
-5.734576e-07
0.006596646
-5.753182e-07
0.006596729
-5.769043e-07
0.006596812
-5.782224e-07
0.006596896
-5.792777e-07
0.006596979
-5.800743e-07
0.006597062
-5.806148e-07
0.006597146
-5.809006e-07
0.006597229
-5.809321e-07
0.006597313
-5.807083e-07
0.006597396
-5.802268e-07
0.00659748
-5.794842e-07
0.006597563
-5.784756e-07
0.006597646
-5.77195e-07
0.006597729
-5.75635e-07
0.006597811
-5.737871e-07
0.006597893
-5.716414e-07
0.006597975
-5.691866e-07
0.006598057
-5.664103e-07
0.006598138
-5.632987e-07
0.006598219
-5.598367e-07
0.006598299
-5.560081e-07
0.006598379
-5.517953e-07
0.006598458
-5.471794e-07
0.006598536
-5.421406e-07
0.006598613
-5.366578e-07
0.00659869
-5.307089e-07
0.006598766
-5.242709e-07
0.006598841
-5.173198e-07
0.006598915
-5.098311e-07
0.006598988
-5.017797e-07
0.006599059
-4.931402e-07
0.00659913
-4.83887e-07
0.006599199
-4.739947e-07
0.006599266
-4.634384e-07
0.006599332
-4.521939e-07
0.006599396
-4.402383e-07
0.006599459
-4.2755e-07
0.006599519
-4.141098e-07
0.006599578
-3.999008e-07
0.006599634
-3.849089e-07
0.006599689
-3.69124e-07
0.00659974
-3.525398e-07
0.00659979
-3.351546e-07
0.006599837
-3.169721e-07
0.006599881
-2.980015e-07
0.006599922
-2.782582e-07
0.00659996
-2.577641e-07
0.006599995
-2.36548e-07
0.006600027
-2.146457e-07
0.006600055
-1.921002e-07
0.00660008
-1.689615e-07
0.006600102
-1.452865e-07
0.00660012
-1.211385e-07
0.006600134
-9.658628e-08
0.006600145
-7.170501e-08
0.006600152
-4.656794e-08
-2.128271e-08
0.006594152
-7.098334e-08
0.006594148
-1.150485e-07
0.006594152
-1.428036e-07
0.006594161
-1.691324e-07
0.006594175
-1.946201e-07
0.006594195
-2.185812e-07
0.00659422
-2.413949e-07
0.006594249
-2.635576e-07
0.006594283
-2.852504e-07
0.00659432
-3.064849e-07
0.00659436
-3.272427e-07
0.006594403
-3.474905e-07
0.00659445
-3.6718e-07
0.006594499
-3.862599e-07
0.00659455
-4.046849e-07
0.006594604
-4.224176e-07
0.00659466
-4.394295e-07
0.006594719
-4.557009e-07
0.006594779
-4.712207e-07
0.006594841
-4.859851e-07
0.006594905
-4.999968e-07
0.006594971
-5.13264e-07
0.006595038
-5.257994e-07
0.006595107
-5.376196e-07
0.006595177
-5.487437e-07
0.006595248
-5.591933e-07
0.00659532
-5.689913e-07
0.006595394
-5.781619e-07
0.006595468
-5.867297e-07
0.006595544
-5.947196e-07
0.00659562
-6.021562e-07
0.006595697
-6.090639e-07
0.006595775
-6.154665e-07
0.006595854
-6.213868e-07
0.006595933
-6.268467e-07
0.006596013
-6.318672e-07
0.006596094
-6.364679e-07
0.006596174
-6.406674e-07
0.006596256
-6.444827e-07
0.006596337
-6.479297e-07
0.00659642
-6.510228e-07
0.006596502
-6.537752e-07
0.006596585
-6.561984e-07
0.006596668
-6.583026e-07
0.006596751
-6.600967e-07
0.006596834
-6.615881e-07
0.006596918
-6.627827e-07
0.006597001
-6.636851e-07
0.006597085
-6.642985e-07
0.006597169
-6.646244e-07
0.006597252
-6.646632e-07
0.006597336
-6.644138e-07
0.00659742
-6.638735e-07
0.006597503
-6.630384e-07
0.006597586
-6.61903e-07
0.00659767
-6.604603e-07
0.006597753
-6.587021e-07
0.006597836
-6.566185e-07
0.006597918
-6.541982e-07
0.006598
-6.514283e-07
0.006598082
-6.482946e-07
0.006598164
-6.447814e-07
0.006598245
-6.408713e-07
0.006598325
-6.365457e-07
0.006598405
-6.317843e-07
0.006598485
-6.265656e-07
0.006598563
-6.208666e-07
0.006598641
-6.14663e-07
0.006598718
-6.079292e-07
0.006598795
-6.006386e-07
0.00659887
-5.927634e-07
0.006598945
-5.842752e-07
0.006599018
-5.751446e-07
0.00659909
-5.653418e-07
0.006599161
-5.548371e-07
0.006599231
-5.436004e-07
0.006599299
-5.316023e-07
0.006599366
-5.188142e-07
0.00659943
-5.052086e-07
0.006599494
-4.907598e-07
0.006599555
-4.754443e-07
0.006599614
-4.592413e-07
0.006599672
-4.421337e-07
0.006599727
-4.241082e-07
0.006599779
-4.05156e-07
0.006599829
-3.852741e-07
0.006599877
-3.644651e-07
0.006599921
-3.427385e-07
0.006599963
-3.201108e-07
0.006600002
-2.966064e-07
0.006600038
-2.722574e-07
0.00660007
-2.471048e-07
0.006600099
-2.211978e-07
0.006600125
-1.945941e-07
0.006600147
-1.673595e-07
0.006600165
-1.39568e-07
0.00660018
-1.112998e-07
0.006600191
-8.264364e-08
0.006600198
-5.36858e-08
-2.455498e-08
0.00659414
-6.779838e-08
0.006594142
-1.161092e-07
0.006594149
-1.487307e-07
0.00659416
-1.797347e-07
0.006594177
-2.101287e-07
0.006594197
-2.389796e-07
0.006594223
-2.664276e-07
0.006594252
-2.929076e-07
0.006594285
-3.186115e-07
0.006594322
-3.435714e-07
0.006594363
-3.677901e-07
0.006594407
-3.912581e-07
0.006594453
-4.139498e-07
0.006594503
-4.358335e-07
0.006594555
-4.568804e-07
0.006594609
-4.770668e-07
0.006594666
-4.963761e-07
0.006594725
-5.147989e-07
0.006594786
-5.323327e-07
0.006594849
-5.489816e-07
0.006594914
-5.647558e-07
0.00659498
-5.796702e-07
0.006595048
-5.937436e-07
0.006595117
-6.069987e-07
0.006595188
-6.194602e-07
0.00659526
-6.31155e-07
0.006595333
-6.421113e-07
0.006595407
-6.523581e-07
0.006595482
-6.619246e-07
0.006595558
-6.708401e-07
0.006595635
-6.791335e-07
0.006595713
-6.86833e-07
0.006595791
-6.939661e-07
0.00659587
-7.005591e-07
0.00659595
-7.066371e-07
0.00659603
-7.122242e-07
0.006596111
-7.173426e-07
0.006596193
-7.220135e-07
0.006596274
-7.262563e-07
0.006596356
-7.300889e-07
0.006596439
-7.335277e-07
0.006596522
-7.365875e-07
0.006596605
-7.392814e-07
0.006596688
-7.41621e-07
0.006596771
-7.436161e-07
0.006596855
-7.452752e-07
0.006596939
-7.466049e-07
0.006597023
-7.476103e-07
0.006597107
-7.482951e-07
0.006597191
-7.48661e-07
0.006597275
-7.487085e-07
0.006597359
-7.484363e-07
0.006597443
-7.478414e-07
0.006597527
-7.469194e-07
0.00659761
-7.456642e-07
0.006597694
-7.44068e-07
0.006597777
-7.421214e-07
0.006597861
-7.398134e-07
0.006597943
-7.371313e-07
0.006598026
-7.340605e-07
0.006598108
-7.305852e-07
0.00659819
-7.266875e-07
0.006598272
-7.223478e-07
0.006598353
-7.175452e-07
0.006598433
-7.122567e-07
0.006598513
-7.064578e-07
0.006598592
-7.001226e-07
0.006598671
-6.932233e-07
0.006598749
-6.85731e-07
0.006598826
-6.776152e-07
0.006598902
-6.688441e-07
0.006598977
-6.593851e-07
0.006599051
-6.492044e-07
0.006599124
-6.382679e-07
0.006599195
-6.265409e-07
0.006599266
-6.139887e-07
0.006599335
-6.005768e-07
0.006599402
-5.862718e-07
0.006599468
-5.710413e-07
0.006599532
-5.548547e-07
0.006599594
-5.376838e-07
0.006599655
-5.195036e-07
0.006599713
-5.002928e-07
0.006599769
-4.800343e-07
0.006599822
-4.587168e-07
0.006599873
-4.363346e-07
0.006599922
-4.128892e-07
0.006599967
-3.883894e-07
0.00660001
-3.628525e-07
0.00660005
-3.363048e-07
0.006600086
-3.087819e-07
0.006600119
-2.803294e-07
0.006600149
-2.51003e-07
0.006600175
-2.208682e-07
0.006600198
-1.900004e-07
0.006600217
-1.584845e-07
0.006600232
-1.264133e-07
0.006600243
-9.388921e-08
0.006600251
-6.101242e-08
-2.793124e-08
0.006594122
-6.733424e-08
0.006594127
-1.200122e-07
0.006594136
-1.569216e-07
0.006594149
-1.921402e-07
0.006594167
-2.271134e-07
0.006594189
-2.606041e-07
0.006594215
-2.925254e-07
0.006594246
-3.232442e-07
0.00659428
-3.529311e-07
0.006594318
-3.816138e-07
0.006594359
-4.093034e-07
0.006594404
-4.360052e-07
0.006594452
-4.61711e-07
0.006594502
-4.864057e-07
0.006594555
-5.100757e-07
0.006594611
-5.32711e-07
0.006594669
-5.543072e-07
0.006594729
-5.748652e-07
0.006594791
-5.943925e-07
0.006594855
-6.129018e-07
0.00659492
-6.304111e-07
0.006594987
-6.469427e-07
0.006595056
-6.625225e-07
0.006595126
-6.771794e-07
0.006595198
-6.909445e-07
0.00659527
-7.038505e-07
0.006595344
-7.15931e-07
0.006595419
-7.272202e-07
0.006595495
-7.377522e-07
0.006595571
-7.475611e-07
0.006595649
-7.5668e-07
0.006595727
-7.651412e-07
0.006595806
-7.729761e-07
0.006595885
-7.802145e-07
0.006595966
-7.868849e-07
0.006596046
-7.930143e-07
0.006596128
-7.986278e-07
0.006596209
-8.037492e-07
0.006596291
-8.084001e-07
0.006596374
-8.126008e-07
0.006596457
-8.163694e-07
0.00659654
-8.197224e-07
0.006596623
-8.226745e-07
0.006596707
-8.252386e-07
0.006596791
-8.274256e-07
0.006596874
-8.292448e-07
0.006596959
-8.307038e-07
0.006597043
-8.318082e-07
0.006597127
-8.325619e-07
0.006597211
-8.32967e-07
0.006597296
-8.330241e-07
0.00659738
-8.327315e-07
0.006597464
-8.320863e-07
0.006597548
-8.310833e-07
0.006597632
-8.297158e-07
0.006597716
-8.279753e-07
0.0065978
-8.258513e-07
0.006597883
-8.233315e-07
0.006597966
-8.20402e-07
0.006598049
-8.170465e-07
0.006598132
-8.132474e-07
0.006598214
-8.089848e-07
0.006598296
-8.042369e-07
0.006598378
-7.989803e-07
0.006598459
-7.931893e-07
0.006598539
-7.868367e-07
0.006598619
-7.798931e-07
0.006598698
-7.723277e-07
0.006598776
-7.641075e-07
0.006598854
-7.551985e-07
0.00659893
-7.455646e-07
0.006599006
-7.351688e-07
0.006599081
-7.239728e-07
0.006599155
-7.119376e-07
0.006599227
-6.990233e-07
0.006599298
-6.851903e-07
0.006599368
-6.703986e-07
0.006599436
-6.546095e-07
0.006599503
-6.377849e-07
0.006599568
-6.19889e-07
0.006599631
-6.008882e-07
0.006599693
-5.807525e-07
0.006599752
-5.594555e-07
0.006599809
-5.369762e-07
0.006599863
-5.132992e-07
0.006599915
-4.884159e-07
0.006599965
-4.623255e-07
0.006600011
-4.350357e-07
0.006600055
-4.06564e-07
0.006600096
-3.76938e-07
0.006600133
-3.461965e-07
0.006600167
-3.143895e-07
0.006600198
-2.81579e-07
0.006600225
-2.47839e-07
0.006600248
-2.132548e-07
0.006600267
-1.77923e-07
0.006600283
-1.419502e-07
0.006600294
-1.054542e-07
0.006600302
-6.855085e-08
-3.141303e-08
0.006594103
-6.955675e-08
0.006594111
-1.265797e-07
0.006594122
-1.673596e-07
0.006594137
-2.065501e-07
0.006594157
-2.45835e-07
0.00659418
-2.836887e-07
0.006594208
-3.198549e-07
0.006594239
-3.546495e-07
0.006594275
-3.882145e-07
0.006594313
-4.205603e-07
0.006594356
-4.516941e-07
0.006594401
-4.816252e-07
0.00659445
-5.103533e-07
0.006594501
-5.378733e-07
0.006594555
-5.641816e-07
0.006594612
-5.892789e-07
0.006594671
-6.131706e-07
0.006594731
-6.358676e-07
0.006594794
-6.573866e-07
0.006594859
-6.77749e-07
0.006594926
-6.969813e-07
0.006594994
-7.151137e-07
0.006595063
-7.321799e-07
0.006595134
-7.482157e-07
0.006595206
-7.632591e-07
0.00659528
-7.773492e-07
0.006595354
-7.905257e-07
0.00659543
-8.028284e-07
0.006595506
-8.14297e-07
0.006595584
-8.249704e-07
0.006595662
-8.348864e-07
0.006595741
-8.440818e-07
0.00659582
-8.525918e-07
0.006595901
-8.604502e-07
0.006595981
-8.676887e-07
0.006596063
-8.743376e-07
0.006596144
-8.804249e-07
0.006596227
-8.859769e-07
0.006596309
-8.910179e-07
0.006596392
-8.955701e-07
0.006596475
-8.996535e-07
0.006596559
-9.032866e-07
0.006596643
-9.064853e-07
0.006596727
-9.092639e-07
0.006596811
-9.116346e-07
0.006596895
-9.136075e-07
0.00659698
-9.151908e-07
0.006597064
-9.163909e-07
0.006597149
-9.172121e-07
0.006597233
-9.176566e-07
0.006597318
-9.17725e-07
0.006597403
-9.174157e-07
0.006597487
-9.167253e-07
0.006597572
-9.156483e-07
0.006597656
-9.141773e-07
0.006597741
-9.123029e-07
0.006597825
-9.100137e-07
0.006597909
-9.072962e-07
0.006597992
-9.041351e-07
0.006598076
-9.005126e-07
0.006598159
-8.964092e-07
0.006598242
-8.91803e-07
0.006598324
-8.866702e-07
0.006598406
-8.809846e-07
0.006598488
-8.747181e-07
0.006598569
-8.678404e-07
0.006598649
-8.603189e-07
0.006598729
-8.521193e-07
0.006598808
-8.432051e-07
0.006598886
-8.335379e-07
0.006598964
-8.230776e-07
0.00659904
-8.117824e-07
0.006599116
-7.996094e-07
0.006599191
-7.865141e-07
0.006599264
-7.724517e-07
0.006599336
-7.573765e-07
0.006599407
-7.412431e-07
0.006599476
-7.240065e-07
0.006599544
-7.056228e-07
0.00659961
-6.860499e-07
0.006599675
-6.652483e-07
0.006599737
-6.43182e-07
0.006599798
-6.19819e-07
0.006599856
-5.95133e-07
0.006599911
-5.691039e-07
0.006599965
-5.417191e-07
0.006600015
-5.129748e-07
0.006600063
-4.828767e-07
0.006600108
-4.514415e-07
0.00660015
-4.186978e-07
0.006600188
-3.846867e-07
0.006600223
-3.494627e-07
0.006600255
-3.13094e-07
0.006600283
-2.75663e-07
0.006600307
-2.372656e-07
0.006600327
-1.980112e-07
0.006600343
-1.580205e-07
0.006600355
-1.174282e-07
0.006600363
-7.636671e-08
-3.503302e-08
0.006594081
-7.304544e-08
0.00659409
-1.347534e-07
0.006594104
-1.793932e-07
0.00659412
-2.224895e-07
0.006594141
-2.659915e-07
0.006594166
-3.081152e-07
0.006594195
-3.484584e-07
0.006594227
-3.872915e-07
0.006594264
-4.247223e-07
0.006594304
-4.607353e-07
0.006594348
-4.953258e-07
0.006594395
-5.28501e-07
0.006594444
-5.602639e-07
0.006594497
-5.906161e-07
0.006594552
-6.19563e-07
0.00659461
-6.471148e-07
0.00659467
-6.732874e-07
0.006594732
-6.981019e-07
0.006594796
-7.215849e-07
0.006594862
-7.437677e-07
0.00659493
-7.646861e-07
0.006594999
-7.843792e-07
0.00659507
-8.02889e-07
0.006595142
-8.202594e-07
0.006595215
-8.365359e-07
0.006595289
-8.517645e-07
0.006595365
-8.659917e-07
0.006595441
-8.792633e-07
0.006595518
-8.916246e-07
0.006595596
-9.0312e-07
0.006595675
-9.137922e-07
0.006595755
-9.236825e-07
0.006595835
-9.328304e-07
0.006595916
-9.412733e-07
0.006595997