/*--------------------------------*- C++ -*----------------------------------*\
| =========                 |                                                 |
| \\      /  F ield         | OpenFOAM: The Open Source CFD Toolbox           |
|  \\    /   O peration     | Version:  2.3.0                                 |
|   \\  /    A nd           | Web:      www.OpenFOAM.org                      |
|    \\/     M anipulation  |                                                 |
\*---------------------------------------------------------------------------*/
FoamFile
{
    version     2.0;
    format      ascii;
    class       surfaceScalarField;
    location    "9800/topAir";
    object      phi;
}
// * * * * * * * * * * * * * * * * * * * * * * * * * * * * * * * * * * * * * //

dimensions      [1 0 -1 0 0 0 0];

internalField   nonuniform List<scalar> 
7860
(
0.008894611
4.282925e-06
0.008890808
3.805421e-06
0.008887797
3.013284e-06
0.008884713
3.086245e-06
0.008881495
3.219418e-06
0.008878238
3.258467e-06
0.008874954
3.283687e-06
0.008871642
3.312426e-06
0.008868305
3.336789e-06
0.008864949
3.355949e-06
0.008861578
3.371672e-06
0.008858193
3.384796e-06
0.008854797
3.395734e-06
0.008851392
3.404879e-06
0.008847979
3.412563e-06
0.008844559
3.419042e-06
0.008841135
3.424516e-06
0.008837705
3.429146e-06
0.008834272
3.43306e-06
0.008830835
3.436363e-06
0.008827396
3.439141e-06
0.008823954
3.441466e-06
0.008820511
3.443397e-06
0.008817066
3.444983e-06
0.008813619
3.446265e-06
0.008810172
3.44728e-06
0.008806724
3.448057e-06
0.008803275
3.448622e-06
0.008799826
3.448999e-06
0.008796376
3.449206e-06
0.008792927
3.449261e-06
0.008789478
3.449177e-06
0.008786029
3.448968e-06
0.00878258
3.448645e-06
0.008779131
3.448218e-06
0.008775684
3.447696e-06
0.008772236
3.447086e-06
0.00876879
3.446395e-06
0.008765344
3.445629e-06
0.008761899
3.444793e-06
0.008758455
3.443892e-06
0.008755012
3.442929e-06
0.00875157
3.441908e-06
0.00874813
3.440831e-06
0.00874469
3.439702e-06
0.008741251
3.438522e-06
0.008737814
3.437293e-06
0.008734378
3.436016e-06
0.008730943
3.434691e-06
0.00872751
3.43332e-06
0.008724078
3.431902e-06
0.008720647
3.430437e-06
0.008717218
3.428925e-06
0.008713791
3.427364e-06
0.008710365
3.425753e-06
0.008706941
3.424092e-06
0.008703518
3.422376e-06
0.008700098
3.420605e-06
0.008696679
3.418774e-06
0.008693262
3.416881e-06
0.008689847
3.414921e-06
0.008686434
3.41289e-06
0.008683023
3.410781e-06
0.008679615
3.408591e-06
0.008676208
3.40631e-06
0.008672804
3.403932e-06
0.008669403
3.401447e-06
0.008666004
3.398846e-06
0.008662608
3.396116e-06
0.008659215
3.393245e-06
0.008655824
3.390217e-06
0.008652437
3.387016e-06
0.008649054
3.383621e-06
0.008645674
3.38001e-06
0.008642298
3.376155e-06
0.008638926
3.372026e-06
0.008635558
3.367587e-06
0.008632195
3.362794e-06
0.008628837
3.357598e-06
0.008625486
3.351936e-06
0.00862214
3.345737e-06
0.008618801
3.338911e-06
0.008615469
3.331349e-06
0.008612147
3.322914e-06
0.008608833
3.313435e-06
0.00860553
3.302695e-06
0.00860224
3.290407e-06
0.008598964
3.276196e-06
0.008595704
3.25955e-06
0.008592464
3.23976e-06
0.008589248
3.215805e-06
0.008586062
3.186159e-06
0.008582914
3.14845e-06
0.008579815
3.098767e-06
0.008576785
3.030386e-06
0.008573854
2.930617e-06
0.008571078
2.776224e-06
0.008568566
2.511802e-06
0.00856651
2.055584e-06
1.035711e-06
0.008903525
5.91028e-07
0.008904925
2.407134e-06
0.008905351
2.590129e-06
0.008905794
2.644901e-06
0.008906208
2.807078e-06
0.008906545
2.922625e-06
0.00890683
2.999408e-06
0.00890708
3.062463e-06
0.008907302
3.114652e-06
0.008907501
3.156969e-06
0.008907681
3.191902e-06
0.008907844
3.22127e-06
0.008907993
3.24621e-06
0.00890813
3.26758e-06
0.008908257
3.286055e-06
0.008908373
3.302152e-06
0.008908481
3.316273e-06
0.008908581
3.328736e-06
0.008908674
3.339795e-06
0.008908761
3.349657e-06
0.008908841
3.358488e-06
0.008908916
3.366429e-06
0.008908986
3.373594e-06
0.008909051
3.380079e-06
0.008909111
3.385967e-06
0.008909166
3.391327e-06
0.008909218
3.396218e-06
0.008909266
3.40069e-06
0.00890931
3.404788e-06
0.00890935
3.408549e-06
0.008909388
3.412006e-06
0.008909421
3.415189e-06
0.008909452
3.418122e-06
0.00890948
3.420828e-06
0.008909505
3.423326e-06
0.008909527
3.425633e-06
0.008909546
3.427763e-06
0.008909562
3.429731e-06
0.008909576
3.431548e-06
0.008909588
3.433223e-06
0.008909597
3.434767e-06
0.008909604
3.436186e-06
0.008909608
3.437487e-06
0.00890961
3.438675e-06
0.00890961
3.439756e-06
0.008909608
3.440734e-06
0.008909603
3.441611e-06
0.008909597
3.44239e-06
0.008909588
3.443072e-06
0.008909578
3.443659e-06
0.008909566
3.44415e-06
0.008909552
3.444546e-06
0.008909536
3.444844e-06
0.008909518
3.445043e-06
0.008909498
3.445141e-06
0.008909477
3.445133e-06
0.008909455
3.445016e-06
0.00890943
3.444785e-06
0.008909405
3.444433e-06
0.008909378
3.443954e-06
0.008909349
3.443339e-06
0.008909319
3.442579e-06
0.008909289
3.441664e-06
0.008909257
3.440581e-06
0.008909224
3.439317e-06
0.00890919
3.437856e-06
0.008909155
3.43618e-06
0.008909119
3.434269e-06
0.008909083
3.4321e-06
0.008909047
3.429647e-06
0.00890901
3.42688e-06
0.008908973
3.423765e-06
0.008908937
3.420262e-06
0.0089089
3.416327e-06
0.008908865
3.411906e-06
0.00890883
3.406938e-06
0.008908796
3.401353e-06
0.008908764
3.395064e-06
0.008908733
3.387974e-06
0.008908705
3.379961e-06
0.00890868
3.370884e-06
0.008908658
3.360568e-06
0.008908641
3.3488e-06
0.008908628
3.335316e-06
0.008908622
3.319786e-06
0.008908623
3.301789e-06
0.008908633
3.280783e-06
0.008908653
3.256057e-06
0.008908686
3.226664e-06
0.008908734
3.191309e-06
0.008908802
3.148186e-06
0.008908893
3.09471e-06
0.008909014
3.027083e-06
0.008909173
2.939555e-06
0.008909381
2.823217e-06
0.008909648
2.663688e-06
0.008909986
2.438074e-06
0.008910392
2.105399e-06
0.008910839
1.608456e-06
8.007501e-07
0.008900946
8.709458e-07
0.008901674
1.681103e-06
0.008902229
2.037884e-06
0.008902642
2.233866e-06
0.008903013
2.438219e-06
0.008903339
2.597329e-06
0.008903628
2.710832e-06
0.00890389
2.800584e-06
0.00890413
2.874293e-06
0.008904352
2.934762e-06
0.008904559
2.984973e-06
0.008904753
3.027307e-06
0.008904935
3.063378e-06
0.008905108
3.094377e-06
0.008905273
3.121229e-06
0.00890543
3.144654e-06
0.008905581
3.165216e-06
0.008905726
3.183365e-06
0.008905866
3.199463e-06
0.008906002
3.213806e-06
0.008906134
3.226635e-06
0.008906262
3.238152e-06
0.008906387
3.248524e-06
0.008906509
3.257893e-06
0.008906628
3.266378e-06
0.008906745
3.27408e-06
0.00890686
3.281089e-06
0.008906973
3.287477e-06
0.008907084
3.29331e-06
0.008907194
3.298645e-06
0.008907303
3.30353e-06
0.00890741
3.308008e-06
0.008907515
3.312117e-06
0.00890762
3.31589e-06
0.008907724
3.319355e-06
0.008907827
3.322537e-06
0.008907929
3.32546e-06
0.008908031
3.328143e-06
0.008908132
3.330604e-06
0.008908232
3.332857e-06
0.008908332
3.334915e-06
0.008908431
3.336791e-06
0.00890853
3.338494e-06
0.008908629
3.340033e-06
0.008908727
3.341415e-06
0.008908825
3.342645e-06
0.008908923
3.343729e-06
0.00890902
3.344669e-06
0.008909118
3.34547e-06
0.008909215
3.346131e-06
0.008909313
3.346653e-06
0.00890941
3.347036e-06
0.008909508
3.347279e-06
0.008909605
3.347377e-06
0.008909703
3.347328e-06
0.008909801
3.347126e-06
0.008909899
3.346766e-06
0.008909998
3.346239e-06
0.008910097
3.345538e-06
0.008910196
3.344651e-06
0.008910296
3.343568e-06
0.008910396
3.342274e-06
0.008910497
3.340754e-06
0.008910598
3.33899e-06
0.008910701
3.336962e-06
0.008910804
3.334647e-06
0.008910908
3.33202e-06
0.008911013
3.329051e-06
0.00891112
3.325707e-06
0.008911227
3.321949e-06
0.008911336
3.317734e-06
0.008911447
3.313012e-06
0.00891156
3.307727e-06
0.008911674
3.301813e-06
0.008911791
3.295194e-06
0.00891191
3.287781e-06
0.008912032
3.279471e-06
0.008912157
3.270145e-06
0.008912285
3.259658e-06
0.008912417
3.247841e-06
0.008912553
3.234491e-06
0.008912695
3.219361e-06
0.008912841
3.202152e-06
0.008912994
3.182496e-06
0.008913154
3.159934e-06
0.008913322
3.133891e-06
0.008913499
3.103631e-06
0.008913687
3.068206e-06
0.008913887
3.026371e-06
0.008914102
2.976467e-06
0.008914334
2.916245e-06
0.008914586
2.842601e-06
0.008914862
2.751182e-06
0.008915165
2.635777e-06
0.008915501
2.487458e-06
0.008915872
2.293255e-06
0.008916275
2.034834e-06
0.008916694
1.686415e-06
0.008917084
1.218101e-06
6.037033e-07
0.008901906
5.586711e-07
0.008902278
1.310946e-06
0.0089026
1.718421e-06
0.008902887
1.949186e-06
0.00890317
2.156894e-06
0.008903439
2.329166e-06
0.008903689
2.461683e-06
0.008903921
2.568478e-06
0.008904138
2.657244e-06
0.008904342
2.731304e-06
0.008904533
2.793572e-06
0.008904713
2.846499e-06
0.008904885
2.891881e-06
0.008905048
2.931074e-06
0.008905204
2.96515e-06
0.008905353
2.994959e-06
0.008905497
3.021177e-06
0.008905636
3.044351e-06
0.00890577
3.064925e-06
0.0089059
3.083263e-06
0.008906027
3.099669e-06
0.008906151
3.114393e-06
0.008906271
3.127647e-06
0.008906389
3.13961e-06
0.008906505
3.150433e-06
0.008906619
3.160245e-06
0.008906731
3.169159e-06
0.008906841
3.177269e-06
0.008906949
3.18466e-06
0.008907056
3.191404e-06
0.008907162
3.197564e-06
0.008907267
3.203195e-06
0.00890737
3.208345e-06
0.008907473
3.213057e-06
0.008907575
3.217369e-06
0.008907676
3.221313e-06
0.008907777
3.224919e-06
0.008907876
3.228212e-06
0.008907976
3.231214e-06
0.008908074
3.233946e-06
0.008908173
3.236425e-06
0.008908271
3.238665e-06
0.008908369
3.24068e-06
0.008908466
3.24248e-06
0.008908563
3.244075e-06
0.008908661
3.245473e-06
0.008908758
3.24668e-06
0.008908854
3.2477e-06
0.008908951
3.248536e-06
0.008909048
3.249191e-06
0.008909145
3.249665e-06
0.008909242
3.249958e-06
0.008909339
3.250066e-06
0.008909437
3.249986e-06
0.008909534
3.249714e-06
0.008909632
3.249243e-06
0.00890973
3.248564e-06
0.008909829
3.247669e-06
0.008909928
3.246545e-06
0.008910027
3.245179e-06
0.008910127
3.243556e-06
0.008910228
3.241659e-06
0.008910329
3.239466e-06
0.008910431
3.236955e-06
0.008910534
3.2341e-06
0.008910638
3.230871e-06
0.008910742
3.227235e-06
0.008910848
3.223153e-06
0.008910955
3.218582e-06
0.008911064
3.213473e-06
0.008911174
3.207769e-06
0.008911285
3.201408e-06
0.008911399
3.194315e-06
0.008911514
3.186407e-06
0.008911632
3.177585e-06
0.008911752
3.167737e-06
0.008911874
3.156733e-06
0.008912
3.144418e-06
0.008912129
3.130613e-06
0.008912262
3.115103e-06
0.008912399
3.097634e-06
0.00891254
3.077899e-06
0.008912687
3.05553e-06
0.008912839
3.030075e-06
0.008912998
3.000979e-06
0.008913164
2.967551e-06
0.008913339
2.928925e-06
0.008913523
2.884e-06
0.008913718
2.831367e-06
0.008913925
2.769195e-06
0.008914146
2.695086e-06
0.008914383
2.605867e-06
0.008914637
2.497315e-06
0.008914909
2.36379e-06
0.008915199
2.197805e-06
0.008915502
1.989566e-06
0.00891581
1.726768e-06
0.008916102
1.395242e-06
0.008916339
9.809592e-07
4.838561e-07
0.008901775
5.926997e-07
0.008901984
1.104361e-06
0.008902266
1.438162e-06
0.008902539
1.678645e-06
0.008902805
1.893129e-06
0.008903059
2.075618e-06
0.008903298
2.222746e-06
0.008903523
2.343881e-06
0.008903735
2.445718e-06
0.008903934
2.531727e-06
0.008904123
2.60478e-06
0.008904302
2.667338e-06
0.008904472
2.721301e-06
0.008904635
2.768141e-06
0.008904791
2.809033e-06
0.008904941
2.844925e-06
0.008905085
2.87658e-06
0.008905224
2.904621e-06
0.00890536
2.929559e-06
0.008905491
2.951819e-06
0.008905618
2.971751e-06
0.008905743
2.989654e-06
0.008905865
3.005775e-06
0.008905984
3.020328e-06
0.008906101
3.033492e-06
0.008906215
3.045425e-06
0.008906328
3.056259e-06
0.008906439
3.066109e-06
0.008906548
3.075078e-06
0.008906656
3.083253e-06
0.008906763
3.090709e-06
0.008906869
3.097515e-06
0.008906973
3.10373e-06
0.008907077
3.109405e-06
0.008907179
3.114586e-06
0.008907281
3.119315e-06
0.008907382
3.123625e-06
0.008907483
3.12755e-06
0.008907583
3.131116e-06
0.008907683
3.134348e-06
0.008907782
3.137268e-06
0.00890788
3.139892e-06
0.008907979
3.142239e-06
0.008908077
3.144321e-06
0.008908175
3.146149e-06
0.008908272
3.147734e-06
0.00890837
3.149082e-06
0.008908467
3.150201e-06
0.008908565
3.151093e-06
0.008908662
3.151761e-06
0.008908759
3.152206e-06
0.008908857
3.152427e-06
0.008908955
3.152421e-06
0.008909052
3.152185e-06
0.00890915
3.15171e-06
0.008909248
3.150991e-06
0.008909347
3.150017e-06
0.008909446
3.148777e-06
0.008909545
3.147256e-06
0.008909645
3.145438e-06
0.008909745
3.143304e-06
0.008909846
3.140833e-06
0.008909947
3.138e-06
0.008910049
3.134778e-06
0.008910152
3.131133e-06
0.008910256
3.127032e-06
0.008910361
3.122432e-06
0.008910467
3.117288e-06
0.008910574
3.111547e-06
0.008910682
3.105149e-06
0.008910792
3.098029e-06
0.008910903
3.090107e-06
0.008911016
3.081297e-06
0.008911131
3.071498e-06
0.008911248
3.060593e-06
0.008911367
3.048449e-06
0.008911489
3.03491e-06
0.008911613
3.019796e-06
0.008911741
3.002893e-06
0.008911872
2.983954e-06
0.008912007
2.962683e-06
0.008912146
2.938727e-06
0.00891229
2.911665e-06
0.008912439
2.880986e-06
0.008912594
2.846071e-06
0.008912756
2.806159e-06
0.008912924
2.760312e-06
0.008913101
2.70736e-06
0.008913286
2.645838e-06
0.008913482
2.573899e-06
0.008913687
2.489201e-06
0.008913904
2.388767e-06
0.008914133
2.268823e-06
0.008914372
2.124622e-06
0.00891462
1.950304e-06
0.00891487
1.738911e-06
0.008915114
1.48272e-06
0.008915335
1.174719e-06
0.008915506
8.099346e-07
3.975922e-07
0.008902181
4.353083e-07
0.008902371
9.155335e-07
0.00890258
1.232332e-06
0.00890279
1.470121e-06
0.008903002
1.683724e-06
0.00890321
1.868187e-06
0.008903412
2.021196e-06
0.008903606
2.149694e-06
0.008903793
2.259166e-06
0.008903972
2.352797e-06
0.008904143
2.433218e-06
0.008904307
2.502716e-06
0.008904465
2.56312e-06
0.008904617
2.615885e-06
0.008904764
2.662195e-06
0.008904906
2.703022e-06
0.008905043
2.73916e-06
0.008905176
2.77127e-06
0.008905305
2.799898e-06
0.008905432
2.825502e-06
0.008905555
2.848467e-06
0.008905675
2.869118e-06
0.008905793
2.887734e-06
0.008905908
2.90455e-06
0.008906022
2.919769e-06
0.008906134
2.933567e-06
0.008906244
2.946095e-06
0.008906352
2.957485e-06
0.008906459
2.967851e-06
0.008906565
2.977294e-06
0.00890667
2.985902e-06
0.008906773
2.993752e-06
0.008906876
3.000912e-06
0.008906978
3.007442e-06
0.008907079
3.013396e-06
0.008907179
3.018819e-06
0.008907279
3.023754e-06
0.008907378
3.028236e-06
0.008907477
3.032299e-06
0.008907575
3.035969e-06
0.008907673
3.039273e-06
0.008907771
3.042231e-06
0.008907868
3.044863e-06
0.008907965
3.047183e-06
0.008908062
3.049206e-06
0.008908159
3.050943e-06
0.008908255
3.052402e-06
0.008908352
3.05359e-06
0.008908448
3.054512e-06
0.008908545
3.055171e-06
0.008908642
3.055568e-06
0.008908738
3.055701e-06
0.008908835
3.055567e-06
0.008908932
3.055162e-06
0.008909029
3.054477e-06
0.008909127
3.053504e-06
0.008909224
3.052232e-06
0.008909323
3.050646e-06
0.008909421
3.04873e-06
0.00890952
3.046465e-06
0.008909619
3.04383e-06
0.008909719
3.040798e-06
0.00890982
3.037342e-06
0.008909921
3.033429e-06
0.008910023
3.029021e-06
0.008910126
3.024078e-06
0.00891023
3.018551e-06
0.008910335
3.012388e-06
0.008910441
3.005528e-06
0.008910548
2.997902e-06
0.008910657
2.989433e-06
0.008910767
2.980032e-06
0.008910879
2.969598e-06
0.008910992
2.958018e-06
0.008911107
2.945157e-06
0.008911225
2.930866e-06
0.008911345
2.914968e-06
0.008911467
2.897261e-06
0.008911593
2.877507e-06
0.008911721
2.855432e-06
0.008911853
2.830708e-06
0.008911989
2.802952e-06
0.008912129
2.771708e-06
0.008912273
2.736431e-06
0.008912423
2.696466e-06
0.008912578
2.651022e-06
0.008912739
2.599141e-06
0.008912907
2.539653e-06
0.008913082
2.471129e-06
0.008913264
2.391816e-06
0.008913453
2.299569e-06
0.00891365
2.191773e-06
0.008913854
2.065269e-06
0.008914062
1.916321e-06
0.008914272
1.740648e-06
0.008914477
1.533646e-06
0.008914669
1.290853e-06
0.008914834
1.009277e-06
0.008914956
6.879979e-07
3.362694e-07
0.008902208
4.28677e-07
0.008902316
8.094209e-07
0.008902473
1.078646e-06
0.008902644
1.301396e-06
0.008902823
1.505459e-06
0.008903008
1.684968e-06
0.008903191
1.838046e-06
0.008903372
1.969508e-06
0.008903547
2.083352e-06
0.008903718
2.182102e-06
0.008903883
2.267957e-06
0.008904043
2.342897e-06
0.008904197
2.408574e-06
0.008904346
2.466346e-06
0.008904491
2.517352e-06
0.008904631
2.562542e-06
0.008904767
2.602712e-06
0.0089049
2.638531e-06
0.008905029
2.670562e-06
0.008905155
2.699284e-06
0.008905278
2.725101e-06
0.008905399
2.748361e-06
0.008905517
2.769358e-06
0.008905633
2.78835e-06
0.008905747
2.805555e-06
0.008905859
2.821167e-06
0.00890597
2.835349e-06
0.008906079
2.848249e-06
0.008906187
2.859992e-06
0.008906293
2.87069e-06
0.008906398
2.880441e-06
0.008906503
2.889331e-06
0.008906606
2.897437e-06
0.008906708
2.904826e-06
0.00890681
2.911558e-06
0.008906911
2.917684e-06
0.008907012
2.923253e-06
0.008907111
2.928305e-06
0.008907211
2.932876e-06
0.00890731
2.937e-06
0.008907408
2.940702e-06
0.008907506
2.94401e-06
0.008907604
2.946942e-06
0.008907702
2.949518e-06
0.008907799
2.951753e-06
0.008907896
2.95366e-06
0.008907993
2.955248e-06
0.00890809
2.956526e-06
0.008908187
2.957499e-06
0.008908284
2.95817e-06
0.008908381
2.95854e-06
0.008908478
2.958607e-06
0.008908576
2.958369e-06
0.008908673
2.95782e-06
0.00890877
2.956951e-06
0.008908868
2.955752e-06
0.008908966
2.95421e-06
0.008909064
2.952309e-06
0.008909163
2.950032e-06
0.008909262
2.947356e-06
0.008909362
2.944256e-06
0.008909462
2.940705e-06
0.008909562
2.93667e-06
0.008909664
2.932114e-06
0.008909766
2.926996e-06
0.008909868
2.921268e-06
0.008909972
2.914878e-06
0.008910077
2.907766e-06
0.008910182
2.899865e-06
0.008910289
2.891097e-06
0.008910397
2.881376e-06
0.008910506
2.870605e-06
0.008910617
2.858672e-06
0.00891073
2.84545e-06
0.008910844
2.830795e-06
0.00891096
2.81454e-06
0.008911079
2.796496e-06
0.0089112
2.776442e-06
0.008911323
2.754124e-06
0.008911449
2.729247e-06
0.008911578
2.701468e-06
0.008911711
2.670382e-06
0.008911847
2.635517e-06
0.008911987
2.596313e-06
0.008912132
2.552109e-06
0.00891228
2.502118e-06
0.008912434
2.445402e-06
0.008912593
2.380842e-06
0.008912757
2.307105e-06
0.008912926
2.222601e-06
0.0089131
2.125451e-06
0.008913279
2.013453e-06
0.00891346
1.884074e-06
0.008913642
1.734488e-06
0.00891382
1.561696e-06
0.008913991
1.362801e-06
0.008914147
1.135448e-06
0.008914277
8.788568e-07
0.008914371
5.94031e-07
2.891665e-07
0.008902423
3.560568e-07
0.008902529
7.052451e-07
0.00890266
9.495738e-07
0.008902807
1.156815e-06
0.008902963
1.351153e-06
0.008903124
1.525257e-06
0.008903286
1.676728e-06
0.008903446
1.809021e-06
0.008903604
1.925105e-06
0.00890376
2.026959e-06
0.008903911
2.116412e-06
0.008904058
2.195173e-06
0.008904202
2.26471e-06
0.008904342
2.326272e-06
0.008904478
2.380924e-06
0.008904611
2.429574e-06
0.00890474
2.472997e-06
0.008904867
2.511853e-06
0.00890499
2.546706e-06
0.008905111
2.578039e-06
0.00890523
2.606265e-06
0.008905346
2.631742e-06
0.008905461
2.654778e-06
0.008905573
2.675641e-06
0.008905684
2.694563e-06
0.008905793
2.711746e-06
0.008905901
2.727368e-06
0.008906008
2.741583e-06
0.008906113
2.754528e-06
0.008906217
2.766323e-06
0.008906321
2.777075e-06
0.008906423
2.786876e-06
0.008906524
2.79581e-06
0.008906625
2.80395e-06
0.008906725
2.811361e-06
0.008906825
2.818102e-06
0.008906924
2.824223e-06
0.008907022
2.829769e-06
0.00890712
2.834781e-06
0.008907218
2.839294e-06
0.008907315
2.843339e-06
0.008907412
2.846943e-06
0.008907509
2.85013e-06
0.008907605
2.852918e-06
0.008907702
2.855326e-06
0.008907798
2.857368e-06
0.008907894
2.859054e-06
0.00890799
2.860393e-06
0.008908086
2.861391e-06
0.008908182
2.862052e-06
0.008908278
2.862377e-06
0.008908374
2.862364e-06
0.008908471
2.862009e-06
0.008908567
2.861307e-06
0.008908664
2.860247e-06
0.008908761
2.85882e-06
0.008908858
2.857009e-06
0.008908955
2.854798e-06
0.008909053
2.852167e-06
0.008909151
2.849091e-06
0.00890925
2.845544e-06
0.008909349
2.841494e-06
0.008909449
2.836905e-06
0.008909549
2.831737e-06
0.00890965
2.825944e-06
0.008909752
2.819475e-06
0.008909855
2.812272e-06
0.008909958
2.804269e-06
0.008910063
2.795394e-06
0.008910168
2.785562e-06
0.008910275
2.77468e-06
0.008910383
2.762642e-06
0.008910492
2.749329e-06
0.008910603
2.734604e-06
0.008910715
2.718313e-06
0.00891083
2.70028e-06
0.008910946
2.680303e-06
0.008911064
2.658151e-06
0.008911185
2.63356e-06
0.008911308
2.606224e-06
0.008911433
2.575789e-06
0.008911562
2.541846e-06
0.008911693
2.503919e-06
0.008911828
2.461453e-06
0.008911966
2.4138e-06
0.008912108
2.360204e-06
0.008912254
2.299778e-06
0.008912403
2.231488e-06
0.008912556
2.154133e-06
0.008912712
2.066322e-06
0.008912871
1.966465e-06
0.008913032
1.852772e-06
0.008913193
1.723288e-06
0.008913351
1.575959e-06
0.008913504
1.408778e-06
0.008913647
1.220047e-06
0.008913774
1.008718e-06
0.008913877
7.751153e-07
0.008913951
5.209027e-07
2.52636e-07
0.008902505
3.346929e-07
0.008902577
6.344857e-07
0.008902679
8.503024e-07
0.008902797
1.041822e-06
0.008902925
1.224131e-06
0.008903062
1.38962e-06
0.008903203
1.536034e-06
0.008903346
1.665903e-06
0.00890349
1.78136e-06
0.008903633
1.883856e-06
0.008903774
1.974824e-06
0.008903914
2.055662e-06
0.008904051
2.127612e-06
0.008904185
2.191761e-06
0.008904316
2.249062e-06
0.008904445
2.300346e-06
0.008904572
2.346336e-06
0.008904696
2.387658e-06
0.008904817
2.424856e-06
0.008904937
2.458402e-06
0.008905054
2.488704e-06
0.00890517
2.516121e-06
0.008905283
2.540963e-06
0.008905395
2.563501e-06
0.008905506
2.583974e-06
0.008905615
2.602591e-06
0.008905722
2.619535e-06
0.008905829
2.634969e-06
0.008905934
2.649034e-06
0.008906038
2.661859e-06
0.008906142
2.673554e-06
0.008906244
2.68422e-06
0.008906346
2.693943e-06
0.008906447
2.702804e-06
0.008906547
2.71087e-06
0.008906647
2.718206e-06
0.008906747
2.724864e-06
0.008906845
2.730894e-06
0.008906944
2.73634e-06
0.008907042
2.74124e-06
0.008907139
2.745626e-06
0.008907237
2.749528e-06
0.008907334
2.752972e-06
0.008907431
2.75598e-06
0.008907527
2.758569e-06
0.008907624
2.760755e-06
0.00890772
2.762551e-06
0.008907817
2.763965e-06
0.008907913
2.765004e-06
0.008908009
2.765672e-06
0.008908106
2.76597e-06
0.008908202
2.765897e-06
0.008908299
2.765448e-06
0.008908395
2.764617e-06
0.008908492
2.763394e-06
0.008908589
2.761765e-06
0.008908686
2.759717e-06
0.008908784
2.757229e-06
0.008908882
2.754281e-06
0.00890898
2.750845e-06
0.008909078
2.746892e-06
0.008909178
2.74239e-06
0.008909277
2.737298e-06
0.008909377
2.731574e-06
0.008909478
2.725168e-06
0.008909579
2.718026e-06
0.008909682
2.710084e-06
0.008909784
2.701274e-06
0.008909888
2.691516e-06
0.008909993
2.680723e-06
0.008910099
2.668794e-06
0.008910206
2.655618e-06
0.008910314
2.641069e-06
0.008910424
2.625004e-06
0.008910535
2.607262e-06
0.008910647
2.58766e-06
0.008910762
2.565989e-06
0.008910878
2.542014e-06
0.008910996
2.515464e-06
0.008911116
2.48603e-06
0.008911238
2.453359e-06
0.008911363
2.417046e-06
0.008911491
2.376624e-06
0.00891162
2.331555e-06
0.008911753
2.281225e-06
0.008911888
2.224922e-06
0.008912026
2.161833e-06
0.008912167
2.091029e-06
0.008912309
2.011455e-06
0.008912454
1.921928e-06
0.008912599
1.821138e-06
0.008912744
1.707672e-06
0.008912887
1.580062e-06
0.008913026
1.436863e-06
0.008913158
1.276797e-06
0.008913279
1.09896e-06
0.008913385
9.030863e-07
0.00891347
6.900282e-07
0.008913529
4.616175e-07
2.231143e-07
0.00890264
2.946764e-07
0.008902708
5.681714e-07
0.008902797
7.639855e-07
0.008902901
9.40259e-07
0.008903016
1.110679e-06
0.008903139
1.267579e-06
0.008903267
1.40848e-06
0.008903398
1.535159e-06
0.00890353
1.649104e-06
0.008903662
1.751319e-06
0.008903794
1.842889e-06
0.008903925
1.924934e-06
0.008904054
1.998488e-06
0.008904181
2.064486e-06
0.008904306
2.123769e-06
0.008904429
2.177089e-06
0.00890455
2.225112e-06
0.008904669
2.268425e-06
0.008904786
2.307544e-06
0.008904901
2.342926e-06
0.008905014
2.374969e-06
0.008905126
2.404025e-06
0.008905237
2.430403e-06
0.008905346
2.454377e-06
0.008905453
2.476185e-06
0.00890556
2.496041e-06
0.008905665
2.514132e-06
0.008905769
2.530625e-06
0.008905872
2.545667e-06
0.008905975
2.55939e-06
0.008906076
2.57191e-06
0.008906177
2.583331e-06
0.008906277
2.593745e-06
0.008906376
2.603235e-06
0.008906475
2.611874e-06
0.008906574
2.619728e-06
0.008906672
2.626854e-06
0.008906769
2.633305e-06
0.008906866
2.639127e-06
0.008906963
2.644359e-06
0.008907059
2.649038e-06
0.008907156
2.653195e-06
0.008907252
2.656857e-06
0.008907348
2.660047e-06
0.008907443
2.662785e-06
0.008907539
2.665087e-06
0.008907635
2.666966e-06
0.00890773
2.668433e-06
0.008907825
2.669493e-06
0.008907921
2.670153e-06
0.008908016
2.670412e-06
0.008908112
2.670269e-06
0.008908208
2.669719e-06
0.008908303
2.668756e-06
0.008908399
2.667369e-06
0.008908496
2.665543e-06
0.008908592
2.663264e-06
0.008908689
2.66051e-06
0.008908786
2.657259e-06
0.008908883
2.653482e-06
0.008908981
2.649148e-06
0.008909079
2.644222e-06
0.008909177
2.638661e-06
0.008909277
2.632421e-06
0.008909376
2.625449e-06
0.008909477
2.617686e-06
0.008909578
2.609068e-06
0.008909679
2.599521e-06
0.008909782
2.588962e-06
0.008909885
2.577299e-06
0.00890999
2.564428e-06
0.008910095
2.550234e-06
0.008910201
2.534585e-06
0.008910309
2.517335e-06
0.008910418
2.498319e-06
0.008910528
2.47735e-06
0.00891064
2.454218e-06
0.008910753
2.428684e-06
0.008910868
2.40048e-06
0.008910985
2.369299e-06
0.008911103
2.334796e-06
0.008911224
2.296576e-06
0.008911346
2.254192e-06
0.008911471
2.207137e-06
0.008911597
2.154836e-06
0.008911725
2.096638e-06
0.008911855
2.031813e-06
0.008911987
1.959543e-06
0.008912119
1.878924e-06
0.008912252
1.788971e-06
0.008912385
1.688632e-06
0.008912516
1.576818e-06
0.008912643
1.452457e-06
0.008912765
1.314573e-06
0.00891288
1.162404e-06
0.008912983
9.955687e-07
0.008913072
8.1424e-07
0.008913143
6.194693e-07
0.008913191
4.129976e-07
1.98981e-07
0.008902726
2.731775e-07
0.00890278
5.169061e-07
0.008902853
6.93602e-07
0.008902939
8.56389e-07
0.008903036
1.015397e-06
0.008903141
1.163234e-06
0.008903252
1.297549e-06
0.008903368
1.419646e-06
0.008903486
1.530561e-06
0.008903607
1.630976e-06
0.008903728
1.721698e-06
0.008903849
1.803611e-06
0.00890397
1.877558e-06
0.00890409
1.944326e-06
0.008904208
2.004639e-06
0.008904326
2.05916e-06
0.008904442
2.108486e-06
0.008904558
2.153154e-06
0.008904671
2.193643e-06
0.008904783
2.230381e-06
0.008904894
2.263749e-06
0.008905004
2.294083e-06
0.008905113
2.321684e-06
0.00890522
2.346819e-06
0.008905326
2.369726e-06
0.008905432
2.390614e-06
0.008905536
2.409673e-06
0.008905639
2.427069e-06
0.008905742
2.442951e-06
0.008905844
2.457454e-06
0.008905945
2.470696e-06
0.008906045
2.482782e-06
0.008906145
2.49381e-06
0.008906244
2.503862e-06
0.008906343
2.513016e-06
0.008906441
2.521338e-06
0.008906539
2.52889e-06
0.008906637
2.535726e-06
0.008906734
2.541893e-06
0.008906831
2.547433e-06
0.008906927
2.552385e-06
0.008907024
2.55678e-06
0.00890712
2.560647e-06
0.008907216
2.564012e-06
0.008907311
2.566893e-06
0.008907407
2.569309e-06
0.008907503
2.571274e-06
0.008907598
2.572797e-06
0.008907694
2.573886e-06
0.00890779
2.574546e-06
0.008907885
2.574778e-06
0.008907981
2.57458e-06
0.008908076
2.573947e-06
0.008908172
2.572872e-06
0.008908268
2.571344e-06
0.008908364
2.569348e-06
0.008908461
2.566867e-06
0.008908557
2.56388e-06
0.008908654
2.560362e-06
0.008908751
2.556284e-06
0.008908849
2.551614e-06
0.008908947
2.546312e-06
0.008909045
2.540337e-06
0.008909144
2.533641e-06
0.008909243
2.526168e-06
0.008909343
2.517859e-06
0.008909443
2.508645e-06
0.008909544
2.49845e-06
0.008909646
2.487189e-06
0.008909749
2.474767e-06
0.008909852
2.461077e-06
0.008909956
2.446001e-06
0.008910061
2.429406e-06
0.008910167
2.411144e-06
0.008910275
2.391047e-06
0.008910383
2.368928e-06
0.008910493
2.344579e-06
0.008910604
2.317764e-06
0.008910716
2.288218e-06
0.008910829
2.255644e-06
0.008910944
2.219708e-06
0.008911061
2.180036e-06
0.008911179
2.136206e-06
0.008911298
2.087746e-06
0.008911419
2.034131e-06
0.008911541
1.974776e-06
0.008911664
1.909035e-06
0.008911787
1.836203e-06
0.00891191
1.755521e-06
0.008912033
1.666182e-06
0.008912154
1.567359e-06
0.008912273
1.458233e-06
0.008912387
1.338043e-06
0.008912496
1.206161e-06
0.008912596
1.062182e-06
0.008912685
9.060512e-07
0.008912761
7.381789e-07
0.008912821
5.596549e-07
0.008912862
3.720545e-07
1.787179e-07
0.008902825
2.471573e-07
0.008902874
4.701693e-07
0.008902939
6.315743e-07
0.008903016
7.816775e-07
0.008903103
9.296704e-07
0.008903198
1.068573e-06
0.0089033
1.196094e-06
0.008903407
1.313179e-06
0.008903517
1.420527e-06
0.008903629
1.518552e-06
0.008903743
1.607824e-06
0.008903857
1.689016e-06
0.008903972
1.762797e-06
0.008904086
1.829813e-06
0.0089042
1.890675e-06
0.008904313
1.945958e-06
0.008904425
1.996191e-06
0.008904536
2.041856e-06
0.008904646
2.083393e-06
0.008904755
2.121198e-06
0.008904863
2.155629e-06
0.00890497
2.187007e-06
0.008905076
2.215621e-06
0.008905181
2.241728e-06
0.008905285
2.265562e-06
0.008905388
2.287329e-06
0.00890549
2.307216e-06
0.008905592
2.325388e-06
0.008905692
2.341997e-06
0.008905792
2.357176e-06
0.008905892
2.371044e-06
0.008905991
2.383711e-06
0.008906089
2.395273e-06
0.008906187
2.405816e-06
0.008906285
2.415419e-06
0.008906382
2.424151e-06
0.008906479
2.432075e-06
0.008906575
2.439245e-06
0.008906671
2.445713e-06
0.008906767
2.451521e-06
0.008906862
2.456708e-06
0.008906958
2.461309e-06
0.008907053
2.465353e-06
0.008907148
2.468865e-06
0.008907243
2.471867e-06
0.008907338
2.474377e-06
0.008907433
2.47641e-06
0.008907528
2.477975e-06
0.008907622
2.479082e-06
0.008907717
2.479735e-06
0.008907812
2.479934e-06
0.008907907
2.479679e-06
0.008908002
2.478964e-06
0.008908097
2.477781e-06
0.008908192
2.476119e-06
0.008908287
2.473964e-06
0.008908383
2.471296e-06
0.008908478
2.468093e-06
0.008908574
2.464331e-06
0.008908671
2.459979e-06
0.008908767
2.455003e-06
0.008908864
2.449363e-06
0.008908962
2.443015e-06
0.008909059
2.435911e-06
0.008909157
2.427992e-06
0.008909256
2.419199e-06
0.008909355
2.409459e-06
0.008909455
2.398696e-06
0.008909555
2.386823e-06
0.008909656
2.373743e-06
0.008909758
2.359348e-06
0.00890986
2.343519e-06
0.008909964
2.326122e-06
0.008910068
2.307009e-06
0.008910173
2.286013e-06
0.008910279
2.262951e-06
0.008910386
2.237616e-06
0.008910494
2.209779e-06
0.008910603
2.179185e-06
0.008910713
2.145549e-06