/*--------------------------------*- C++ -*----------------------------------*\
| =========                 |                                                 |
| \\      /  F ield         | OpenFOAM: The Open Source CFD Toolbox           |
|  \\    /   O peration     | Version:  2.3.0                                 |
|   \\  /    A nd           | Web:      www.OpenFOAM.org                      |
|    \\/     M anipulation  |                                                 |
\*---------------------------------------------------------------------------*/
FoamFile
{
    version     2.0;
    format      ascii;
    class       volVectorField;
    location    "9800/topAir";
    object      U;
}
// * * * * * * * * * * * * * * * * * * * * * * * * * * * * * * * * * * * * * //

dimensions      [0 1 -1 0 0 0 0];

internalField   nonuniform List<vector> 
4000
(
(11.2775 0.002844061 0)
(8.441825 0.002998655 0)
(7.297189 0.002494055 0)
(7.598679 0.002451202 0)
(7.711518 0.002505426 0)
(7.676127 0.002525449 0)
(7.661623 0.0025414 0)
(7.662263 0.002562264 0)
(7.660572 0.002582577 0)
(7.65731 0.002600638 0)
(7.654288 0.002616822 0)
(7.651411 0.00263134 0)
(7.648497 0.002644289 0)
(7.645558 0.002655824 0)
(7.642614 0.002666109 0)
(7.639666 0.002675293 0)
(7.636713 0.002683504 0)
(7.633755 0.002690853 0)
(7.630793 0.002697439 0)
(7.627829 0.002703345 0)
(7.624861 0.002708644 0)
(7.621892 0.002713399 0)
(7.618921 0.002717665 0)
(7.615948 0.002721489 0)
(7.612974 0.002724913 0)
(7.609999 0.002727974 0)
(7.607023 0.002730705 0)
(7.604047 0.002733133 0)
(7.60107 0.002735284 0)
(7.598093 0.002737181 0)
(7.595116 0.002738844 0)
(7.592139 0.00274029 0)
(7.589162 0.002741536 0)
(7.586186 0.002742597 0)
(7.583209 0.002743485 0)
(7.580234 0.002744213 0)
(7.577258 0.002744791 0)
(7.574283 0.002745229 0)
(7.571309 0.002745535 0)
(7.568336 0.002745718 0)
(7.565363 0.002745785 0)
(7.562391 0.002745742 0)
(7.55942 0.002745596 0)
(7.55645 0.002745352 0)
(7.55348 0.002745015 0)
(7.550512 0.00274459 0)
(7.547545 0.00274408 0)
(7.544579 0.00274349 0)
(7.541614 0.002742823 0)
(7.53865 0.002742081 0)
(7.535687 0.002741267 0)
(7.532726 0.002740384 0)
(7.529766 0.002739434 0)
(7.526807 0.002738419 0)
(7.52385 0.002737339 0)
(7.520894 0.002736197 0)
(7.517939 0.002734992 0)
(7.514986 0.002733727 0)
(7.512035 0.0027324 0)
(7.509085 0.002731012 0)
(7.506137 0.002729563 0)
(7.50319 0.002728051 0)
(7.500245 0.002726477 0)
(7.497302 0.002724839 0)
(7.494362 0.002723134 0)
(7.491423 0.002721361 0)
(7.488486 0.002719516 0)
(7.485551 0.002717597 0)
(7.482619 0.002715599 0)
(7.479689 0.002713518 0)
(7.476762 0.002711348 0)
(7.473837 0.002709082 0)
(7.470915 0.002706713 0)
(7.467996 0.002704232 0)
(7.465081 0.002701627 0)
(7.462169 0.002698887 0)
(7.45926 0.002695996 0)
(7.456356 0.002692936 0)
(7.453455 0.002689687 0)
(7.45056 0.002686222 0)
(7.447669 0.00268251 0)
(7.444785 0.002678514 0)
(7.441906 0.002674187 0)
(7.439034 0.002669469 0)
(7.43617 0.002664288 0)
(7.433315 0.002658548 0)
(7.430469 0.002652125 0)
(7.427635 0.002644854 0)
(7.424814 0.002636507 0)
(7.422009 0.002626767 0)
(7.419222 0.002615164 0)
(7.416459 0.002600984 0)
(7.413723 0.002583067 0)
(7.411025 0.002559418 0)
(7.408375 0.002526406 0)
(7.405795 0.002476731 0)
(7.403322 0.002396184 0)
(7.401003 0.002248917 0)
(7.399033 0.001977589 0)
(7.397326 0.001325615 0)
(11.28455 0.002483894 0)
(8.451573 0.003325494 0)
(7.311046 0.002983662 0)
(7.615463 0.002942237 0)
(7.731243 0.003042929 0)
(7.699003 0.003094855 0)
(7.687613 0.003121933 0)
(7.691324 0.003146797 0)
(7.692703 0.003167428 0)
(7.692513 0.003182768 0)
(7.692558 0.003194315 0)
(7.692746 0.003203149 0)
(7.692894 0.003209845 0)
(7.693014 0.003214861 0)
(7.693127 0.003218567 0)
(7.693233 0.003221247 0)
(7.693331 0.003223113 0)
(7.693422 0.00322433 0)
(7.693506 0.003225027 0)
(7.693584 0.003225304 0)
(7.693657 0.003225242 0)
(7.693725 0.003224902 0)
(7.693788 0.003224337 0)
(7.693847 0.003223588 0)
(7.693902 0.003222688 0)
(7.693953 0.003221663 0)
(7.694 0.003220538 0)
(7.694044 0.00321933 0)
(7.694085 0.003218054 0)
(7.694122 0.003216723 0)
(7.694157 0.003215349 0)
(7.694188 0.003213938 0)
(7.694217 0.0032125 0)
(7.694243 0.003211039 0)
(7.694267 0.00320956 0)
(7.694288 0.003208069 0)
(7.694307 0.003206567 0)
(7.694323 0.003205057 0)
(7.694337 0.003203543 0)
(7.694349 0.003202024 0)
(7.694359 0.003200502 0)
(7.694367 0.003198977 0)
(7.694372 0.003197451 0)
(7.694376 0.003195922 0)
(7.694378 0.00319439 0)
(7.694378 0.003192855 0)
(7.694376 0.003191315 0)
(7.694372 0.003189769 0)
(7.694367 0.003188215 0)
(7.69436 0.003186651 0)
(7.694351 0.003185076 0)
(7.69434 0.003183486 0)
(7.694328 0.003181879 0)
(7.694315 0.003180251 0)
(7.6943 0.003178599 0)
(7.694283 0.003176919 0)
(7.694265 0.003175206 0)
(7.694246 0.003173456 0)
(7.694225 0.003171662 0)
(7.694203 0.00316982 0)
(7.69418 0.003167922 0)
(7.694156 0.003165961 0)
(7.694131 0.00316393 0)
(7.694105 0.003161818 0)
(7.694078 0.003159616 0)
(7.69405 0.003157312 0)
(7.694021 0.003154895 0)
(7.693992 0.003152349 0)
(7.693962 0.003149659 0)
(7.693931 0.003146807 0)
(7.693901 0.003143772 0)
(7.69387 0.003140532 0)
(7.693839 0.00313706 0)
(7.693809 0.003133325 0)
(7.693779 0.003129292 0)
(7.693749 0.00312492 0)
(7.69372 0.003120161 0)
(7.693693 0.00311496 0)
(7.693666 0.003109249 0)
(7.693642 0.00310295 0)
(7.69362 0.003095968 0)
(7.693601 0.003088185 0)
(7.693585 0.00307946 0)
(7.693572 0.003069618 0)
(7.693565 0.003058434 0)
(7.693564 0.003045628 0)
(7.693569 0.003030833 0)
(7.693582 0.003013563 0)
(7.693606 0.002993168 0)
(7.693641 0.002968745 0)
(7.693691 0.002939015 0)
(7.69376 0.002902102 0)
(7.693852 0.002855157 0)
(7.693972 0.002793663 0)
(7.694129 0.002710194 0)
(7.694332 0.002591648 0)
(7.694592 0.002415258 0)
(7.694917 0.00213241 0)
(7.695289 0.001670963 0)
(7.695698 0.0007608499 0)
(11.28243 8.329371e-05 0)
(8.449364 0.001026956 0)
(7.30819 0.001410857 0)
(7.612703 0.001627072 0)
(7.728521 0.001832533 0)
(7.69624 0.001981658 0)
(7.684841 0.002087283 0)
(7.688562 0.00217113 0)
(7.689955 0.0022397 0)
(7.689783 0.00229603 0)
(7.68985 0.002343217 0)
(7.690063 0.002383494 0)
(7.690238 0.002418314 0)
(7.690388 0.002448736 0)
(7.690534 0.002475568 0)
(7.690674 0.002499427 0)
(7.690808 0.00252079 0)
(7.690936 0.002540037 0)
(7.69106 0.002557471 0)
(7.69118 0.002573338 0)
(7.691296 0.002587843 0)
(7.691409 0.002601153 0)
(7.69152 0.002613409 0)
(7.691627 0.002624733 0)
(7.691732 0.002635225 0)
(7.691835 0.002644973 0)
(7.691936 0.002654053 0)
(7.692036 0.002662529 0)
(7.692133 0.002670459 0)
(7.69223 0.002677893 0)
(7.692325 0.002684873 0)
(7.692419 0.002691439 0)
(7.692512 0.002697626 0)
(7.692603 0.002703462 0)
(7.692695 0.002708975 0)
(7.692785 0.00271419 0)
(7.692874 0.002719126 0)
(7.692963 0.002723803 0)
(7.693051 0.002728238 0)
(7.693139 0.002732446 0)
(7.693227 0.00273644 0)
(7.693313 0.002740232 0)
(7.6934 0.002743832 0)
(7.693486 0.002747251 0)
(7.693572 0.002750495 0)
(7.693658 0.002753571 0)
(7.693743 0.002756486 0)
(7.693829 0.002759245 0)
(7.693914 0.002761851 0)
(7.693999 0.002764308 0)
(7.694084 0.002766618 0)
(7.694169 0.002768781 0)
(7.694254 0.0027708 0)
(7.694339 0.002772673 0)
(7.694425 0.002774399 0)
(7.69451 0.002775975 0)
(7.694596 0.0027774 0)
(7.694682 0.002778668 0)
(7.694768 0.002779775 0)
(7.694854 0.002780714 0)
(7.694941 0.002781478 0)
(7.695028 0.002782058 0)
(7.695116 0.002782443 0)
(7.695204 0.002782622 0)
(7.695293 0.00278258 0)
(7.695383 0.002782302 0)
(7.695474 0.00278177 0)
(7.695565 0.002780963 0)
(7.695657 0.002779857 0)
(7.69575 0.002778424 0)
(7.695845 0.002776635 0)
(7.695941 0.002774452 0)
(7.696038 0.002771835 0)
(7.696137 0.002768735 0)
(7.696238 0.002765098 0)
(7.69634 0.002760858 0)
(7.696445 0.002755939 0)
(7.696553 0.002750253 0)
(7.696663 0.002743694 0)
(7.696776 0.002736135 0)
(7.696893 0.002727426 0)
(7.697014 0.002717381 0)
(7.697139 0.002705777 0)
(7.697269 0.002692336 0)
(7.697405 0.002676709 0)
(7.697547 0.002658458 0)
(7.697697 0.002637016 0)
(7.697855 0.002611648 0)
(7.698023 0.002581375 0)
(7.698203 0.002544879 0)
(7.698396 0.002500337 0)
(7.698605 0.002445189 0)
(7.698833 0.002375754 0)
(7.699084 0.002286634 0)
(7.69936 0.002169815 0)
(7.699666 0.002013208 0)
(7.700001 0.00179906 0)
(7.700364 0.001500869 0)
(7.700719 0.00108678 0)
(7.701055 0.0005205107 0)
(11.28335 0.0008150563 0)
(8.450165 0.001608478 0)
(7.308582 0.001962061 0)
(7.612924 0.002143059 0)
(7.728687 0.002309288 0)
(7.69635 0.002442797 0)
(7.684907 0.002541186 0)
(7.6886 0.002618664 0)
(7.689971 0.002681974 0)
(7.689781 0.0027338 0)
(7.689834 0.002776545 0)
(7.690035 0.002812191 0)
(7.690199 0.002842149 0)
(7.69034 0.002867477 0)
(7.690477 0.002889007 0)
(7.69061 0.002907396 0)
(7.690738 0.002923165 0)
(7.690861 0.002936733 0)
(7.690979 0.00294844 0)
(7.691095 0.002958564 0)
(7.691206 0.002967332 0)
(7.691315 0.002974936 0)
(7.691422 0.002981533 0)
(7.691526 0.002987255 0)
(7.691628 0.002992216 0)
(7.691728 0.002996509 0)
(7.691826 0.003000217 0)
(7.691922 0.003003408 0)
(7.692018 0.003006143 0)
(7.692112 0.003008473 0)
(7.692205 0.003010442 0)
(7.692296 0.003012088 0)
(7.692387 0.003013447 0)
(7.692477 0.003014546 0)
(7.692567 0.003015411 0)
(7.692655 0.003016065 0)
(7.692743 0.003016526 0)
(7.69283 0.003016812 0)
(7.692917 0.003016937 0)
(7.693004 0.003016913 0)
(7.69309 0.003016752 0)
(7.693176 0.003016462 0)
(7.693261 0.003016052 0)
(7.693346 0.003015527 0)
(7.693431 0.003014894 0)
(7.693516 0.003014155 0)
(7.693601 0.003013314 0)
(7.693686 0.003012374 0)
(7.69377 0.003011334 0)
(7.693855 0.003010194 0)
(7.693939 0.003008955 0)
(7.694024 0.003007613 0)
(7.694109 0.003006165 0)
(7.694194 0.003004609 0)
(7.694279 0.003002938 0)
(7.694364 0.003001147 0)
(7.69445 0.002999228 0)
(7.694536 0.002997174 0)
(7.694622 0.002994974 0)
(7.694708 0.002992617 0)
(7.694795 0.00299009 0)
(7.694883 0.00298738 0)
(7.694971 0.00298447 0)
(7.69506 0.002981341 0)
(7.695149 0.002977973 0)
(7.695239 0.002974343 0)
(7.69533 0.002970423 0)
(7.695422 0.002966185 0)
(7.695515 0.002961594 0)
(7.695609 0.002956612 0)
(7.695704 0.002951195 0)
(7.695801 0.002945294 0)
(7.695899 0.002938851 0)
(7.695998 0.002931801 0)
(7.6961 0.002924068 0)
(7.696203 0.002915565 0)
(7.696309 0.00290619 0)
(7.696417 0.002895823 0)
(7.696528 0.002884323 0)
(7.696642 0.002871523 0)
(7.696759 0.002857223 0)
(7.69688 0.002841182 0)
(7.697005 0.002823109 0)
(7.697135 0.002802645 0)
(7.69727 0.002779346 0)
(7.697412 0.002752659 0)
(7.69756 0.00272188 0)
(7.697715 0.002686111 0)
(7.69788 0.002644182 0)
(7.698054 0.002594555 0)
(7.69824 0.002535178 0)
(7.698438 0.002463275 0)
(7.698651 0.002375048 0)
(7.698878 0.002265249 0)
(7.699122 0.002126611 0)
(7.69938 0.001949083 0)
(7.699648 0.001719197 0)
(7.699914 0.001419605 0)
(7.700145 0.001031394 0)
(7.700344 0.0005449472 0)
(11.2833 0.0004175899 0)
(8.450035 0.0008655467 0)
(7.308287 0.001136265 0)
(7.61261 0.001323482 0)
(7.728381 0.001499809 0)
(7.69603 0.00165131 0)
(7.684573 0.001772872 0)
(7.688258 0.001873198 0)
(7.689625 0.001957874 0)
(7.689431 0.002029594 0)
(7.689481 0.002090726 0)
(7.68968 0.002143331 0)
(7.689843 0.00218898 0)
(7.689984 0.002228883 0)
(7.690121 0.002264003 0)
(7.690254 0.00229511 0)
(7.690382 0.002322821 0)
(7.690505 0.002347635 0)
(7.690625 0.002369962 0)
(7.690741 0.002390137 0)
(7.690853 0.00240844 0)
(7.690963 0.002425103 0)
(7.69107 0.002440324 0)
(7.691175 0.002454269 0)
(7.691278 0.002467079 0)
(7.691379 0.002478877 0)
(7.691478 0.002489768 0)
(7.691575 0.002499843 0)
(7.691671 0.002509181 0)
(7.691766 0.002517851 0)
(7.69186 0.002525914 0)
(7.691952 0.002533423 0)
(7.692044 0.002540425 0)
(7.692135 0.002546963 0)
(7.692225 0.002553071 0)
(7.692314 0.002558784 0)
(7.692402 0.00256413 0)
(7.692491 0.002569134 0)
(7.692578 0.002573819 0)
(7.692665 0.002578205 0)
(7.692752 0.002582309 0)
(7.692838 0.002586148 0)
(7.692924 0.002589733 0)
(7.69301 0.002593078 0)
(7.693095 0.002596192 0)
(7.693181 0.002599083 0)
(7.693266 0.002601757 0)
(7.693351 0.002604222 0)
(7.693436 0.002606479 0)
(7.693521 0.002608533 0)
(7.693606 0.002610383 0)
(7.693691 0.002612031 0)
(7.693776 0.002613475 0)
(7.693862 0.002614712 0)
(7.693947 0.002615739 0)
(7.694033 0.002616548 0)
(7.694119 0.002617134 0)
(7.694205 0.002617488 0)
(7.694291 0.002617599 0)
(7.694378 0.002617455 0)
(7.694465 0.002617042 0)
(7.694553 0.002616344 0)
(7.694641 0.00261534 0)
(7.69473 0.002614011 0)
(7.69482 0.002612331 0)
(7.69491 0.002610272 0)
(7.695001 0.002607802 0)
(7.695093 0.002604885 0)
(7.695185 0.002601481 0)
(7.695279 0.002597542 0)
(7.695374 0.002593016 0)
(7.695471 0.002587841 0)
(7.695568 0.002581947 0)
(7.695668 0.002575255 0)
(7.695769 0.002567672 0)
(7.695872 0.002559091 0)
(7.695977 0.002549388 0)
(7.696084 0.002538418 0)
(7.696194 0.002526009 0)
(7.696306 0.00251196 0)
(7.696422 0.002496032 0)
(7.696541 0.002477937 0)
(7.696664 0.00245733 0)
(7.696792 0.00243379 0)
(7.696924 0.002406804 0)
(7.697061 0.002375735 0)
(7.697204 0.002339792 0)
(7.697354 0.002297978 0)
(7.697511 0.002249031 0)
(7.697677 0.002191333 0)
(7.697851 0.002122799 0)
(7.698034 0.002040731 0)
(7.698227 0.001941627 0)
(7.698431 0.001820967 0)
(7.698642 0.001672999 0)
(7.69886 0.001490642 0)
(7.699076 0.001265687 0)
(7.699283 0.0009900759 0)
(7.699454 0.00065748 0)
(7.699596 0.0002753029 0)
(11.28367 0.0004758537 0)
(8.450427 0.0009421729 0)
(7.308595 0.00125509 0)
(7.612844 0.001488111 0)
(7.728573 0.001691941 0)
(7.69618 0.001863602 0)
(7.684686 0.002002764 0)
(7.688342 0.002117445 0)
(7.689684 0.002213571 0)
(7.689471 0.002294571 0)
(7.689505 0.002363206 0)
(7.68969 0.002421786 0)
(7.689842 0.002472107 0)
(7.689973 0.002515569 0)
(7.690101 0.002553292 0)
(7.690227 0.002586181 0)
(7.690349 0.002614968 0)
(7.690466 0.002640253 0)
(7.69058 0.00266253 0)
(7.690692 0.002682211 0)
(7.6908 0.00269964 0)
(7.690906 0.002715103 0)
(7.69101 0.002728848 0)
(7.691111 0.002741081 0)
(7.691211 0.00275198 0)
(7.691309 0.002761698 0)
(7.691406 0.002770368 0)
(7.691501 0.002778102 0)
(7.691595 0.002785 0)
(7.691688 0.002791148 0)
(7.69178 0.002796623 0)
(7.691871 0.002801489 0)
(7.691961 0.002805805 0)
(7.69205 0.002809621 0)
(7.692139 0.002812984 0)
(7.692226 0.002815931 0)
(7.692314 0.002818499 0)
(7.692401 0.002820717 0)
(7.692487 0.002822612 0)
(7.692573 0.002824208 0)
(7.692659 0.002825525 0)
(7.692744 0.002826582 0)
(7.692829 0.002827394 0)
(7.692914 0.002827973 0)
(7.692999 0.00282833 0)
(7.693083 0.002828476 0)
(7.693168 0.002828416 0)
(7.693252 0.002828157 0)
(7.693336 0.002827702 0)
(7.69342 0.002827053 0)
(7.693505 0.00282621 0)
(7.693589 0.002825174 0)
(7.693674 0.002823941 0)
(7.693758 0.002822506 0)
(7.693843 0.002820865 0)
(7.693928 0.002819009 0)
(7.694013 0.002816928 0)
(7.694099 0.002814613 0)
(7.694184 0.002812048 0)
(7.694271 0.00280922 0)
(7.694357 0.002806109 0)
(7.694444 0.002802696 0)
(7.694532 0.002798956 0)
(7.69462 0.002794865 0)
(7.694709 0.002790391 0)
(7.694798 0.002785501 0)
(7.694888 0.002780156 0)
(7.694979 0.002774314 0)
(7.695071 0.002767924 0)
(7.695164 0.002760932 0)
(7.695258 0.002753274 0)
(7.695354 0.002744878 0)
(7.69545 0.002735662 0)
(7.695548 0.002725533 0)
(7.695648 0.002714382 0)
(7.69575 0.002702085 0)
(7.695853 0.002688499 0)
(7.695959 0.002673457 0)
(7.696067 0.002656762 0)
(7.696177 0.002638188 0)
(7.69629 0.002617463 0)
(7.696407 0.002594266 0)
(7.696527 0.002568216 0)
(7.696651 0.002538851 0)
(7.696778 0.002505617 0)
(7.696911 0.002467836 0)
(7.697048 0.00242468 0)
(7.697191 0.002375127 0)
(7.69734 0.002317914 0)
(7.697495 0.002251468 0)
(7.697656 0.002173833 0)
(7.697824 0.002082572 0)
(7.697998 0.001974673 0)
(7.698177 0.001846466 0)
(7.69836 0.001693589 0)
(7.698541 0.001511118 0)
(7.698716 0.001293936 0)
(7.698875 0.001037989 0)
(7.699 0.0007410772 0)
(7.6991 0.000411533 0)
(11.28375 0.0003522928 0)
(8.450455 0.0006974549 0)
(7.308516 0.0009284249 0)
(7.612723 0.00110908 0)
(7.728431 0.001274136 0)
(7.696016 0.001418812 0)
(7.684502 0.00154109 0)
(7.688144 0.001645523 0)
(7.689477 0.001735728 0)
(7.689255 0.001813835 0)
(7.689283 0.001881671 0)
(7.689464 0.001940877 0)
(7.689612 0.001992804 0)
(7.68974 0.00203855 0)
(7.689866 0.002079028 0)
(7.689991 0.002114996 0)
(7.690111 0.002147085 0)
(7.690228 0.002175821 0)
(7.690342 0.002201645 0)
(7.690453 0.00222493 0)
(7.690561 0.002245989 0)
(7.690667 0.002265091 0)
(7.690771 0.002282462 0)
(7.690873 0.002298299 0)
(7.690974 0.002312769 0)
(7.691072 0.002326017 0)
(7.691169 0.002338171 0)
(7.691265 0.002349339 0)
(7.69136 0.002359618 0)
(7.691453 0.002369091 0)
(7.691545 0.002377833 0)
(7.691637 0.002385908 0)
(7.691727 0.002393373 0)
(7.691817 0.00240028 0)
(7.691906 0.002406672 0)
(7.691995 0.00241259 0)
(7.692083 0.002418069 0)
(7.69217 0.002423138 0)
(7.692257 0.002427826 0)
(7.692343 0.002432157 0)
(7.69243 0.002436152 0)
(7.692515 0.002439828 0)
(7.692601 0.002443201 0)
(7.692686 0.002446286 0)
(7.692771 0.002449093 0)
(7.692856 0.002451632 0)
(7.692941 0.00245391 0)
(7.693026 0.002455932 0)
(7.693111 0.002457702 0)
(7.693195 0.002459223 0)
(7.69328 0.002460494 0)
(7.693365 0.002461514 0)
(7.693449 0.002462279 0)
(7.693534 0.002462786 0)
(7.693619 0.002463026 0)
(7.693705 0.002462991 0)
(7.69379 0.00246267 0)
(7.693876 0.002462051 0)
(7.693962 0.002461118 0)
(7.694048 0.002459853 0)
(7.694135 0.002458237 0)
(7.694222 0.002456245 0)
(7.694309 0.002453851 0)
(7.694397 0.002451026 0)
(7.694486 0.002447735 0)
(7.694575 0.002443939 0)
(7.694665 0.002439596 0)
(7.694756 0.002434656 0)
(7.694848 0.002429064 0)
(7.694941 0.002422756 0)
(7.695034 0.002415662 0)
(7.695129 0.002407701 0)
(7.695225 0.00239878 0)
(7.695323 0.002388796 0)
(7.695421 0.002377627 0)
(7.695522 0.002365135 0)
(7.695624 0.002351163 0)
(7.695728 0.002335526 0)
(7.695835 0.00231801 0)
(7.695943 0.002298368 0)
(7.696054 0.002276308 0)
(7.696168 0.002251487 0)
(7.696285 0.0022235 0)
(7.696405 0.002191867 0)
(7.696529 0.002156013 0)
(7.696657 0.002115251 0)
(7.696788 0.002068755 0)
(7.696924 0.002015527 0)
(7.697064 0.001954363 0)
(7.697209 0.001883809 0)
(7.697359 0.001802117 0)
(7.697512 0.0017072 0)
(7.697668 0.001596606 0)
(7.697827 0.001467528 0)
(7.697984 0.001316886 0)
(7.698137 0.001141576 0)
(7.698281 0.0009388832 0)
(7.698408 0.0007075364 0)
(7.698505 0.0004480234 0)
(7.698582 0.0001682004 0)
(11.28396 0.0003481712 0)
(8.450666 0.0006730345 0)
(7.30869 0.0009041131 0)
(7.61287 0.001101432 0)
(7.728562 0.001285705 0)
(7.696127 0.001449921 0)
(7.684593 0.001591905 0)
(7.688217 0.001715114 0)
(7.689533 0.001822543 0)
(7.689298 0.001916219 0)
(7.689312 0.001998 0)
(7.689482 0.002069598 0)
(7.689621 0.002132471 0)
(7.68974 0.002187845 0)
(7.689859 0.002236757 0)
(7.689976 0.002280085 0)
(7.690091 0.00231857 0)
(7.690202 0.00235284 0)
(7.690311 0.002383427 0)
(7.690417 0.002410786 0)
(7.690522 0.002435305 0)
(7.690624 0.002457317 0)
(7.690725 0.002477107 0)
(7.690823 0.002494925 0)
(7.690921 0.002510984 0)
(7.691017 0.002525471 0)
(7.691111 0.00253855 0)
(7.691205 0.002550363 0)
(7.691297 0.002561036 0)
(7.691389 0.002570678 0)
(7.691479 0.002579386 0)
(7.691569 0.002587248 0)
(7.691658 0.002594337 0)
(7.691746 0.002600723 0)
(7.691834 0.002606463 0)
(7.691921 0.002611612 0)
(7.692007 0.002616215 0)
(7.692093 0.002620314 0)
(7.692179 0.002623947 0)
(7.692265 0.002627145 0)
(7.69235 0.002629936 0)
(7.692434 0.002632347 0)
(7.692519 0.002634398 0)
(7.692603 0.002636108 0)
(7.692688 0.002637493 0)
(7.692772 0.002638566 0)
(7.692856 0.002639338 0)
(7.69294 0.002639818 0)
(7.693024 0.002640011 0)
(7.693107 0.002639923 0)
(7.693191 0.002639554 0)
(7.693275 0.002638904 0)
(7.693359 0.002637972 0)
(7.693444 0.002636753 0)
(7.693528 0.002635239 0)
(7.693612 0.002633423 0)
(7.693697 0.002631293 0)
(7.693782 0.002628835 0)
(7.693867 0.002626033 0)
(7.693953 0.002622868 0)
(7.694039 0.002619318 0)
(7.694125 0.002615356 0)
(7.694212 0.002610954 0)
(7.694299 0.002606079 0)
(7.694387 0.002600693 0)
(7.694476 0.002594754 0)
(7.694565 0.002588215 0)
(7.694655 0.00258102 0)
(7.694745 0.002573109 0)
(7.694837 0.002564413 0)
(7.694929 0.002554855 0)
(7.695023 0.002544345 0)
(7.695118 0.002532784 0)
(7.695214 0.002520058 0)
(7.695311 0.002506037 0)
(7.69541 0.002490572 0)
(7.69551 0.002473495 0)
(7.695612 0.002454608 0)
(7.695716 0.002433688 0)
(7.695822 0.002410473 0)
(7.695931 0.00238466 0)
(7.696041 0.002355896 0)
(7.696155 0.002323769 0)
(7.696271 0.002287794 0)
(7.696389 0.002247402 0)
(7.696511 0.002201923 0)
(7.696636 0.002150563 0)
(7.696765 0.00209239 0)
(7.696896 0.002026302 0)
(7.697031 0.001951009 0)
(7.697168 0.00186501 0)
(7.697307 0.001766588 0)
(7.697447 0.001653815 0)
(7.697587 0.001524612 0)
(7.697723 0.001376865 0)
(7.697853 0.001208667 0)
(7.697971 0.001018653 0)
(7.698074 0.0008067523 0)
(7.69815 0.0005742286 0)
(7.69821 0.0003274447 0)
(11.28406 0.0002914066 0)
(8.450748 0.0005631498 0)
(7.308715 0.0007542816 0)
(7.612868 0.0009189415 0)
(7.728542 0.001073709 0)
(7.696084 0.001212442 0)
(7.684529 0.001333497 0)
(7.688137 0.001439625 0)
(7.68944 0.001533081 0)
(7.689193 0.001615363 0)
(7.689198 0.00168787 0)
(7.68936 0.001751913 0)
(7.689493 0.001808627 0)
(7.689606 0.001858978 0)
(7.689721 0.001903799 0)
(7.689835 0.001943804 0)
(7.689946 0.001979604 0)
(7.690055 0.002011724 0)
(7.690162 0.002040611 0)
(7.690267 0.002066652 0)
(7.69037 0.00209018 0)
(7.690472 0.002111481 0)
(7.690572 0.002130804 0)
(7.69067 0.002148364 0)
(7.690767 0.002164348 0)
(7.690862 0.00217892 0)
(7.690957 0.002192223 0)
(7.69105 0.002204383 0)
(7.691143 0.002215509 0)
(7.691234 0.002225699 0)
(7.691325 0.002235038 0)
(7.691414 0.002243603 0)
(7.691504 0.002251458 0)
(7.691592 0.002258665 0)
(7.69168 0.002265274 0)
(7.691767 0.002271334 0)
(7.691854 0.002276883 0)
(7.691941 0.00228196 0)
(7.692027 0.002286595 0)
(7.692112 0.002290816 0)
(7.692198 0.002294649 0)
(7.692283 0.002298114 0)
(7.692368 0.002301229 0)
(7.692452 0.002304011 0)
(7.692537 0.002306471 0)
(7.692621 0.002308621 0)
(7.692706 0.002310468 0)
(7.69279 0.002312019 0)
(7.692874 0.002313277 0)
(7.692958 0.002314243 0)
(7.693042 0.002314918 0)
(7.693126 0.002315298 0)
(7.693211 0.002315379 0)
(7.693295 0.002315154 0)
(7.693379 0.002314615 0)
(7.693464 0.002313748 0)
(7.693549 0.002312542 0)
(7.693634 0.002310978 0)
(7.693719 0.002309039 0)
(7.693805 0.002306701 0)
(7.693891 0.00230394 0)
(7.693977 0.002300727 0)
(7.694064 0.00229703 0)
(7.694151 0.00229281 0)
(7.694238 0.002288027 0)
(7.694327 0.002282634 0)
(7.694415 0.002276579 0)
(7.694505 0.002269803 0)
(7.694595 0.002262239 0)
(7.694686 0.002253812 0)
(7.694778 0.00224444 0)
(7.694871 0.002234026 0)
(7.694965 0.002222464 0)
(7.69506 0.002209634 0)
(7.695156 0.002195397 0)
(7.695253 0.002179597 0)
(7.695352 0.002162057 0)
(7.695453 0.002142574 0)
(7.695555 0.002120915 0)
(7.695658 0.002096814 0)
(7.695764 0.002069963 0)
(7.695872 0.002040008 0)
(7.695981 0.002006539 0)
(7.696093 0.001969083 0)
(7.696208 0.00192709 0)
(7.696324 0.001879923 0)
(7.696443 0.001826846 0)
(7.696564 0.001767006 0)
(7.696688 0.001699428 0)
(7.696813 0.001622998 0)
(7.696939 0.001536467 0)
(7.697065 0.001438462 0)
(7.697191 0.00132752 0)
(7.697315 0.001202162 0)
(7.697433 0.001061017 0)
(7.697544 0.0009030352 0)
(7.697644 0.0007277436 0)
(7.697729 0.0005357588 0)
(7.697791 0.0003286901 0)
(7.69784 0.000111634 0)
(11.2842 0.0002744063 0)
(8.450882 0.0005244582 0)
(7.308821 0.0007046683 0)
(7.612961 0.0008673342 0)
(7.728626 0.001024555 0)
(7.696157 0.001169277 0)
(7.68459 0.001299189 0)
(7.688186 0.001415917 0)
(7.689479 0.001520833 0)
(7.689223 0.001614875 0)
(7.689219 0.001699056 0)
(7.689373 0.00177442 0)
(7.689498 0.001841934 0)
(7.689606 0.001902469 0)
(7.689714 0.001956808 0)
(7.689823 0.00200565 0)
(7.689929 0.002049612 0)
(7.690034 0.002089238 0)
(7.690137 0.002125005 0)
(7.690238 0.002157333 0)
(7.690338 0.002186589 0)
(7.690436 0.002213098 0)
(7.690533 0.002237143 0)
(7.690628 0.002258975 0)
(7.690723 0.002278814 0)
(7.690816 0.002296856 0)
(7.690908 0.002313273 0)
(7.691 0.002328217 0)
(7.69109 0.002341825 0)
(7.69118 0.002354216 0)
(7.691269 0.002365499 0)
(7.691357 0.002375768 0)
(7.691445 0.002385109 0)
(7.691532 0.002393598 0)
(7.691618 0.002401304 0)
(7.691704 0.002408286 0)
(7.69179 0.002414598 0)
(7.691875 0.002420289 0)
(7.69196 0.002425402 0)
(7.692045 0.002429975 0)
(7.692129 0.00243404 0)
(7.692214 0.002437629 0)
(7.692298 0.002440766 0)
(7.692381 0.002443474 0)
(7.692465 0.002445773 0)
(7.692549 0.002447677 0)
(7.692632 0.002449201 0)
(7.692715 0.002450355 0)
(7.692799 0.002451147 0)
(7.692882 0.002451582 0)
(7.692965 0.002451663 0)
(7.693049 0.00245139 0)
(7.693132 0.00245076 0)
(7.693216 0.00244977 0)
(7.6933 0.00244841 0)
(7.693384 0.002446673 0)
(7.693468 0.002444543 0)
(7.693552 0.002442007 0)
(7.693637 0.002439044 0)
(7.693721 0.002435634 0)
(7.693807 0.002431749 0)
(7.693892 0.002427361 0)
(7.693978 0.002422436 0)
(7.694064 0.002416935 0)
(7.694151 0.002410817 0)
(7.694238 0.002404032 0)
(7.694326 0.002396524 0)
(7.694415 0.002388234 0)
(7.694504 0.002379091 0)
(7.694594 0.002369018 0)
(7.694684 0.002357927 0)
(7.694776 0.00234572 0)
(7.694868 0.002332285 0)
(7.694961 0.002317499 0)
(7.695056 0.002301218 0)
(7.695151 0.002283285 0)
(7.695248 0.002263517 0)
(7.695346 0.002241709 0)
(7.695446 0.002217628 0)
(7.695547 0.002191006 0)
(7.695649 0.002161542 0)
(7.695753 0.002128888 0)
(7.695859 0.002092649 0)
(7.695967 0.002052372 0)
(7.696076 0.002007541 0)
(7.696187 0.001957567 0)
(7.696299 0.001901783 0)
(7.696413 0.001839433 0)
(7.696528 0.001769672 0)
(7.696644 0.001691566 0)
(7.69676 0.001604102 0)
(7.696875 0.001506211 0)
(7.696988 0.001396812 0)
(7.697097 0.001274886 0)
(7.697201 0.001139586 0)
(7.697296 0.0009904029 0)
(7.697381 0.0008273445 0)
(7.697452 0.0006512759 0)
(7.697503 0.0004637654 0)
(7.697543 0.0002688409 0)
(11.28431 0.0002428062 0)
(8.450968 0.0004630518 0)
(7.308874 0.0006210684 0)
(7.612998 0.0007646233 0)
(7.728651 0.0009036594 0)
(7.696167 0.001031681 0)
(7.684585 0.001146722 0)
(7.688167 0.001250207 0)
(7.689447 0.001343299 0)
(7.68918 0.001426794 0)
(7.689167 0.001501566 0)
(7.689312 0.001568525 0)
(7.689429 0.001628511 0)
(7.68953 0.00168229 0)
(7.689633 0.001730551 0)
(7.689736 0.001773913 0)
(7.689839 0.001812923 0)
(7.689939 0.001848067 0)
(7.690039 0.001879772 0)
(7.690138 0.001908413 0)
(7.690235 0.001934321 0)
(7.690331 0.001957788 0)
(7.690426 0.001979068 0)
(7.690521 0.001998389 0)
(7.690614 0.002015947 0)
(7.690706 0.002031919 0)
(7.690797 0.002046459 0)
(7.690888 0.002059706 0)
(7.690978 0.002071779 0)
(7.691067 0.002082787 0)
(7.691156 0.002092826 0)
(7.691243 0.002101981 0)
(7.691331 0.002110326 0)
(7.691418 0.00211793 0)
(7.691504 0.002124851 0)
(7.69159 0.002131142 0)
(7.691676 0.002136852 0)
(7.691761 0.00214202 0)
(7.691846 0.002146684 0)
(7.691931 0.002150876 0)
(7.692015 0.002154625 0)
(7.692099 0.002157954 0)
(7.692183 0.002160884 0)
(7.692267 0.002163435 0)
(7.692351 0.00216562 0)
(7.692435 0.002167451 0)
(7.692518 0.002168938 0)
(7.692602 0.002170088 0)
(7.692685 0.002170905 0)
(7.692769 0.00217139 0)
(7.692852 0.002171543 0)
(7.692936 0.002171361 0)
(7.693019 0.002170838 0)
(7.693103 0.002169966 0)
(7.693187 0.002168735 0)
(7.69327 0.002167132 0)
(7.693354 0.00216514 0)
(7.693439 0.00216274 0)
(7.693523 0.002159911 0)
(7.693608 0.002156628 0)
(7.693693 0.00215286 0)
(7.693778 0.002148576 0)
(7.693864 0.002143738 0)
(7.69395 0.002138305 0)
(7.694036 0.002132229 0)
(7.694123 0.00212546 0)
(7.69421 0.002117938 0)
(7.694298 0.002109597 0)
(7.694387 0.002100365 0)
(7.694476 0.002090161 0)
(7.694566 0.002078891 0)
(7.694656 0.002066455 0)
(7.694748 0.002052737 0)
(7.69484 0.002037609 0)
(7.694933 0.002020927 0)
(7.695027 0.002002529 0)
(7.695122 0.001982231 0)
(7.695218 0.00195983 0)
(7.695315 0.001935092 0)
(7.695414 0.001907756 0)
(7.695513 0.001877528 0)
(7.695614 0.001844072 0)
(7.695717 0.001807014 0)
(7.69582 0.001765929 0)
(7.695925 0.001720339 0)
(7.69603 0.001669711 0)
(7.696137 0.001613449 0)
(7.696244 0.001550896 0)
(7.696352 0.001481335 0)
(7.696459 0.001403996 0)
(7.696566 0.001318073 0)
(7.696671 0.001222753 0)
(7.696772 0.001117261 0)
(7.69687 0.001000923 0)
(7.696961 0.0008732658 0)
(7.697045 0.0007341324 0)
(7.697118 0.0005838119 0)
(7.697178 0.000423259 0)
(7.697222 0.0002539235 0)
(7.697255 7.901376e-05 0)
(11.28441 0.0002253475 0)
(8.451066 0.0004273577 0)
(7.30895 0.0005738376 0)
(7.613066 0.000710082 0)
(7.728714 0.0008443281 0)
(7.696221 0.0009702729 0)
(7.68463 0.001085869 0)
(7.688205 0.001192008 0)
(7.689477 0.001289348 0)
(7.689203 0.00137828 0)
(7.689183 0.001459328 0)
(7.689322 0.001533106 0)
(7.689434 0.001600222 0)
(7.68953 0.001661257 0)
(7.689628 0.001716763 0)
(7.689727 0.001767253 0)
(7.689825 0.001813203 0)
(7.689923 0.001855042 0)
(7.690019 0.001893165 0)
(7.690115 0.001927924 0)
(7.690209 0.001959638 0)
(7.690303 0.001988594 0)
(7.690396 0.002015049 0)
(7.690488 0.002039233 0)
(7.690579 0.002061353 0)
(7.690669 0.002081595 0)
(7.690759 0.002100124 0)
(7.690848 0.00211709 0)
(7.690936 0.002132627 0)
(7.691024 0.002146855 0)
(7.691111 0.002159881 0)
(7.691197 0.002171805 0)
(7.691283 0.002182711 0)
(7.691369 0.002192679 0)
(7.691454 0.00220178 0)
(7.691539 0.002210076 0)
(7.691624 0.002217625 0)
(7.691708 0.002224477 0)
(7.691792 0.002230678 0)
(7.691876 0.002236268 0)
(7.69196 0.002241283 0)
(7.692043 0.002245755 0)
(7.692126 0.002249711 0)
(7.692209 0.002253176 0)
(7.692292 0.002256171 0)
(7.692375 0.002258712 0)
(7.692458 0.002260814 0)
(7.692541 0.002262489 0)
(7.692624 0.002263745 0)
(7.692706 0.002264588 0)
(7.692789 0.002265019 0)
(7.692872 0.002265041 0)
(7.692955 0.002264649 0)
(7.693038 0.002263839 0)
(7.693121 0.002262602 0)
(7.693204 0.002260926 0)
(7.693287 0.002258799 0)
(7.693371 0.002256201 0)
(7.693455 0.002253113 0)
(7.693539 0.002249509 0)
(7.693623 0.002245362 0)
(7.693707 0.00224064 0)
(7.693792 0.002235304 0)
(7.693877 0.002229315 0)
(7.693963 0.002222625 0)
(7.694049 0.002215181 0)
(7.694135 0.002206924 0)
(7.694222 0.002197789 0)
(7.694309 0.002187701 0)
(7.694397 0.002176579 0)
(7.694485 0.002164329 0)
(7.694574 0.00215085 0)
(7.694664 0.002136026 0)