/*--------------------------------*- C++ -*----------------------------------*\
| =========                 |                                                 |
| \\      /  F ield         | OpenFOAM: The Open Source CFD Toolbox           |
|  \\    /   O peration     | Version:  2.3.0                                 |
|   \\  /    A nd           | Web:      www.OpenFOAM.org                      |
|    \\/     M anipulation  |                                                 |
\*---------------------------------------------------------------------------*/
FoamFile
{
    version     2.0;
    format      ascii;
    class       volVectorField;
    location    "10000";
    object      U;
}
// * * * * * * * * * * * * * * * * * * * * * * * * * * * * * * * * * * * * * //

dimensions      [0 1 -1 0 0 0 0];

internalField   nonuniform List<vector> 
26600
(
(9.83019 5.03214 -3.75595e-21)
(9.65689 4.94125 -2.13458e-19)
(9.54087 4.85742 -7.16335e-21)
(9.46821 4.79061 1.46356e-19)
(9.40355 4.73496 1.28166e-19)
(9.34056 4.6862 0)
(9.28177 4.64242 2.9405e-21)
(9.22706 4.60287 0)
(9.17522 4.56679 7.72987e-20)
(9.12572 4.53352 6.90496e-20)
(9.07836 4.50256 0)
(9.03297 4.47359 5.57999e-20)
(8.98935 4.44634 0)
(8.94733 4.42062 0)
(8.90675 4.39625 0)
(8.8675 4.37309 0)
(8.82945 4.35101 0)
(8.79253 4.32991 3.18935e-20)
(8.75666 4.30971 0)
(8.72176 4.29033 0)
(8.68778 4.27171 0)
(8.65465 4.25379 0)
(8.62231 4.23654 2.17732e-20)
(8.59073 4.2199 0)
(8.55982 4.2038 0)
(8.52952 4.1882 1.68498e-20)
(8.49976 4.17303 0)
(8.47043 4.15824 0)
(8.44142 4.14368 1.22184e-20)
(8.41253 4.1293 1.0271e-20)
(8.38361 4.11492 0)
(8.35447 4.10062 1.38541e-20)
(8.32484 4.08601 0)
(8.29458 4.07129 2.6406e-21)
(8.26335 4.05619 1.05102e-21)
(8.23164 4.04111 -2.14804e-21)
(8.19934 4.0263 0)
(8.16451 4.01413 -1.27158e-20)
(8.18002 3.99049 0)
(7.93945 3.87136 8.90763e-22)
(9.96256 4.57044 6.91117e-19)
(9.7778 4.61301 1.89056e-19)
(9.64669 4.59094 3.11968e-19)
(9.57459 4.57034 -2.71512e-19)
(9.52123 4.5586 -2.39317e-19)
(9.47369 4.54833 -1.06883e-19)
(9.43301 4.53871 -1.86357e-19)
(9.3983 4.52999 -8.36078e-20)
(9.36869 4.52243 -7.29871e-20)
(9.34271 4.51568 -6.54108e-20)
(9.3199 4.50975 -5.98502e-20)
(9.29976 4.50446 -1.06961e-19)
(9.28174 4.49971 0)
(9.26568 4.49542 0)
(9.251 4.49138 0)
(9.23771 4.48767 0)
(9.22539 4.48412 0)
(9.21412 4.48077 3.10593e-20)
(9.20356 4.47757 0)
(9.19395 4.47452 0)
(9.18486 4.47162 0)
(9.1765 4.46876 0)
(9.16881 4.46608 -2.04189e-20)
(9.16115 4.46317 0)
(9.15414 4.46035 0)
(9.14585 4.45671 -2.00121e-20)
(9.13968 4.45397 0)
(9.13076 4.44961 0)
(9.12462 4.44663 -8.96006e-21)
(9.11517 4.44129 0)
(9.10918 4.4378 0)
(9.10009 4.43219 -7.30617e-21)
(9.09143 4.42598 0)
(9.08122 4.41969 0)
(9.07093 4.41108 -9.29479e-22)
(9.05773 4.4046 0)
(9.04915 4.3931 0)
(9.0246 4.38541 6.07225e-21)
(9.02371 4.3663 0)
(8.96469 4.38708 0)
(9.94373 4.61227 -2.94058e-19)
(9.79519 4.68668 0)
(9.6811 4.6805 -2.88359e-19)
(9.60798 4.66501 1.26004e-19)
(9.55552 4.65122 1.11629e-19)
(9.51159 4.63745 9.91109e-20)
(9.47466 4.62396 1.76627e-19)
(9.44371 4.61163 7.83828e-20)
(9.41761 4.60079 -7.07967e-20)
(9.39511 4.59116 6.3665e-20)
(9.37583 4.58271 5.67047e-20)
(9.35918 4.57515 5.13061e-20)
(9.34484 4.56849 4.70577e-20)
(9.33246 4.56246 0)
(9.32159 4.55699 3.91633e-20)
(9.31218 4.55203 0)
(9.30363 4.54747 0)
(9.2963 4.54338 -2.99694e-20)
(9.28949 4.53968 2.80389e-20)
(9.28367 4.53634 0)
(9.27847 4.53342 2.39875e-20)
(9.27387 4.53071 0)
(9.27002 4.52832 2.05496e-20)
(9.26661 4.52592 0)
(9.26393 4.52378 1.75084e-20)
(9.26133 4.5216 0)
(9.2594 4.51943 1.4711e-20)
(9.2572 4.51756 1.33545e-20)
(9.25562 4.51534 1.20084e-20)
(9.25307 4.5136 1.06646e-20)
(9.25137 4.51024 9.27409e-21)
(9.24756 4.5076 0)
(9.2453 4.50239 6.27957e-21)
(9.23932 4.49892 4.67793e-21)
(9.23598 4.4914 3.29043e-21)
(9.22801 4.48798 0)
(9.22434 4.47654 0)
(9.21285 4.47214 -3.29182e-21)
(9.20644 4.4537 0)
(9.18018 4.45708 -7.88821e-21)
(9.96734 4.57864 0)
(9.87432 4.6398 0)
(9.77285 4.64329 1.37324e-19)
(9.6974 4.63326 0)
(9.64084 4.62277 0)
(9.5934 4.61255 -9.50432e-20)
(9.55297 4.60249 -8.29891e-20)
(9.51884 4.59326 0)
(9.48969 4.5851 6.619e-20)
(9.46455 4.57795 -5.95156e-20)
(9.44269 4.57177 0)
(9.42372 4.56637 0)
(9.40717 4.56172 -8.90522e-20)
(9.39277 4.55752 0)
(9.38006 4.55383 -3.688e-20)
(9.36887 4.55037 0)
(9.3588 4.54737 0)
(9.34988 4.54452 0)
(9.34181 4.54217 -2.66258e-20)
(9.33462 4.53997 0)
(9.32825 4.53823 -2.28724e-20)
(9.32254 4.53655 0)
(9.31764 4.53527 -1.96544e-20)
(9.31321 4.53393 0)
(9.30969 4.53285 -1.67572e-20)
(9.3064 4.53157 0)
(9.30408 4.53043 -1.40904e-20)
(9.3018 4.52918 -1.28061e-20)
(9.30019 4.52766 -1.15102e-20)
(9.29788 4.52569 -1.0236e-20)
(9.29643 4.52285 -8.89639e-21)
(9.29374 4.52017 0)
(9.29153 4.51482 -6.03133e-21)
(9.28667 4.51 -5.88245e-21)
(9.28669 4.50482 -2.44806e-21)
(9.28005 4.50062 2.02085e-21)
(9.27843 4.48865 0)
(9.26652 4.48213 3.50374e-21)
(9.2647 4.46734 0)
(9.24373 4.45815 9.71894e-21)
(9.98051 4.54951 0)
(9.91441 4.61205 0)
(9.82401 4.631 -1.34838e-19)
(9.74935 4.63107 0)
(9.6905 4.62655 0)
(9.64084 4.62067 9.2244e-20)
(9.59823 4.61362 0)
(9.56212 4.60647 0)
(9.53094 4.59958 0)
(9.50403 4.59336 0)
(9.48039 4.58775 0)
(9.45991 4.58277 0)
(9.44187 4.57832 4.3092e-20)
(9.42623 4.57422 0)
(9.41236 4.57045 0)
(9.40014 4.5668 0)
(9.38911 4.56352 0)
(9.37931 4.56035 0)
(9.37038 4.55763 0)
(9.3624 4.55505 0)
(9.35519 4.55293 0)
(9.34878 4.55087 0)
(9.34309 4.54918 0)
(9.33789 4.54739 0)
(9.3335 4.5458 0)
(9.32932 4.54412 0)
(9.32621 4.54247 0)
(9.32291 4.54077 0)
(9.3211 4.53861 0)
(9.31847 4.53674 0)
(9.31779 4.53389 0)
(9.31525 4.53155 0)
(9.31479 4.52677 0)
(9.3113 4.52324 0)
(9.30991 4.51508 0)
(9.30463 4.50971 -2.11288e-21)
(9.30135 4.49691 0)
(9.29298 4.48973 0)
(9.28803 4.47354 0)
(9.2768 4.46295 0)
(9.98806 4.53127 0)
(9.93986 4.5841 0)
(9.86209 4.60795 1.34795e-19)
(9.79227 4.61311 -1.17919e-19)
(9.73379 4.61199 0)
(9.68357 4.60914 -9.25789e-20)
(9.63982 4.60455 -8.20712e-20)
(9.60247 4.5994 0)
(9.56962 4.5939 0)
(9.54116 4.58884 -5.83168e-20)
(9.51566 4.58408 -5.24664e-20)
(9.49356 4.57993 -4.73958e-20)
(9.4737 4.57609 -4.29967e-20)
(9.45663 4.57261 -3.90305e-20)
(9.4412 4.56922 -3.55102e-20)
(9.42776 4.56591 0)
(9.41521 4.56279 -2.97685e-20)
(9.40407 4.55971 0)
(9.39344 4.55701 0)
(9.38404 4.55441 0)
(9.37505 4.55226 0)
(9.36727 4.55017 0)
(9.35979 4.54845 0)
(9.35343 4.54671 0)
(9.34738 4.54516 0)
(9.34227 4.54361 0)
(9.33756 4.5421 0)
(9.33347 4.5407 0)
(9.3302 4.53879 0)
(9.32739 4.53716 0)
(9.32572 4.5344 0)
(9.32381 4.53211 0)
(9.32267 4.52724 0)
(9.32057 4.5234 0)
(9.3186 4.51492 0)
(9.31527 4.50869 4.76046e-21)
(9.31102 4.49467 0)
(9.30499 4.48679 0)
(9.29704 4.4667 0)
(9.29013 4.46206 0)
(9.99298 4.5186 0)
(9.95532 4.55865 1.43665e-19)
(9.88656 4.58374 0)
(9.82137 4.59295 8.45235e-22)
(9.76339 4.59526 0)
(9.71271 4.59579 9.25572e-20)
(9.66796 4.59404 8.20112e-20)
(9.6297 4.59128 7.29379e-20)
(9.5953 4.58737 -6.50623e-20)
(9.56551 4.58364 5.81957e-20)
(9.53803 4.57972 1.04727e-19)
(9.5144 4.57647 4.72558e-20)
(9.49251 4.57318 8.57685e-20)
(9.47399 4.57034 -5.77572e-23)
(9.45652 4.56725 3.53924e-20)
(9.44175 4.56422 3.25256e-20)
(9.42738 4.56109 2.97549e-20)
(9.41511 4.55798 0)
(9.40277 4.55515 2.54828e-20)
(9.39233 4.55246 0)
(9.3817 4.55024 0)
(9.37296 4.54815 -2.05104e-20)
(9.36417 4.54641 0)
(9.35716 4.54472 -1.80548e-20)
(9.34995 4.54314 0)
(9.34442 4.54167 0)
(9.33853 4.54006 0)
(9.33435 4.53856 0)
(9.32951 4.53686 0)
(9.32684 4.53524 0)
(9.32331 4.53295 0)
(9.32209 4.53016 0)
(9.31891 4.52593 0)
(9.31885 4.52096 0)
(9.31419 4.51311 0)
(9.31413 4.50423 -4.94289e-21)
(9.30562 4.49078 0)
(9.30357 4.47709 0)
(9.28134 4.44992 0)
(9.28067 4.45822 0)
(9.9963 4.50827 0)
(9.96366 4.5343 -1.43833e-19)
(9.90122 4.55767 0)
(9.84038 4.56881 1.17177e-19)
(9.78303 4.57337 0)
(9.7319 4.57656 0)
(9.68614 4.57718 0)
(9.64715 4.57647 -7.29433e-20)
(9.6111 4.57378 6.50448e-20)
(9.58003 4.57108 0)
(9.55016 4.56763 -1.04631e-19)
(9.52496 4.56514 0)
(9.50049 4.56215 -4.29341e-20)
(9.48071 4.56004 3.91594e-20)
(9.46118 4.55707 0)
(9.44565 4.55454 -3.30323e-20)
(9.42949 4.55135 0)
(9.41668 4.54848 2.84154e-20)
(9.40255 4.54547 -2.64579e-20)
(9.3916 4.54293 0)
(9.379 4.54055 0)
(9.3698 4.53859 2.17583e-20)
(9.35874 4.53677 0)
(9.35124 4.53511 1.92537e-20)
(9.34155 4.5334 0)
(9.3353 4.53171 0)
(9.32648 4.52986 0)
(9.32116 4.52811 0)
(9.31299 4.52601 0)
(9.30872 4.524 0)
(9.30115 4.52104 0)
(9.2974 4.51709 0)
(9.28911 4.51172 0)
(9.28527 4.50392 0)
(9.2731 4.49381 0)
(9.26801 4.48004 0)
(9.24784 4.46204 0)
(9.24016 4.43992 0)
(9.19008 4.39151 0)
(9.21189 4.42627 0)
(9.99962 4.498 0)
(9.96319 4.51183 0)
(9.90865 4.53025 0)
(9.85065 4.54151 0)
(9.79329 4.54753 0)
(9.7411 4.55301 0)
(9.69403 4.55592 0)
(9.65414 4.5571 0)
(9.61629 4.5555 6.44127e-20)
(9.58383 4.55358 0)
(9.55113 4.55041 5.2353e-20)
(9.52431 4.54863 -4.7121e-20)
(9.49664 4.5459 0)
(9.47589 4.54485 0)
(9.45353 4.54209 -3.60991e-20)
(9.43795 4.54058 0)
(9.41917 4.53725 0)
(9.40667 4.53502 -2.91673e-20)
(9.38953 4.53143 0)
(9.37859 4.5292 0)
(9.36228 4.52594 0)
(9.35276 4.5242 0)
(9.33719 4.52114 2.09242e-20)
(9.32889 4.51952 0)
(9.31363 4.51586 1.83537e-20)
(9.30534 4.5135 -1.73426e-20)
(9.28923 4.50894 0)
(9.27989 4.50537 0)
(9.26136 4.49964 -1.39648e-20)
(9.25 4.49403 0)
(9.22683 4.48544 0)
(9.2122 4.47537 0)
(9.18028 4.46093 -1.04452e-20)
(9.16024 4.4432 0)
(9.11293 4.41842 0)
(9.08526 4.3898 0)
(9.01571 4.35005 0)
(8.98306 4.30911 0)
(8.8571 4.224 -1.03998e-20)
(8.94246 4.29316 0)
(10.002 4.48799 -2.16752e-19)
(9.96235 4.489 -1.46544e-19)
(9.90725 4.5024 -1.17875e-19)
(9.85156 4.51121 -1.13603e-19)
(9.79355 4.51752 -1.01698e-19)
(9.73957 4.52475 0)
(9.69126 4.52986 -8.01381e-20)
(9.65038 4.53268 -7.14118e-20)
(9.61123 4.53214 -6.46544e-20)
(9.57743 4.53061 -5.75577e-20)
(9.54217 4.52775 -5.20384e-20)
(9.51361 4.52647 4.99368e-22)
(9.48263 4.52421 -4.33337e-20)
(9.46092 4.52432 -3.9925e-20)
(9.4354 4.52193 3.72624e-20)
(9.42007 4.52152 -3.43923e-20)
(9.39762 4.51764 -3.17168e-20)
(9.38533 4.51566 0)
(9.36292 4.5103 0)
(9.35078 4.50738 -2.53551e-20)
(9.32737 4.50174 0)
(9.3147 4.4984 -2.21406e-20)
(9.28984 4.49233 -2.05609e-20)
(9.27529 4.48736 -1.96618e-20)
(9.24642 4.47877 -1.78934e-20)
(9.22785 4.47039 1.73241e-20)
(9.19009 4.45728 0)
(9.16449 4.44415 -1.55792e-20)
(9.11173 4.42437 1.38352e-20)
(9.07555 4.40461 -1.38479e-20)
(9.00063 4.37351 0)
(8.95061 4.34313 -1.23699e-20)
(8.84565 4.29404 1.07906e-20)
(8.78057 4.24942 -1.11125e-20)
(8.64178 4.1786 0)
(8.56468 4.11959 1.00271e-20)
(8.3965 4.03063 -9.74135e-21)
(8.31898 3.96146 0)
(8.09033 3.83725 -3.11728e-21)
(8.17472 3.88095 0)
(10.0039 4.47769 4.38574e-19)
(9.96117 4.46526 1.4116e-19)
(9.8996 4.47193 2.43229e-19)
(9.84391 4.47675 1.13631e-19)
(9.78357 4.48256 1.01738e-19)
(9.7267 4.4915 8.89716e-20)
(9.67736 4.49924 8.05532e-20)
(9.63575 4.50382 7.20493e-20)
(9.59666 4.50484 0)
(9.56149 4.5033 5.90342e-20)
(9.52447 4.50094 1.06901e-19)
(9.49271 4.49925 4.94202e-20)
(9.45862 4.49771 4.48437e-20)
(9.4336 4.49807 8.07468e-20)
(9.40513 4.49651 0)
(9.38655 4.49555 6.74539e-20)
(9.3594 4.49061 3.12599e-20)
(9.34185 4.48601 0)
(9.31043 4.47683 2.66023e-20)
(9.28919 4.4695 2.49503e-20)
(9.25078 4.4575 2.32416e-20)
(9.22312 4.44698 4.36319e-20)
(9.17386 4.43027 2.0529e-20)
(9.13457 4.41304 3.86778e-20)
(9.06719 4.38669 1.83543e-20)
(9.00851 4.35789 1.73825e-20)
(8.91449 4.3174 1.66171e-20)
(8.82863 4.27219 3.13496e-20)
(8.70062 4.21376 1.52207e-20)
(8.58426 4.1501 2.86185e-20)
(8.42104 4.07213 1.4222e-20)
(8.27957 3.99124 2.65783e-20)
(8.08908 3.89726 1.35603e-20)
(7.94034 3.80729 2.5042e-20)
(7.73624 3.70362 1.31614e-20)
(7.60252 3.61556 -1.10781e-20)
(7.39272 3.50943 2.39351e-20)
(7.29596 3.43299 1.2962e-20)
(7.04228 3.30941 3.46184e-20)
(7.10881 3.33178 4.55045e-21)
(10.0072 4.46514 -4.50563e-19)
(9.95536 4.43839 0)
(9.88476 4.43691 -2.46062e-19)
(9.82661 4.43666 0)
(9.76214 4.44159 9.95131e-20)
(9.70199 4.4532 -8.97045e-20)
(9.65225 4.46448 0)
(9.61109 4.47183 0)
(9.57311 4.47446 0)
(9.53529 4.47176 -5.88675e-20)
(9.4956 4.46826 -5.38572e-20)
(9.45631 4.46419 0)
(9.41814 4.46257 0)
(9.38395 4.46146 -3.94234e-20)
(9.35141 4.45993 0)
(9.31901 4.45394 -3.29317e-20)
(9.28267 4.44515 0)
(9.24145 4.42912 2.78072e-20)
(9.19073 4.41027 -2.63666e-20)
(9.13176 4.38504 0)
(9.05794 4.35559 -2.32651e-20)
(8.97241 4.31759 -2.19525e-20)
(8.86458 4.27069 -2.08331e-20)
(8.7419 4.2115 -1.98088e-20)
(8.59244 4.1408 -1.90013e-20)
(8.42993 4.05779 -1.82228e-20)
(8.24018 3.96423 -1.76762e-20)
(8.04625 3.86247 -1.70676e-20)
(7.8304 3.75463 -1.67006e-20)
(7.62373 3.6444 -1.62038e-20)
(7.40014 3.53324 -1.60496e-20)
(7.20396 3.42662 -1.56367e-20)
(6.98837 3.32202 -1.56189e-20)
(6.81697 3.22681 -1.52197e-20)
(6.61338 3.13157 -1.5364e-20)
(6.47598 3.0498 1.61171e-20)
(6.279 2.96127 -1.4742e-20)
(6.1864 2.89404 -1.46092e-20)
(5.95071 2.78837 -1.95569e-20)
(6.01826 2.80709 -5.13172e-21)
(10.0082 4.44688 4.24599e-19)
(9.94424 4.40723 1.31466e-19)
(9.86209 4.39631 1.22101e-19)
(9.79947 4.38983 0)
(9.72934 4.39418 -2.0128e-19)
(9.66601 4.41002 0)
(9.61557 4.42592 0)
(9.57572 4.43682 0)
(9.53501 4.43807 6.32607e-20)
(9.49087 4.43076 5.79218e-20)
(9.44037 4.42175 0)
(9.38943 4.41335 0)
(9.33686 4.40809 0)
(9.28696 4.40289 0)
(9.22922 4.39158 0)
(9.16536 4.37171 0)
(9.08252 4.34058 0)
(8.98505 4.29717 -2.80032e-20)
(8.86091 4.24095 0)
(8.7153 4.17177 0)
(8.53932 4.08848 0)
(8.3406 3.99054 0)
(8.11483 3.88114 2.24949e-20)
(7.87729 3.7616 0)
(7.62465 3.63613 0)
(7.37515 3.50841 2.17051e-20)
(7.12229 3.38144 0)
(6.88588 3.25907 2.14544e-20)
(6.64872 3.14272 0)
(6.43448 3.03442 0)
(6.21772 2.93305 2.12796e-20)
(6.02897 2.84019 0)
(5.82841 2.75169 2.09096e-20)
(5.66649 2.67103 0)
(5.47965 2.5909 0)
(5.35117 2.5206 -1.8708e-20)
(5.17236 2.4448 2.05289e-20)
(5.08628 2.3869 0)
(4.87439 2.29555 2.56914e-20)
(4.93355 2.30093 1.18463e-20)
(10.0148 4.42564 -4.5106e-19)
(9.92403 4.36784 -2.65398e-19)
(9.82947 4.34924 0)
(9.76182 4.33643 0)
(9.68481 4.34011 1.05032e-19)
(9.61615 4.36122 -8.94089e-20)
(9.56331 4.38187 -7.70789e-20)
(9.51842 4.39258 -6.75895e-20)
(9.46266 4.38531 -6.19218e-20)
(9.39832 4.36679 -5.34121e-20)
(9.32276 4.3457 -4.80531e-20)
(9.24085 4.32556 -4.34272e-20)
(9.15038 4.30601 0)
(9.04407 4.27725 -3.60927e-20)
(8.91239 4.23075 -3.33618e-20)
(8.75066 4.1623 -3.11514e-20)
(8.55455 4.07273 -2.95285e-20)
(8.32583 3.96177 0)
(8.06929 3.83626 0)
(7.79019 3.69752 -2.72267e-20)
(7.49749 3.5531 0)
(7.20208 3.40512 -2.68379e-20)
(6.91095 3.26094 -2.62072e-20)
(6.63106 3.12234 -2.67425e-20)
(6.36355 2.99251 0)
(6.11378 2.87184 -2.61578e-20)
(5.87529 2.76089 0)
(5.65614 2.6573 -2.61395e-20)
(5.44419 2.56014 0)
(5.25332 2.47021 0)
(5.06321 2.38505 -2.53448e-20)
(4.8962 2.30504 0)
(4.72297 2.23004 -2.48753e-20)
(4.57916 2.16131 0)
(4.41838 2.09688 0)
(4.30408 2.0384 0)
(4.14971 1.97814 -2.47048e-20)
(4.07354 1.9319 -2.62298e-20)
(3.89219 1.86072 -3.02888e-20)
(3.93497 1.85499 -3.15596e-20)
(10.026 4.3939 2.22027e-19)
(9.89355 4.31481 1.3485e-19)
(9.7887 4.29588 0)
(9.71155 4.27481 1.18413e-19)
(9.62393 4.2782 -1.02198e-19)
(9.54301 4.30534 8.81392e-20)
(9.47618 4.32592 1.4869e-19)
(9.39735 4.3211 6.64469e-20)
(9.29319 4.28885 0)
(9.16864 4.24159 5.32743e-20)
(9.02299 4.18899 4.83507e-20)
(8.85331 4.13018 8.65944e-20)
(8.65177 4.05644 0)
(8.40974 3.95917 7.46811e-20)
(8.12548 3.83463 7.98968e-22)
(7.81066 3.68756 3.43085e-20)
(7.47144 3.52546 6.66066e-20)
(7.12862 3.35569 0)
(6.78911 3.18796 0)
(6.46246 3.02716 -3.98604e-22)
(6.15289 2.87687 3.32183e-20)
(5.86344 2.74059 6.63204e-20)
(5.59249 2.61698 3.35264e-20)
(5.34093 2.5025 6.69285e-20)
(5.10782 2.39824 0)
(4.89243 2.30117 3.34553e-20)
(4.69374 2.21221 0)
(4.5118 2.12838 3.31764e-20)
(4.34141 2.05118 0)
(4.18656 1.97867 0)
(4.03633 1.91219 3.2896e-20)
(3.90211 1.84999 0)
(3.76689 1.79402 3.27262e-20)
(3.6518 1.74201 0)
(3.52799 1.69568 0)
(3.43413 1.64936 0)
(3.31201 1.60553 0)
(3.2481 1.57191 6.30146e-20)
(3.10809 1.52143 0)
(3.1333 1.51175 2.06778e-20)
(10.0235 4.34276 0)
(9.85596 4.25811 7.1894e-20)
(9.73045 4.23216 0)
(9.63239 4.19491 -1.18565e-19)
(9.52915 4.20041 1.00468e-19)
(9.41421 4.22541 0)
(9.27753 4.21535 -7.28048e-20)
(9.08438 4.15182 0)
(8.84338 4.05531 0)
(8.56821 3.94139 0)
(8.26507 3.81861 0)
(7.9279 3.68053 -4.63611e-20)
(7.56444 3.52498 0)
(7.17905 3.35118 -4.24648e-20)
(6.78765 3.16917 4.15197e-20)
(6.40486 2.98692 0)
(6.04029 2.81496 -4.10184e-20)
(5.70201 2.65736 0)
(5.38632 2.51274 0)
(5.10125 2.3849 4.19099e-20)
(4.83796 2.26848 -4.20472e-20)
(4.60273 2.16298 -4.17537e-20)
(4.38533 2.06597 -4.16036e-20)
(4.18935 1.97986 -4.14789e-20)
(4.0105 1.90192 0)
(3.84817 1.83125 -4.11936e-20)
(3.69977 1.76723 0)
(3.56369 1.70765 -4.09308e-20)
(3.43968 1.6533 0)
(3.32583 1.60112 0)
(3.21944 1.55478 -4.02322e-20)
(3.12408 1.51057 0)
(3.03155 1.4718 -3.95125e-20)
(2.95105 1.4339 0)
(2.86348 1.40289 0)
(2.79527 1.371 0)
(2.70912 1.34268 0)
(2.65989 1.3196 -3.74125e-20)
(2.55889 1.2865 0)
(2.56871 1.27698 0)
(10.0068 4.28133 0)
(9.79949 4.19769 -7.92254e-20)
(9.61005 4.14036 -6.48398e-20)
(9.48884 4.08506 -5.824e-20)
(9.33689 4.07765 0)
(9.09346 4.03491 0)
(8.73948 3.91339 0)
(8.31367 3.74224 0)
(7.85806 3.55518 0)
(7.399 3.36374 0)
(6.94166 3.17292 0)
(6.50126 2.9871 0)
(6.07508 2.7997 0)
(5.6691 2.62215 0)
(5.28839 2.45775 0)
(4.94797 2.30876 0)
(4.63853 2.17409 0)
(4.3668 2.05603 2.67932e-20)
(4.12936 1.95195 0)
(3.92262 1.86066 0)
(3.7401 1.78032 0)
(3.57779 1.70952 0)
(3.43057 1.64617 0)
(3.29978 1.59052 0)
(3.18004 1.54124 2.56588e-20)
(3.07266 1.49792 0)
(2.97551 1.45835 0)
(2.88785 1.42159 2.53274e-20)
(2.81011 1.38793 0)
(2.73898 1.35455 0)
(2.67366 1.32529 0)
(2.61303 1.29637 0)
(2.55423 1.27071 0)
(2.49992 1.2432 0)
(2.44016 1.21921 0)
(2.38976 1.19483 0)
(2.32635 1.17368 0)
(2.28364 1.15231 0)
(2.20249 1.13037 0)
(2.19553 1.11608 0)
(9.97976 4.17009 0)
(9.68178 4.0751 6.99514e-20)
(9.35749 3.98823 1.68492e-21)
(9.1324 3.89844 5.88763e-20)
(8.754 3.76589 5.0657e-20)
(8.20259 3.55236 0)
(7.56319 3.28565 0)
(6.95753 3.03679 0)
(6.3973 2.81906 0)
(5.88869 2.62434 0)
(5.43094 2.45154 0)
(5.02523 2.29322 0)
(4.64763 2.13701 0)
(4.30075 1.9928 0)
(4.00076 1.87249 0)
(3.74715 1.77402 0)
(3.54379 1.69555 0)
(3.38159 1.6317 -3.23564e-20)
(3.24479 1.57696 0)
(3.12744 1.52757 0)
(3.0248 1.483 0)
(2.9335 1.44202 0)
(2.85149 1.40567 0)
(2.77731 1.37342 0)
(2.70958 1.34427 -2.86226e-20)
(2.64745 1.31828 0)
(2.59071 1.29454 0)
(2.53765 1.27203 -2.74194e-20)
(2.487 1.24938 0)
(2.4383 1.22547 0)
(2.39002 1.20174 0)
(2.34164 1.1766 0)
(2.29179 1.15208 0)
(2.24213 1.12557 0)
(2.18837 1.10132 0)
(2.13771 1.07623 0)
(2.07897 1.05365 0)
(2.03148 1.02998 0)
(1.95955 1.00705 0)
(1.93446 0.993223 0)
(9.96679 4.01665 2.50397e-19)
(9.31888 3.78853 -6.98729e-20)
(8.57142 3.53865 6.67314e-20)
(7.94164 3.28098 -6.3423e-20)
(7.18036 2.96027 -1.02451e-21)
(6.38312 2.62664 -5.71289e-20)
(5.70218 2.37196 -5.52141e-20)
(5.13922 2.17208 -5.2513e-20)
(4.67045 2.02573 -4.97564e-20)
(4.30337 1.9168 4.64836e-20)
(4.00159 1.81623 0)
(3.73347 1.7127 4.26125e-20)
(3.51688 1.62769 0)
(3.34292 1.56821 0)
(3.20425 1.52748 3.91469e-20)
(3.0891 1.49391 0)
(2.99215 1.46534 3.67412e-20)
(2.90539 1.43538 3.55547e-20)
(2.82677 1.40295 3.41508e-20)
(2.75527 1.37046 0)
(2.68979 1.33976 0)
(2.62964 1.31128 3.12346e-20)
(2.57577 1.28621 0)
(2.52612 1.26387 2.97887e-20)
(2.47957 1.24338 0)
(2.43485 1.22401 0)
(2.39062 1.20449 2.82239e-20)
(2.34579 1.1841 0)
(2.29972 1.16191 2.7438e-20)
(2.25301 1.13731 0)
(2.20467 1.11117 2.65284e-20)
(2.15459 1.0834 0)
(2.10207 1.05563 0)
(2.04876 1.02649 2.53685e-20)
(1.99324 0.999092 0)
(1.93864 0.971698 2.45406e-20)
(1.87937 0.946573 0)
(1.82695 0.921036 0)
(1.75916 0.897646 2.36227e-20)
(1.72491 0.883287 0)
(9.88427 4.0745 2.77277e-20)
(7.61039 3.15463 0)
(6.26248 2.52335 9.44032e-20)
(5.37769 2.11117 9.24572e-20)
(4.64662 1.81287 -9.14642e-20)
(4.09557 1.62955 8.45261e-20)
(3.73945 1.55604 -1.29779e-21)
(3.48169 1.52502 6.69985e-20)
(3.30696 1.51325 5.94817e-20)
(3.18912 1.49766 -5.42518e-20)
(3.0985 1.47536 0)
(3.02602 1.44937 -4.60242e-20)
(2.96993 1.42901 0)
(2.9222 1.41344 0)
(2.8743 1.39904 -4.16535e-20)
(2.821 1.38068 0)
(2.76364 1.35954 -3.70909e-20)
(2.70362 1.33534 -1.66672e-22)
(2.64468 1.30978 -3.36063e-20)
(2.58705 1.28353 0)
(2.53147 1.25802 0)
(2.47823 1.23399 -3.02956e-20)
(2.42723 1.21189 0)
(2.37773 1.19091 -2.91903e-20)
(2.32926 1.17032 0)
(2.2811 1.14945 0)
(2.23253 1.12739 -2.82757e-20)
(2.18296 1.10367 0)
(2.13201 1.07799 -2.7847e-20)
(2.08022 1.05013 0)
(2.02727 1.02041 2.71793e-23)
(1.9732 0.989357 0)
(1.91737 0.958559 2.69109e-20)
(1.86136 0.927694 -2.63905e-20)
(1.80435 0.898104 2.61861e-20)
(1.74798 0.869356 -2.56707e-20)
(1.6892 0.842939 2.54872e-20)
(1.63533 0.816925 0)
(1.57106 0.79345 1.12727e-22)
(1.5335 0.778923 0)
(4.4982 0.412562 -8.26922e-20)
(3.62687 1.16137 0)
(3.36899 1.25077 1.07751e-20)
(3.29855 1.28287 -1.33929e-19)
(3.16697 1.27473 -1.18124e-19)
(3.02926 1.277 -1.02713e-19)
(2.94131 1.30859 -1.11166e-21)
(2.89534 1.34821 -7.60537e-20)
(2.86529 1.38984 0)
(2.84879 1.40803 0)
(2.84382 1.4071 -5.5098e-20)
(2.84316 1.39803 -5.12289e-20)
(2.83332 1.38572 0)
(2.80788 1.36895 0)
(2.76778 1.34737 0)
(2.71999 1.32374 0)
(2.66537 1.29856 0)
(2.606 1.27191 -2.53189e-22)
(2.54421 1.24445 0)
(2.48204 1.21678 0)
(2.42085 1.19002 0)
(2.36101 1.16464 0)
(2.30241 1.14067 0)
(2.24457 1.11727 0)
(2.18717 1.09373 0)
(2.12991 1.06959 0)
(2.0724 1.04412 0)
(2.01452 1.01703 0)
(1.95619 0.988161 0)
(1.89794 0.957482 0)
(1.83988 0.925402 -2.84991e-20)
(1.78217 0.892442 0)
(1.72436 0.85983 -2.82069e-20)
(1.66735 0.82809 0)
(1.6105 0.797799 -2.75924e-20)
(1.55494 0.768884 0)
(1.49868 0.742443 -2.68496e-20)
(1.44627 0.717228 0)
(1.3869 0.694875 -2.6085e-20)
(1.35004 0.680553 0)
(4.55829 0.895501 -4.63288e-19)
(3.56905 1.39917 0)
(2.99152 1.29206 -2.04935e-19)
(2.86628 1.22132 1.67943e-19)
(2.83641 1.20198 2.03286e-19)
(2.85413 1.22135 -7.18615e-22)
(2.86811 1.28068 9.89245e-20)
(2.88294 1.34328 8.41141e-20)
(2.89049 1.39925 0)
(2.89975 1.42778 0)
(2.89229 1.42444 4.49139e-20)
(2.87121 1.40282 4.77842e-20)
(2.83328 1.3731 -4.73623e-20)
(2.78581 1.33982 0)
(2.72871 1.30598 0)
(2.66462 1.27257 0)
(2.59642 1.23964 0)
(2.52581 1.20712 -3.18145e-20)
(2.45382 1.17536 0)
(2.38209 1.14487 0)
(2.3115 1.11591 0)
(2.24204 1.0884 0)
(2.17351 1.06202 0)
(2.10551 1.03602 0)
(2.03793 1.00969 0)
(1.97072 0.982589 0)
(1.90381 0.954155 0)
(1.83753 0.924258 0)
(1.77208 0.893029 0)
(1.70795 0.860614 0)
(1.64562 0.827597 0)
(1.58538 0.794564 0)
(1.52701 0.762164 0)
(1.4707 0.730813 0)
(1.416 0.701253 0)
(1.36333 0.673522 2.91673e-20)
(1.31129 0.648278 0)
(1.26283 0.624877 0)
(1.21004 0.604694 0)
(1.17579 0.590801 0)
(4.63575 0.607242 0)
(4.14793 1.05478 0)
(3.64343 1.12709 0)
(3.3976 1.16598 -1.46981e-19)
(3.30594 1.22478 0)
(3.26646 1.2883 1.96336e-21)
(3.24499 1.35457 -8.97849e-20)
(3.22038 1.41349 0)
(3.17876 1.45248 0)
(3.11385 1.45344 -5.93919e-20)
(3.03153 1.42678 -5.41352e-20)
(2.9448 1.38554 -4.70499e-20)
(2.85938 1.33809 4.51126e-22)
(2.77203 1.29115 -3.96033e-20)
(2.68545 1.24707 -3.63868e-20)
(2.59994 1.20638 0)
(2.51561 1.16828 -3.21978e-20)
(2.43194 1.13176 0)
(2.34892 1.0969 0)
(2.26769 1.06419 0)
(2.1881 1.03313 0)
(2.10974 1.00343 0)
(2.03224 0.974591 0)
(1.95539 0.946023 0)
(1.87931 0.917234 0)
(1.80392 0.887858 0)
(1.72955 0.857694 0)
(1.65684 0.826705 0)
(1.58624 0.795061 0)
(1.51854 0.762968 0)
(1.45421 0.730901 0)
(1.39339 0.699448 0)
(1.33591 0.669098 0)
(1.28174 0.639923 0)
(1.23046 0.612471 0)
(1.18199 0.587062 2.3461e-22)
(1.13535 0.564019 0)
(1.092 0.542896 0)
(1.04565 0.524676 0)
(1.01413 0.510837 0)
(4.73097 0.436461 0)
(4.37261 0.91614 0)
(3.97999 1.0979 0)
(3.73896 1.19419 1.27915e-19)
(3.61859 1.27448 0)
(3.54695 1.33832 9.32682e-20)
(3.4899 1.38949 7.94661e-20)
(3.42099 1.42289 0)
(3.3221 1.43463 0)
(3.20526 1.41436 5.80557e-20)
(3.08165 1.3689 8.23898e-22)
(2.95282 1.31594 4.74278e-20)
(2.8286 1.26254 4.26125e-20)
(2.71215 1.21156 3.88558e-20)
(2.60399 1.16502 3.60687e-20)
(2.50238 1.12221 0)
(2.40525 1.082 3.24997e-20)
(2.31111 1.04374 3.14141e-20)
(2.22031 1.0079 0)
(2.13268 0.974211 0)
(2.04701 0.941983 0)
(1.96274 0.910835 0)
(1.87934 0.880352 0)
(1.79681 0.850228 0)
(1.71528 0.820088 0)
(1.63497 0.789757 0)
(1.55658 0.759341 0)
(1.48081 0.72884 0)
(1.40822 0.698489 0)
(1.33955 0.668527 0)
(1.27519 0.639163 0)
(1.21531 0.610765 0)
(1.15978 0.583686 0)
(1.10863 0.557945 0)
(1.06152 0.533671 0)
(1.01782 0.511185 -2.91219e-20)
(0.976292 0.49063 0)
(0.937523 0.471519 0)
(0.896539 0.454623 0)
(0.867256 0.440488 0)
(4.79032 0.33276 -1.23028e-19)
(4.53456 0.785375 -1.09578e-19)
(4.22659 1.00373 -1.08675e-19)
(4.00491 1.14431 -1.01019e-19)
(3.87012 1.25143 -8.65127e-20)
(3.76229 1.3219 0)
(3.64246 1.36695 -7.22923e-20)
(3.51212 1.38425 -6.44464e-20)
(3.36624 1.36498 0)
(3.20005 1.32202 -5.6726e-20)
(3.03164 1.26707 8.60558e-22)
(2.8726 1.21046 -4.59154e-20)
(2.7271 1.15754 -4.20282e-20)
(2.59509 1.10896 -3.87978e-20)
(2.47538 1.06451 0)
(2.36455 1.02317 -3.47084e-20)
(2.26017 0.983988 -3.33856e-20)
(2.16152 0.946943 -3.22404e-20)
(2.06816 0.912166 0)
(1.97812 0.878744 -3.09364e-20)
(1.89023 0.846303 0)
(1.80374 0.814535 -3.0847e-20)
(1.71828 0.783335 0)
(1.63391 0.752603 -3.15524e-20)
(1.5508 0.722201 0)
(1.4694 0.692215 0)
(1.39038 0.662864 0)
(1.31448 0.634194 -3.43169e-20)
(1.24238 0.606376 0)
(1.17482 0.579591 -3.5538e-20)
(1.11212 0.554001 0)
(1.05452 0.529783 -3.58182e-20)
(1.00194 0.506994 0)
(0.954607 0.485453 -3.18753e-20)
(0.911856 0.465007 0)
(0.872553 0.445578 2.81364e-20)
(0.83537 0.427183 -2.64805e-20)
(0.800325 0.409539 0)
(0.76357 0.393374 -2.36441e-20)
(0.736003 0.378844 0)
(4.81663 0.268543 2.48759e-20)
(4.64644 0.672213 1.16089e-19)
(4.3928 0.909897 9.91491e-21)
(4.1857 1.08165 1.00952e-19)
(4.008 1.20473 1.70147e-19)
(3.84278 1.27323 0)
(3.67276 1.28724 7.64334e-20)
(3.48004 1.27155 6.92834e-20)
(3.27368 1.23382 0)
(3.07135 1.18368 1.23471e-21)
(2.88241 1.13026 5.11933e-20)
(2.71189 1.07957 4.6626e-20)
(2.55978 1.03368 4.31473e-20)
(2.42357 0.991951 4.02006e-20)
(2.30092 0.95291 0)
(2.18857 0.915844 3.62101e-20)
(2.08451 0.880601 3.47162e-20)
(1.98789 0.847053 3.36271e-20)
(1.89647 0.814369 0)
(1.80817 0.782099 3.2302e-20)
(1.72193 0.750174 0)
(1.63703 0.718537 3.23435e-20)
(1.55317 0.687408 0)
(1.47032 0.656887 3.32635e-20)
(1.38881 0.62708 0)
(1.30919 0.598245 0)
(1.23214 0.570658 0)
(1.15851 0.544529 3.6526e-20)
(1.08895 0.520018 0)
(1.02426 0.497199 3.77522e-20)
(0.964574 0.476223 0)
(0.910576 0.457097 3.47588e-20)
(0.862376 0.439411 0)
(0.819663 0.422433 3.04756e-20)
(0.781232 0.405634 0)
(0.745778 0.388861 1.29021e-22)
(0.712072 0.372137 2.53974e-20)
(0.679905 0.355457 0)
(0.646424 0.339646 2.28077e-20)
(0.620207 0.32485 0)
(4.79646 0.192724 2.18043e-20)
(4.62129 0.556287 -8.52713e-20)
(4.40487 0.801687 9.80871e-20)
(4.19941 0.977123 0)
(3.98012 1.08362 -8.9379e-20)
(3.742 1.12702 -7.62137e-20)
(3.50089 1.12772 -6.96044e-20)
(3.26676 1.10269 -6.48111e-20)
(3.04236 1.06417 0)
(2.8355 1.02059 9.48013e-22)
(2.64917 0.977988 -5.19545e-20)
(2.48408 0.938804 -4.8281e-20)
(2.3379 0.903074 0)
(2.2074 0.86989 -4.26062e-20)
(2.09045 0.838511 -4.03789e-20)
(1.98455 0.808555 -3.8549e-20)
(1.88751 0.778855 -3.67858e-20)
(1.79747 0.74923 -3.53669e-20)
(1.71163 0.719114 0)
(1.62854 0.688441 -3.44215e-20)
(1.54712 0.657427 0)
(1.46672 0.626334 -3.45485e-20)
(1.38709 0.595601 0)
(1.30831 0.565636 -3.56406e-20)
(1.23076 0.536813 0)
(1.1551 0.509573 0)
(1.08204 0.484261 0)
(1.01249 0.461099 0)
(0.946963 0.44039 0)
(0.886525 0.422356 0)
(0.832008 0.406926 0)
(0.783631 0.393526 0)
(0.740935 0.380996 0)
(0.703015 0.36817 0)
(0.668464 0.354394 0)
(0.636157 0.339604 -2.59193e-20)
(0.605108 0.324003 0)
(0.575137 0.307921 -2.33808e-20)
(0.544262 0.292344 0)
(0.519258 0.277595 -2.27214e-20)
(4.55448 0.0420496 8.63925e-20)
(4.25403 0.365663 1.13566e-19)
(4.0773 0.595835 0)
(3.87994 0.756027 0)
(3.62926 0.859965 0)
(3.37626 0.910823 7.89755e-20)
(3.13675 0.922615 7.30841e-20)
(2.91224 0.908076 6.85289e-20)
(2.70744 0.883484 0)
(2.52207 0.855047 5.95972e-20)
(2.35693 0.826661 5.5694e-20)
(2.21097 0.800588 5.19489e-20)
(2.08049 0.776343 0)
(1.96403 0.753611 4.58831e-20)
(1.8603 0.730741 4.31419e-20)
(1.76652 0.707942 4.11149e-20)
(1.68009 0.683938 3.91375e-20)
(1.59915 0.657908 0)
(1.52142 0.630206 0)
(1.44571 0.601049 3.67515e-20)
(1.37109 0.570915 0)
(1.29707 0.540371 3.69838e-20)
(1.22346 0.510122 0)
(1.15042 0.480856 3.82725e-20)
(1.07842 0.453171 0)
(1.0082 0.42762 0)
(0.940417 0.404718 0)
(0.876183 0.385005 0)
(0.816741 0.368978 0)
(0.76316 0.356688 0)
(0.715765 0.347344 0)
(0.674017 0.339444 0)
(0.636909 0.331281 0)
(0.603262 0.321606 0)
(0.571888 0.309939 0)
(0.541989 0.296416 0)
(0.512938 0.281506 0)
(0.48472 0.26586 2.25266e-20)
(0.456067 0.250627 0)
(0.432307 0.236343 2.19066e-20)
(2.9903 0.0319984 0)
(3.20258 0.245989 -2.10737e-21)
(3.24828 0.409565 -3.73643e-20)
(3.15256 0.545508 0)
(2.9856 0.647116 4.12259e-20)
(2.80877 0.704687 0)
(2.6369 0.730483 0)
(2.47171 0.731524 0)
(2.31733 0.721447 0)
(2.17268 0.707282 0)
(2.04129 0.692546 0)
(1.92136 0.677734 0)
(1.81295 0.663758 0)
(1.71634 0.650581 0)
(1.62947 0.635811 0)
(1.54911 0.61879 0)
(1.47442 0.599133 0)
(1.40348 0.576006 0)
(1.33465 0.550193 0)
(1.26706 0.522162 0)
(1.20002 0.492631 0)
(1.13315 0.462428 0)
(1.06634 0.432504 0)
(0.999817 0.403774 0)
(0.934104 0.377076 0)
(0.870114 0.35329 0)
(0.809079 0.333372 0)
(0.752446 0.318144 0)
(0.701409 0.307871 0)
(0.656339 0.301704 0)
(0.616664 0.297862 0)
(0.581245 0.294255 0)
(0.548906 0.289092 0)
(0.518631 0.28137 0)
(0.489641 0.270915 0)
(0.461529 0.2581 0)
(0.43404 0.243655 0)
(0.407357 0.228493 0)
(0.380754 0.213868 0)
(0.358342 0.200462 0)
(2.19918 0.157392 7.01428e-20)
(2.42709 0.25575 -4.98626e-20)
(2.49387 0.330942 9.34171e-20)
(2.43991 0.417457 0)
(2.35135 0.509133 -5.00476e-20)
(2.25036 0.5654 0)
(2.14851 0.592103 -4.43596e-20)
(2.04337 0.598501 0)
(1.94039 0.596772 0)
(1.83812 0.590511 0)
(1.74057 0.584495 0)
(1.64916 0.578814 0)
(1.56497 0.572423 0)
(1.48778 0.565491 0)
(1.416 0.556078 0)