/*--------------------------------*- C++ -*----------------------------------*\
| =========                 |                                                 |
| \\      /  F ield         | OpenFOAM: The Open Source CFD Toolbox           |
|  \\    /   O peration     | Version:  2.3.0                                 |
|   \\  /    A nd           | Web:      www.OpenFOAM.org                      |
|    \\/     M anipulation  |                                                 |
\*---------------------------------------------------------------------------*/
FoamFile
{
    version     2.0;
    format      ascii;
    class       volScalarField;
    location    "0.2";
    object      CH4;
}
// * * * * * * * * * * * * * * * * * * * * * * * * * * * * * * * * * * * * * //

dimensions      [0 0 0 0 0 0 0];

internalField   nonuniform List<scalar> 
5835
(
0.15609999
0.15609986
0.15609841
0.15608765
0.1561
0.1561
0.15609999
0.15609997
0.1561
0.1561
2.2586463e-51
1.0239537e-51
5.4684035e-52
1.3866709e-51
4.0172721e-51
1.55662e-49
6.2465182e-50
3.0858128e-50
8.6879878e-50
2.864842e-49
9.0155946e-48
3.3594066e-48
1.6306231e-48
5.0520122e-48
1.7760774e-47
4.8105687e-46
1.7176514e-46
8.5731824e-47
2.8665693e-46
1.0517545e-45
0.1561
0.1561
0.1561
0.1561
0.1561
0.1561
0.1561
0.1561
0.1561
0.1561
0.1561
0.1561
0.1561
0.1561
0.1561
0.1561
0.1561
0.1561
0.1561
0.1561
0.1561
0.1561
0.1561
0.1561
0.1561
0.1561
0.1561
0.1561
0.1561
0.1561
0.1561
0.1561
0.1561
0.1561
0.1561
0.1561
0.1561
0.1561
0.1561
0.1561
0.1561
0.1561
0.1561
0.1561
0.1561
0.1561
0.1561
0.1561
0.1561
0.1561
0.1561
0.1561
0.1561
0.1561
0.1561
0.1561
0.1561
0.1561
0.1561
0.1561
0.1561
0.1561
0.1561
0.1561
0.1561
0.1561
0.1561
0.1561
0.1561
0.1561
0.1561
0.1561
0.1561
0.1561
0.1561
0.1561
0.1561
0.1561
0.1561
0.1561
0.1561
0.1561
0.1561
0.1561
0.1561
0.1561
0.1561
0.1561
0.1561
0.1561
2.4449286e-44
8.561714e-45
4.560336e-45
1.6322453e-44
6.0998742e-44
1.2037759e-42
4.2306479e-43
2.4689021e-43
9.3297645e-43
3.5106716e-42
5.813339e-41
2.0780136e-41
1.3532793e-41
5.3423471e-41
2.0146762e-40
2.7708945e-39
1.0171739e-39
7.488079e-40
3.0656072e-39
1.1547452e-38
1.3076979e-37
4.9715311e-38
4.1712318e-38
1.7601222e-37
6.6176721e-37
6.1197947e-36
2.429351e-36
2.3348346e-36
1.010524e-35
3.7925097e-35
2.8408115e-34
1.1880456e-34
1.311585e-34
5.8004425e-34
2.1736225e-33
1.3073108e-32
5.8194826e-33
7.3877574e-33
3.3290428e-32
1.2462032e-31
5.9565609e-31
2.8570088e-31
4.1703394e-31
1.9110611e-30
7.1506553e-30
2.6817413e-29
1.4063965e-29
2.3583426e-29
1.0977346e-28
4.1087164e-28
1.1896593e-27
6.9420483e-28
1.335386e-27
6.3121075e-27
2.3655249e-26
5.1794565e-26
3.4322138e-26
7.5615544e-26
3.6334209e-25
1.3651742e-24
2.2000295e-24
1.6937899e-24
4.2691651e-24
2.0916647e-23
7.8974744e-23
9.0342486e-23
8.2806889e-23
2.3885049e-22
1.2007663e-21
4.5777137e-21
3.5352874e-21
3.9528484e-21
1.3086956e-20
6.8311259e-20
2.6568768e-19
1.2882301e-19
1.7961606e-19
6.8697099e-19
3.7974048e-18
1.5356572e-17
4.2092426e-18
7.4459853e-18
3.3170735e-17
1.980031e-16
8.8724321e-16
1.1571801e-16
2.6246752e-16
1.3572889e-15
8.8826393e-15
7.3323395e-14
2.3666459e-15
6.9680435e-15
4.5022167e-14
1.9282718e-13
1.118356e-11
2.51048e-14
8.7405123e-14
3.0890068e-12
3.11979e-10
2.0541701e-08
2.4012369e-13
2.9841775e-11
3.7912353e-09
4.6832615e-07
3.847188e-05
4.6696852e-14
4.6673455e-14
4.6665e-14
4.6740073e-14
4.5772548e-14
4.5736684e-14
4.565548e-14
4.5519322e-14
4.7010897e-14
4.705014e-14
4.7111124e-14
4.7110675e-14
4.789452e-14
4.7927863e-14
4.8007286e-14
4.8140291e-14
4.8074209e-14
4.8111562e-14
4.8196849e-14
4.833657e-14
4.7373899e-14
4.7398017e-14
4.7455639e-14
4.7562643e-14
4.6794662e-14
4.6740687e-14
4.6622024e-14
4.6444436e-14
4.81243e-14
4.809862e-14
4.8038684e-14
4.7949229e-14
4.9763639e-14
4.979871e-14
4.9877881e-14
5.0021104e-14
5.02167e-14
5.0193414e-14
5.0144417e-14
5.0076238e-14
5.0859416e-14
5.0799142e-14
5.066398e-14
5.0455391e-14
5.252011e-14
5.246671e-14
5.2344905e-14
5.2152857e-14
5.4276587e-14
5.4247078e-14
5.4179287e-14
5.4070067e-14
5.5336173e-14
5.5317118e-14
5.5276867e-14
5.5219275e-14
5.5874355e-14
5.5827137e-14
5.572341e-14
5.5566524e-14
5.6950548e-14
5.6880518e-14
5.6724005e-14
5.6483167e-14
5.871533e-14
5.8642713e-14
5.8479033e-14
5.8225711e-14
6.0739431e-14
6.0677918e-14
6.0538508e-14
6.0322082e-14
6.2564828e-14
6.2516433e-14
6.2406704e-14
6.2236466e-14
6.401551e-14
6.3974916e-14
6.3884153e-14
6.3744836e-14
6.5122002e-14
6.5076186e-14
6.4975419e-14
6.4821136e-14
6.6100773e-14
6.6041211e-14
6.5912145e-14
6.571973e-14
6.7266923e-14
6.7183744e-14
6.7002859e-14
6.6731005e-14
6.8824347e-14
6.8725322e-14
6.8509041e-14
6.8182111e-14
7.0707993e-14
7.06024e-14
7.0372915e-14
7.0028802e-14
7.2964202e-14
7.282081e-14
7.2544432e-14
7.2200704e-14
7.6487709e-14
7.5598045e-14
7.443988e-14
7.4191921e-14
5.8952944e-14
1.0079682e-13
9.5001132e-14
9.161435e-14
1.2439398e-12
1.0697876e-12
7.629142e-13
4.6237173e-13
3.5503623e-11
3.0243052e-11
2.1031803e-11
1.220205e-11
9.8412963e-10
8.3025576e-10
5.6139999e-10
3.0954785e-10
2.6605013e-08
2.2230455e-08
1.4567829e-08
7.5295008e-09
6.9865955e-07
5.7856085e-07
3.6623347e-07
1.7370355e-07
1.7762548e-05
1.4597242e-05
8.9002402e-06
3.7406614e-06
0.00043708187
0.00035733539
0.00020960479
7.3312301e-05
0.002033925
0.0019072145
0.0016346018
0.0012418179
0.0037707129
0.0036297443
0.0033222061
0.0028642454
0.005538696
0.0053880197
0.005058143
0.0045632262
0.0073275357
0.0071676952
0.0068173073
0.006290506
0.0091519407
0.0089824703
0.0086107993
0.0080517781
0.011015295
0.010835317
0.010440554
0.0098468802
0.012919315
0.012727766
0.012307685
0.011676238
0.014865552
0.014661261
0.014213421
0.013540761
0.016855018
0.016636654
0.016158263
0.015440396
0.018898087
0.01866405
0.018151751
0.017383879
0.020995982
0.020744415
0.020194306
0.019370862
0.023150141
0.022878906
0.022286493
0.021401084
0.025363635
0.025070327
0.024430556
0.023476027
0.027652203
0.027333988
0.026640918
0.025608907
0.030006982
0.029660774
0.028907971
0.027789521
0.032444722
0.03206678
0.031246488
0.030030895
0.034969851
0.034555794
0.033658987
0.032333958
0.037586256
0.037130909
0.036147027
0.034698399
0.040297643
0.039794856
0.038711482
0.037122914
0.043107638
0.042550063
0.041352561
0.039605243
0.046020403
0.045399204
0.044070286
0.042142652
0.049059946
0.048363866
0.046881947
0.044747904
0.052209973
0.051425731
0.049766238
0.047397707
0.055496673
0.054607024
0.052739325
0.050103262
0.058905675
0.057888978
0.05577725
0.052838636
0.062490273
0.061313651
0.058907851
0.055622482
0.066350001
0.06495163
0.062166846
0.058469205
0.070801831
0.069029308
0.065670836
0.061427727
0.076670023
0.074143155
0.069717995
0.064610011
0.08489393
0.081160988
0.074819935
0.068189612
0.093562869
0.089242599
0.081106388
0.072305872
0.10033043
0.096068254
0.087464246
0.076872637
0.10576444
0.10159051
0.093029095
0.081595675
0.11043953
0.10628697
0.097796557
0.086088789
0.11461023
0.1104302
0.10195456
0.090160518
0.11842757
0.11419254
0.10568724
0.093858124
0.12191247
0.11760898
0.10904779
0.09719511
0.12510459
0.12072844
0.11209847
0.10021646
0.12805991
0.12361264
0.11490922
0.10298358
0.13076623
0.12625483
0.11748175
0.10550113
0.1332672
0.12870124
0.11986674
0.10782529
0.13555074
0.1309428
0.122059
0.10995748
0.13765598
0.13302022
0.12410029
0.11194212
0.13959321
0.1349455
0.12600203
0.11378905
0.14135329
0.1367117
0.12775882
0.115494
0.14296846
0.13835297
0.12940622
0.11709208
0.14444735
0.13987912
0.13095475
0.11859237
0.14579809
0.14129888
0.13241386
0.12000285
0.1470142
0.14260505
0.13377808
0.12132049
0.14812032
0.14382233
0.13507398
0.12257252
0.14912049
0.14495305
0.13630431
0.12376287
0.15002542
0.14600671
0.13747959
0.12490404
0.15084182
0.14698811
0.13860449
0.12600153
0.15157602
0.14790165
0.13968269
0.12705853
0.15223397
0.14875159
0.14071781
0.12807817
0.15281736
0.1495369
0.14170783
0.12905995
0.15333611
0.15026725
0.14266328
0.13001394
0.15379484
0.15094576
0.14358653
0.1309404
0.15419785
0.15157537
0.14448088
0.13184155
0.15454918
0.15215872
0.14535017
0.13272073
0.1548527
0.15269799
0.14619836
0.13358149
0.15511408
0.15319836
0.14703458
0.13442994
0.15533442
0.15365653
0.1478554
0.13525975
0.15551744
0.15407318
0.14866441
0.13607732
0.155667
0.15444894
0.14946531
0.13689475
0.15578704
0.15478453
0.15026094
0.1377313
0.15588091
0.15507888
0.15104709
0.13860205
0.15595222
0.15533118
0.1518166
0.13952698
0.15600518
0.15554426
0.15256947
0.14055061
0.15604264
0.15571767
0.15329339
0.14172349
0.15606779
0.15585334
0.15397382
0.14309125
0.15608364
0.155954
0.15458946
0.14467772
0.15609281
0.15602386
0.15512416
0.14652715
0.15609754
0.15606805
0.15556775
0.14877058
0.15609948
0.15609151
0.15590131
0.15156988
0.117377
0.11981955
0.12232437
0.12364371
0.12420194
0.12440595
0.12445595
0.1244021
0.12423688
0.12397743
0.12364767
0.12326233
0.1228172
0.12231345
0.12175483
0.12115678
0.12052041
0.1198416
0.11911798
0.11834942
0.11753914
0.11667908
0.11576799
0.11480503
0.11378832
0.11271197
0.11156256
0.11033701
0.10900996
0.10758373
0.10605397
0.10441405
0.1026299
0.10070513
0.098631919
0.096364492
0.09390209
0.091201472
0.08829
0.08516626
0.081853223
0.078390252
0.074760085
0.071084074
0.067560122
0.0642879
0.061280518
0.058482342
0.05581299
0.053209746
0.050643464
0.048105991
0.045581451
0.0430949
0.040636842
0.038230622
0.035865758
0.033546247
0.031275631
0.029056455
0.026890161
0.024776823
0.022704608
0.020684061
0.018702822
0.016759951
0.014856303
0.012992797
0.011161318
0.0093624562
0.0075955702
0.0058609233
0.0041613471
0.0024981899
0.00095010668
4.9321294e-05
2.4791605e-06
1.1633124e-07
5.1263186e-09
2.1449394e-10
8.6013796e-12
3.316426e-13
8.4182911e-14
7.3715566e-14
7.1939557e-14
6.974475e-14
6.7911364e-14
6.6507496e-14
6.5563124e-14
6.4689747e-14
6.3628072e-14
6.2093356e-14
6.0139655e-14
5.8012416e-14
5.6280792e-14
5.5436634e-14
5.5174856e-14
5.3971763e-14
5.1986452e-14
5.0279902e-14
5.0027236e-14
5.0176692e-14
4.7878459e-14
4.6304066e-14
4.7685002e-14
4.8465687e-14
4.8236221e-14
4.6948978e-14
4.5391075e-14
4.6919615e-14
1.9853427e-13
9.488595e-14
7.5079266e-14
5.318935e-14
4.9736759e-14
5.3907543e-14
4.3172021e-14
4.4792154e-14
5.4644072e-14
4.9857387e-14
4.7432322e-14
4.9205501e-14
5.2476584e-14
5.4722141e-14
5.3717073e-14
5.3110347e-14
5.4521666e-14
5.7112288e-14
5.9813394e-14
6.1940222e-14
6.2604968e-14
6.3647485e-14
6.3473782e-14
6.4013386e-14
6.5299271e-14
6.7399364e-14
7.0185082e-14
7.3440039e-14
7.9692661e-14
6.9259357e-14
1.2110192e-12
2.2641095e-11
3.9425554e-10
6.2840593e-09
8.9834172e-08
1.1265667e-06
1.1722635e-05
8.9345406e-05
0.00054040339
0.0016371052
0.0028621787
0.0041612519
0.005544593
0.0069392689
0.0083397804
0.0097382137
0.01112996
0.012513413
0.013892997
0.015255985
0.016606634
0.017940461
0.019252522
0.020537593
0.021790413
0.023007348
0.024192121
0.02533402
0.026440564
0.027503531
0.028529267
0.029512136
0.030440368
0.031293612
0.032037051
0.032635707
0.033089411
0.033426991
0.033673494
0.033842418
0.033931462
0.033930961
0.033840412
0.033665195
0.033417063
0.033098621
0.032713344
0.032256752
0.031723342
0.031116161
0.030423116
0.029636033
0.028750243
0.027775443
0.026692858
0.025495635
0.024185884
0.022759795
0.021180181
0.019475629
0.01764878
0.015668714
0.013510807
0.011155861
0.0086466104
0.0060523512
0.0033115306
0.00083045653
0.00048160927
0.00031874204
0.00017612822
6.5219045e-05
9.3359684e-06
4.2649066e-06
1.5313114e-06
3.2517038e-07
1.8160097e-08
4.4136492e-09
4.9240665e-10
7.3428983e-11
7.3147766e-14
3.2040378e-14
5.0484267e-14
4.8644051e-14
5.0176352e-14
5.0986341e-14
4.4617881e-14
4.5947579e-14
5.29194e-14
4.9793685e-14
4.8264666e-14
4.9973373e-14
5.2799403e-14
5.49196e-14
5.4155032e-14
5.4036037e-14
5.5573871e-14
5.8030371e-14
6.0491593e-14
6.2390411e-14
6.3222593e-14
6.4103239e-14
6.4275967e-14
6.5086803e-14
6.6582365e-14
6.8813252e-14
7.1783131e-14
7.5295814e-14
8.581347e-14
2.1100605e-13
4.396326e-12
8.7336022e-11
1.6232268e-09
2.7828124e-08
4.3221163e-07
5.9852246e-06
7.0756154e-05
0.00057875437
0.001710092
0.0030914325
0.0045314275
0.0060060978
0.0075157083
0.0090357983
0.010567411
0.012104831
0.013643635
0.015181546
0.01672492
0.018262208
0.019798644
0.021330033
0.022851177
0.024356225
0.025839232
0.027295516
0.028729017
0.030126126
0.031494451
0.032822997
0.034120224
0.035381573
0.036595976
0.037741493
0.038776104
0.039656863
0.040383977
0.04099124
0.04150797
0.041950861
0.042321704
0.042607889
0.04280768
0.042927466
0.042976401
0.042961106
0.042883411
0.042742237
0.042530556
0.042247727
0.041885881
0.041436146
0.040892511
0.040259238
0.039521612
0.03867056
0.037699507
0.036608332
0.035396059
0.03406728
0.032621631
0.031033862
0.029282345
0.027348356
0.025227536
0.022899959
0.020320726
0.017491086
0.014470836
0.011096408
0.0073563698
0.0033671927
0.00059605614
0.00036496435
0.00017530927
5.0171085e-05
3.6140264e-06
1.0649081e-06
1.2602753e-07
1.6573375e-08
5.2467816e-14
4.1809279e-14
4.5865635e-14
4.8114775e-14
4.9516367e-14
4.9322734e-14
4.5304576e-14
4.6949604e-14
5.1730333e-14
4.9810644e-14
4.8988822e-14
5.0697528e-14
5.3202903e-14
5.4969327e-14
5.4569795e-14
5.4827455e-14
5.6450783e-14
5.8794033e-14
6.1058684e-14
6.280988e-14
6.3744355e-14
6.4557496e-14
6.50111e-14
6.6044404e-14
6.7696301e-14
7.0028063e-14
7.3031133e-14
7.4925437e-14
9.4942704e-14
6.6539897e-13
1.4696385e-11
3.0910033e-10
6.1269872e-09
1.1299712e-07
1.9068575e-06
2.9233683e-05
0.00041523914
0.0015875924
0.0030187319
0.0045508026
0.006117713
0.0077095836
0.0093256036
0.010956714
0.012606948
0.014272123
0.015948494
0.017634352
0.019337673
0.021047051
0.022769043
0.024499957
0.026234765
0.027967496
0.029691778
0.031401965
0.033102562
0.034776547
0.036431328
0.038052263
0.039649337
0.041218857
0.042751382
0.044225459
0.045594543
0.046808106
0.047865569
0.048805356
0.049660986
0.050454484
0.051195623
0.051868272
0.052466025
0.052992853
0.053450611
0.053850009
0.054191149
0.054479696
0.054708136
0.054871874
0.054967985
0.05498481
0.054912121
0.054747069
0.054480028
0.054102012
0.053609969
0.053004669
0.052283959
0.051441569
0.05047568
0.049367699
0.048098958
0.046654598
0.045025766
0.043195259
0.041121588
0.03877979
0.036154439
0.033220807
0.029933451
0.026202967
0.021957901
0.017020994
0.011161044
0.0045175114
0.00043124736
0.00016444598
2.235339e-05
2.9622133e-06
4.8533373e-14
4.4482444e-14
4.5926592e-14
4.8322087e-14
4.9013707e-14
4.8386913e-14
4.5772331e-14
4.7507379e-14
5.0930624e-14
4.9876969e-14
4.9583345e-14
5.1302689e-14
5.3561543e-14
5.5032486e-14
5.494433e-14
5.5486445e-14
5.7167891e-14
5.9414795e-14
6.1530438e-14
6.3174505e-14
6.417152e-14
6.4982953e-14
6.5662921e-14
6.687239e-14
6.8631032e-14
7.0968806e-14
7.3433313e-14
7.4648995e-14
1.4944109e-13
1.9003488e-12
4.4079734e-11
9.7958042e-10
2.0709396e-08
4.1198562e-07
7.5644187e-06
0.0001232603
0.0011977536
0.0026694869
0.0042465428
0.0058756477
0.0075341603
0.0092181151
0.01092713
0.012657594
0.014415392
0.016197661
0.018001672
0.019826643
0.02168217
0.023556952
0.025459278
0.027386404
0.029334077
0.031296895
0.033268681
0.035243373
0.037226628
0.03919797
0.041164541
0.043107184
0.045036878
0.046950908
0.04884365
0.050699555
0.052475915
0.054121493
0.055636537
0.05706243
0.058433922
0.059781964
0.061135632
0.062476054
0.063782104
0.065041947
0.066234954
0.067375919
0.06846163
0.069511957
0.070521577
0.071478682
0.072387191
0.073228348
0.073982416
0.07463167
0.075173206
0.075595259
0.075898778
0.076083093
0.076142668
0.07606797
0.075853884
0.075486328
0.074943398
0.07420602
0.07325688
0.072072502
0.070603535
0.068812643
0.066680713
0.064195668
0.061332699
0.058020435
0.054148789
0.049528636
0.043968929
0.037026448
0.02799233
0.01581307
0.0029761625
0.00048914504
4.7289675e-14
4.5177636e-14
4.665781e-14
4.8322622e-14
4.8644256e-14
4.7874742e-14
4.6134158e-14
4.7791668e-14
5.0407619e-14
4.9967645e-14
5.0053538e-14
5.176959e-14
5.3840578e-14
5.5116158e-14
5.5266626e-14
5.6018176e-14
5.7737412e-14
5.9904948e-14
6.1909697e-14
6.3476001e-14
6.4514532e-14
6.5359756e-14
6.6218016e-14
6.756104e-14
6.9378577e-14
7.1596908e-14
7.3187842e-14
7.8594746e-14
2.0097521e-13
4.8133942e-12
1.1654002e-10
2.7167241e-09
6.0873149e-08
1.3152313e-06
2.7774028e-05
0.0005938014
0.0020325071
0.0036458863
0.0053087492
0.007008899
0.0087394277
0.010499127
0.012288218
0.014105344
0.015957845
0.017844083
0.019762495
0.021713344
0.023707892
0.025735196
0.027805624
0.029917885
0.03206919
0.03425554
0.036471907
0.038712864
0.04098634
0.043269248
0.045569174
0.047862339
0.050160919
0.052464683
0.054777949
0.057106406
0.059439848
0.061759257
0.064077974
0.066427826
0.068814992
0.0712626
0.073825091
0.076456692
0.079065604
0.081565917
0.083870809
0.085992976
0.087925361
0.089709096
0.091352234
0.092851084
0.09423387
0.095502654
0.096658921
0.097698453
0.098641272
0.099489483
0.10025459
0.10094137
0.10155008
0.10207954
0.10252911
0.10289966
0.10318379
0.1033775
0.10347834
0.10348205
0.103373
0.10313049
0.10274063
0.10218436
0.10142999
0.10041382
0.099049243
0.097215053
0.094773658
0.091413732
0.086505067
0.078810905
0.065636859
0.042769467
1.824522e-12
5.8393271e-12
5.1280809e-11
2.6361217e-10
5.2052011e-08
1.4313122e-07
1.5402502e-07
4.5135901e-07
3.9821542e-06
1.3174216e-05
2.8644141e-05
5.0256474e-05
9.7949665e-05
0.00042974724
0.00087075006
0.0017430389
0.0037864096
0.0059740665
0.0080289861
0.0099270858
0.011680469
0.01331428
0.014826151
0.01616849
0.017551203
0.018919587
0.020191521
0.021357798
0.022437124
0.023413954
0.024292741
0.025081404
0.025794851
0.026426387
0.026980982
0.02746448
0.027871874
0.028205538
0.028454578
0.028613626
0.028682696
0.028669534
0.028578032
0.02839596
0.028100759
0.027666691
0.027095117
0.026416529
0.025660124
0.024844561
0.023981481
0.023077707
0.022128903
0.021141518
0.020108567
0.019039228
0.017929825
0.016783256
0.015604317
0.014397597
0.013167784
0.011919701
0.010649755
0.0093742007
0.0080907685
0.0067975041
0.0054989148
0.0042054954
0.0029342913
0.0018651731
0.00094436514
0.00021454396
3.6803243e-05
4.9987061e-06
5.0760867e-07
4.238122e-08
3.0791385e-09
1.9952431e-10
1.1784725e-11
6.4617966e-13
8.1033317e-14
7.7429975e-14
7.2381869e-14
6.9083329e-14
6.6348943e-14
6.4349168e-14
6.3236776e-14
6.290385e-14
6.3359428e-14
6.2182988e-14
6.1673143e-14
5.9222056e-14
5.6432267e-14
5.3696716e-14
5.241935e-14
5.3397794e-14
5.3595687e-14
5.2614315e-14
4.8407681e-14
4.6705479e-14
4.9911723e-14
5.6286119e-14
4.646312e-14
4.3116967e-14
5.4050791e-14
5.0992554e-14
5.9614189e-14
2.1480513e-13
5.0135625e-13
1.0496003e-12
6.6687284e-33
4.8957304e-31
5.4754963e-30
3.8125383e-29
2.1857721e-28
1.093426e-27
4.9106284e-27
2.014885e-26
7.6358917e-26
2.6882623e-25
8.8592827e-25
2.7479273e-24
8.0422934e-24
2.2257679e-23
5.8403966e-23
1.4572145e-22
3.4591062e-22
7.8148733e-22
1.6816363e-21
3.4507683e-21
6.7563618e-21
1.2630407e-20
2.2534325e-20
3.8370956e-20
6.2353091e-20
9.6603014e-20
1.4277749e-19
2.0159744e-19
2.7285075e-19
3.5709147e-19
4.613207e-19
6.1152095e-19
8.7631235e-19
1.3945322e-18
2.4382774e-18
4.9271094e-18
1.6634643e-17
1.7071809e-16
8.0179444e-15
2.7092394e-13
4.564497e-32
3.0152901e-30
3.411315e-29
2.3740209e-28
1.3577784e-27
6.7762053e-27
3.0368507e-26
1.2437812e-25
4.706186e-25
1.6546166e-24
5.4466812e-24
1.6878295e-23
4.9359249e-23
1.3652197e-22
3.5806499e-22
8.9309104e-22
2.1195328e-21
4.787947e-21
1.0302775e-20
2.1143267e-20
4.1403798e-20
7.741938e-20
1.3817035e-19
2.3536623e-19
3.8265443e-19
5.9319177e-19
8.7743528e-19
1.2404531e-18
1.6829891e-18
2.2143788e-18
2.8976769e-18
3.9492665e-18
5.9501586e-18
1.0063223e-17
1.8209521e-17
3.3551629e-17
8.1762721e-17
6.8523033e-16
2.9635602e-14
7.9203592e-13
1.9923383e-31
1.2442873e-29
1.4227876e-28
9.8932528e-28
5.6353465e-27
2.8010545e-26
1.2508286e-25
5.1069808e-25
1.9272066e-24
6.7604431e-24
2.2212223e-23
6.872575e-23
2.0073626e-22
5.5468841e-22
1.4538152e-21
3.624466e-21
8.5996409e-21
1.9425129e-20
4.1804044e-20
8.5812993e-20
1.6811242e-19
3.1451734e-19
5.6169148e-19
9.5756189e-19
1.5582082e-18
2.41817e-18
3.5820183e-18
5.0749872e-18
6.9143217e-18
9.1828032e-18
1.2290033e-17
1.7604257e-17
2.9017319e-17
5.5455582e-17
1.1537831e-16
2.4414502e-16
6.2311455e-16
4.8089949e-15
2.2448116e-13
6.5655887e-12
7.2642716e-31
4.4489178e-29
5.1511603e-28
3.5771611e-27
2.0259176e-26
1.0011471e-25
4.447477e-25
1.8076284e-24
6.7948198e-24
2.3756822e-23
7.7840451e-23
2.4029742e-22
7.005997e-22
1.9332499e-21
5.0618132e-21
1.261088e-20
2.9910212e-20
6.7555682e-20
1.4540663e-19
2.985966e-19
5.8531197e-19
1.0958972e-18
1.9590125e-18
3.3434527e-18
5.4478379e-18
8.4676946e-18
1.2568346e-17
1.786042e-17
2.4470911e-17
3.291077e-17
4.5391804e-17
6.942954e-17
1.2829414e-16
2.8686961e-16
7.329368e-16
2.1024545e-15
8.4187054e-15
9.0896865e-14
4.6435609e-12
1.2898989e-10
2.4327325e-30
1.4816647e-28
1.7354008e-27
1.2025109e-26
6.7604344e-26
3.3157932e-25
1.4630434e-24
5.9110943e-24
2.2105572e-23
7.6950057e-23
2.5120464e-22
7.7312985e-22
2.2485976e-21
6.1930368e-21
1.6192328e-20
4.0302112e-20
9.5533545e-20
2.1573033e-19
4.6439897e-19
9.5407366e-19
1.8715257e-18
3.5075225e-18
6.2775922e-18
1.0729389e-17
1.7511796e-17
2.7272756e-17
4.0580365e-17
5.7874739e-17
7.9805461e-17
1.0883177e-16
1.5497247e-16
2.5323333e-16
5.2082909e-16
1.3464476e-15
4.2347319e-15
1.7313079e-14
1.2607315e-13
2.6594134e-12
1.8544831e-10
6.5149006e-09
7.7684218e-30
4.7343786e-28
5.598201e-27
3.8665767e-26
2.1545033e-25
1.0470724e-24
4.5815774e-24
1.8374399e-23
6.8272749e-23
2.3634823e-22
7.6795962e-22
2.3543537e-21
6.825839e-21
1.8752717e-20
4.893868e-20
1.2164515e-19
2.8811663e-19
6.5038625e-19
1.4001804e-18
2.8779008e-18
5.6499599e-18
1.0601e-17
1.9000542e-17
3.2530917e-17
5.3201187e-17
8.3048553e-17
1.239229e-16
1.7742968e-16
2.4625935e-16
3.402298e-16
4.9774646e-16
8.5384187e-16
1.8726301e-15
5.193313e-15
1.7770335e-14
8.1731542e-14
6.7903385e-13
1.5611631e-11
1.0158555e-09
2.6395493e-08
2.4102195e-29
1.472553e-27
1.7537777e-26
1.2059675e-25
6.6507305e-25
3.1976041e-24
1.3853313e-23
5.5068464e-23
2.0302645e-22
6.9811587e-22
2.2553422e-21
6.8809085e-21
1.9870388e-20
5.441767e-20
1.4166904e-19
3.5152632e-19
8.3165238e-19
1.8763037e-18
4.0392508e-18
8.3058546e-18
1.6320543e-17
3.0661177e-17
5.5044937e-17
9.4428006e-17
1.5478009e-16
2.4224943e-16
3.6259793e-16
5.212559e-16
7.2793832e-16
1.0170749e-15
1.5189963e-15
2.6871838e-15
6.0641928e-15
1.7064913e-14
5.8459648e-14
2.679947e-13
2.2386388e-12
5.3525834e-11
2.9301517e-09
4.59048e-08
7.336397e-29
4.4919401e-27
5.3763703e-26
3.6765008e-25
2.0040905e-24
9.5180619e-24
4.0766952e-23
1.6038828e-22
5.8592164e-22
1.9986338e-21
6.4123556e-21
1.944941e-20
5.5892805e-20
1.5247024e-19
3.9572488e-19
9.7970734e-19
2.314311e-18
5.2169931e-18
1.1228624e-17
2.3097552e-17
4.542533e-17
8.5455296e-17
1.5368757e-16
2.642158e-16
4.3416891e-16
6.8145519e-16
1.0233116e-15
1.4769323e-15
2.0742078e-15
2.9262758e-15
4.4476711e-15
8.0827347e-15
1.8766167e-14
5.3995638e-14
1.8808563e-13
8.8400372e-13
8.030163e-12
2.3955509e-10
1.1664619e-08
1.3557252e-07
2.1872741e-28
1.3444861e-26
1.6150897e-25
1.0972656e-24
5.9055646e-24
2.766837e-23
1.1699171e-22
4.5490144e-22
1.6443862e-21
5.5571345e-21
1.7685184e-20
5.3269116e-20
1.5219037e-19
4.131805e-19
1.0683276e-18
2.6373324e-18
6.2175849e-18
1.3999034e-17
3.0116244e-17
6.1962322e-17
1.2195872e-16
2.2974535e-16
4.139555e-16
7.1329363e-16
1.1752287e-15
1.8500754e-15
2.7872339e-15
4.0375187e-15
5.6962987e-15
8.09452e-15
1.247579e-14
2.3288505e-14
5.6439438e-14
1.7290012e-13
6.6406128e-13
3.7157898e-12
4.6196466e-11
2.0646935e-09
8.3149621e-08
8.6299822e-07
6.4939515e-28
3.9940574e-26
4.800962e-25
3.2365264e-24
1.7182466e-23
7.9325406e-23
3.3071921e-22
1.2692939e-21
4.5342753e-21
1.5162106e-20
4.7804258e-20
1.4282891e-19
4.0526357e-19
1.0939768e-18
2.8156193e-18
6.9260915e-18
1.6286394e-17
3.6608194e-17
7.8691043e-17
1.6189476e-16
3.1886424e-16
6.014569e-16
1.0857292e-15
1.8752366e-15
3.0981134e-15
4.8917614e-15
7.3925197e-15
1.0740303e-14
1.5190188e-14
2.162153e-14
3.338434e-14
6.2770041e-14
1.5553929e-13
4.9909901e-13
2.0838556e-12
1.362956e-11
2.1917658e-10
1.1782625e-08
3.0908196e-07
2.4878119e-06
1.9213951e-27
1.1789749e-25
1.4144813e-24
9.4519511e-24
4.9461167e-23
2.2480535e-22
9.2316405e-22
3.4932771e-21
1.23176e-20
4.0706374e-20
1.2699958e-19
3.7595528e-19
1.0582677e-18
2.8375839e-18
7.2631252e-18
1.7788782e-17
4.1693341e-17
9.3508498e-17
2.0074533e-16
4.1284165e-16
8.1346345e-16
1.5361536e-15
2.7779749e-15
4.8092097e-15
7.9671201e-15
1.2616675e-14
1.9120106e-14
2.7834094e-14
3.935009e-14
5.5655448e-14
8.4379378e-14
1.5359469e-13
3.6759976e-13
1.1536545e-12
4.8112261e-12
3.303629e-11
6.0516711e-10
2.7823609e-08
3.9030702e-07
1.5902436e-06
5.6654833e-27
3.4580909e-25
4.1311035e-24
2.7335213e-23
1.409124e-22
6.300983e-22
2.5465088e-21
9.4916387e-21
3.3001561e-20
1.0766697e-19
3.3202297e-19
9.7274189e-19
2.7134232e-18
7.2193648e-18
1.8359499e-17
4.473104e-17
1.044178e-16
2.3350624e-16
5.0037661e-16
1.0281813e-15
2.0260739e-15
3.8294931e-15
6.9364955e-15
1.2035198e-14
1.9991154e-14
3.174767e-14
4.8233542e-14
7.0295752e-14
9.9100824e-14
1.3836206e-13
2.0254577e-13
3.4461637e-13
7.5701813e-13
2.2094249e-12
8.8824817e-12
6.3351176e-11
1.3517968e-09
4.3763539e-08
3.0686935e-07
2.8362374e-07
1.6647147e-26
1.0077856e-24
1.1959213e-23
7.8278101e-23
3.9731427e-22
1.7469447e-21
6.9438026e-21
2.5474255e-20
8.72601e-20
2.8077456e-19
8.5495217e-19
2.4762874e-18
6.8377047e-18
1.8032531e-17
4.5515742e-17
1.1020976e-16
2.5600728e-16
5.7040051e-16
1.219249e-15
2.501823e-15
4.928068e-15
9.3196687e-15
1.6904184e-14
2.939004e-14
4.89431e-14
7.7938364e-14
1.1868771e-13
1.7310185e-13
2.431065e-13
3.3424e-13
4.6944375e-13
7.3415646e-13
1.434837e-12
3.7825889e-12
1.4654819e-11
1.1384811e-10
3.0248681e-09
6.6776549e-08
3.2400553e-07
6.1275195e-07
4.8748167e-26
2.9178067e-24
3.4310778e-23
2.2190157e-22
1.1084288e-21
4.7901242e-21
1.8716266e-20
6.7539916e-20
2.2776077e-19
7.2219408e-19
2.1693777e-18
6.205697e-18
1.6944739e-17
4.4247013e-17
1.1073245e-16
2.6619686e-16
6.1473542e-16
1.3634568e-15
2.904901e-15
5.9483367e-15
1.1705934e-14
2.213967e-14
4.0198526e-14
7.0016957e-14
1.1687856e-13
1.8661549e-13
2.848507e-13
4.1579133e-13
5.819802e-13
7.8919462e-13
1.0677776e-12
1.5419276e-12
2.6729888e-12
6.3656584e-12
2.4987985e-11
2.4628792e-10
8.9135955e-09
1.4833811e-07
7.568843e-07
3.129267e-06
1.4228779e-25
8.391649e-24
9.7536577e-23
6.2251314e-22
3.0585151e-21
1.2985517e-20
4.985251e-20
1.7686223e-19
5.8679702e-19
1.8322406e-18
5.4250403e-18
1.5312826e-17
4.130498e-17
1.0668418e-16
2.6443166e-16
6.3044999e-16
1.4459199e-15
3.1893691e-15
6.7668972e-15
1.3816981e-14
2.7146902e-14
5.1319563e-14
9.3234329e-14
1.626366e-13
2.7208676e-13
4.3556392e-13
6.6650076e-13
9.7419345e-13
1.3607345e-12
1.826773e-12
2.4040984e-12
3.2686007e-12
5.1594518e-12
1.1572813e-11
5.1518567e-11
7.7975837e-10
3.1950694e-08
3.8350913e-07
1.8056848e-06
7.4421614e-06
4.1173863e-25
2.3896162e-23
2.7398796e-22
1.7235344e-21
8.3239793e-21
3.4705298e-20
1.3085423e-19
4.5617697e-19
1.4882705e-18
4.5731954e-18
1.333704e-17
3.7114504e-17
9.880682e-17
2.5216975e-16
6.1839526e-16
1.460626e-15
3.3233057e-15
7.2825516e-15
1.5372193e-14
3.1270015e-14
6.1289482e-14
1.1573148e-13
2.1026188e-13
3.6717777e-13
6.1548145e-13
9.8779063e-13
1.5156388e-12
2.2204576e-12
3.099304e-12
4.1352133e-12
5.3444581e-12
6.9955581e-12
1.0455341e-11
2.3667138e-11
1.3494383e-10
3.2778929e-09
1.0882716e-07
9.1815023e-07
3.8662356e-06
1.7199289e-05
1.2004424e-24
6.8112363e-23
7.6677828e-22
4.7435521e-21
2.2498569e-20
9.2065638e-20
3.4076404e-19
1.1667958e-18
3.7412583e-18
1.1306969e-17
3.245726e-17
8.8979176e-17
2.3358318e-16
5.8847405e-16
1.4262546e-15
3.3336406e-15
7.5160705e-15
1.6344222e-14
3.4285419e-14
6.9410639e-14
1.3559127e-13
2.5553387e-13
4.6396182e-13
8.1067688e-13
1.3610831e-12
2.1895781e-12
3.3685444e-12
4.9451938e-12
6.9072454e-12
9.1893155e-12
1.1755346e-11
1.5027471e-11
2.1767347e-11
5.152461e-11
3.8693939e-10
1.3064385e-08
2.8415913e-07
1.7634348e-06
6.967518e-06
4.2959539e-05
3.5446572e-24
1.9482764e-22
2.1413915e-21
1.2995128e-20
6.046588e-20
2.4270451e-19
8.8145982e-19
2.9631505e-18
9.3337501e-18
2.7730527e-17
7.8306538e-17
2.11335e-16
5.4662626e-16
1.3581968e-15
3.2500541e-15
7.5090524e-15
1.6757004e-14
3.611743e-14
7.5204772e-14
1.5135424e-13
2.9436675e-13
5.5315024e-13
1.0028771e-12
1.7521923e-12
2.9452418e-12
4.7481731e-12
7.3247174e-12
1.0781881e-11
1.5086432e-11
2.0053445e-11
2.5480266e-11
3.1960792e-11
4.4709988e-11
1.0712535e-10
9.9568201e-10
3.5173457e-08
4.4623817e-07
1.8914348e-06
4.755755e-06
7.7622529e-05
1.0681638e-23
5.6106437e-22
5.9782898e-21
3.5483255e-20
1.6177225e-19
6.3653722e-19
2.2673602e-18
7.4800722e-18
2.3137235e-17
6.7545555e-17
1.875402e-16
4.9797803e-16
1.2682188e-15
3.1052774e-15
7.3296244e-15
1.6722271e-14
3.6893633e-14
7.8722085e-14
1.6250717e-13
3.2472827e-13
6.2803951e-13
1.1754353e-12
2.1259265e-12
3.7110681e-12
6.2414226e-12
1.0080475e-11
1.5593217e-11
2.3024479e-11
3.2301064e-11
4.2958212e-11
5.4327584e-11
6.6991387e-11
8.992495e-11
2.1200599e-10
2.4353676e-09
6.9517477e-08
5.1854062e-07
1.3589193e-06
6.8340491e-07
0.00011763639
3.3199866e-23
1.6343855e-21
1.6733502e-20
9.680611e-20
4.3186016e-19
1.6646516e-18
5.8128619e-18
1.8811945e-17
5.7117891e-17
1.637812e-16
4.4691395e-16
1.1669603e-15
2.9244071e-15
7.0511718e-15
1.6403033e-14
3.6917144e-14
8.043555e-14
1.6970431e-13
3.4686431e-13
6.8727723e-13
1.3200744e-12
2.4576166e-12
4.4289194e-12
7.7165458e-12
1.2975046e-11
2.0983847e-11
3.2544584e-11
4.8218646e-11
6.7872891e-11
9.0426004e-11
1.1405187e-10
1.3870693e-10
1.790017e-10
4.113567e-10
5.8114788e-09
1.125296e-07
5.4844981e-07
1.1037332e-06
9.5595365e-07
0.00016179249
1.0782627e-22
4.8462221e-21
4.7167311e-20
2.6494229e-19
1.154826e-18
4.3577019e-18
1.4910496e-17
4.7317279e-17
1.4096898e-16
3.9687362e-16
1.0638781e-15
2.7304488e-15
6.7293417e-15
1.5967136e-14
3.6578922e-14
8.1137947e-14
1.7439942e-13
3.6338694e-13
7.3444166e-13
1.4409437e-12
2.7446304e-12
5.0754184e-12
9.1008184e-12
1.5806082e-11
2.6542765e-11
4.2950876e-11
6.6766041e-11
9.9274948e-11
1.4030501e-10
1.8750339e-10
2.3642147e-10
2.8499449e-10
3.5693718e-10