/*--------------------------------*- C++ -*----------------------------------*\
| =========                 |                                                 |
| \\      /  F ield         | OpenFOAM: The Open Source CFD Toolbox           |
|  \\    /   O peration     | Version:  2.3.0                                 |
|   \\  /    A nd           | Web:      www.OpenFOAM.org                      |
|    \\/     M anipulation  |                                                 |
\*---------------------------------------------------------------------------*/
FoamFile
{
    version     2.0;
    format      ascii;
    class       volScalarField;
    location    "0.2";
    object      CO2;
}
// * * * * * * * * * * * * * * * * * * * * * * * * * * * * * * * * * * * * * //

dimensions      [0 0 0 0 0 0 0];

internalField   nonuniform List<scalar> 
5835
(
1.0127535e-08
1.028882e-07
1.2114604e-06
9.4008575e-06
4.4056502e-11
3.6449542e-10
3.8368243e-09
2.3825106e-08
1.5586097e-13
1.1211677e-12
0.1098
0.1098
0.1098
0.1098
0.1098
0.1098
0.1098
0.1098
0.1098
0.1098
0.1098
0.1098
0.1098
0.1098
0.1098
0.1098
0.1098
0.1098
0.1098
0.1098
1.1062551e-11
6.086247e-11
4.9346417e-16
3.1579493e-15
2.9788248e-14
1.5559311e-13
1.4620869e-18
8.4133068e-18
7.6625807e-17
3.9789802e-16
4.1447166e-21
2.1542882e-20
1.9079975e-19
1.0175851e-18
1.1422541e-23
5.3764623e-23
4.6491429e-22
2.6018309e-21
3.1013129e-26
1.322903e-25
1.1182238e-24
6.6501286e-24
1.1753171e-28
3.5795779e-28
2.7096627e-27
1.7026219e-26
3.239887e-29
3.3205683e-29
3.9816199e-29
7.8880693e-29
3.025347e-29
3.0453252e-29
3.1343848e-29
3.3356958e-29
2.8323296e-29
2.8486283e-29
2.9238936e-29
3.0984103e-29
2.6384549e-29
2.6516224e-29
2.7152492e-29
2.8722775e-29
2.4435918e-29
2.4540161e-29
2.5068896e-29
2.6464196e-29
2.2476669e-29
2.2557124e-29
2.2987707e-29
2.4209129e-29
2.0506045e-29
2.0566149e-29
2.0908385e-29
2.1958681e-29
1.8523252e-29
1.8566263e-29
1.8830312e-29
1.9714004e-29
1.652749e-29
1.655648e-29
1.6752713e-29
1.7476332e-29
1.4517924e-29
1.4535791e-29
1.4674701e-29
1.5246966e-29
1.2493726e-29
1.2503206e-29
1.2595146e-29
1.3027245e-29
1.0454e-29
1.0457671e-29
1.0512936e-29
1.0818375e-29
8.39794e-30
8.3980638e-30
8.4264267e-30
8.6220008e-30
6.325552e-30
6.3240711e-30
6.3348989e-30
6.4390862e-30
4.2350744e-30
4.2337014e-30
4.2356451e-30
4.2724418e-30
2.122002e-30
2.1220641e-30
2.1228433e-30
2.1263447e-30
0.1098
0.1098
0.1098
0.1098
0.1098
0.1098
0.1098
0.1098
0.1098
0.1098
0.1098
0.1098
0.1098
0.1098
0.1098
0.1098
0.1098
0.1098
0.1098
0.1098
0.1098
0.1098
0.1098
0.1098
0.1098
0.1098
0.1098
0.1098
0.1098
0.1098
0.1098
0.1098
0.1098
0.1098
0.1098
0.1098
0.1098
0.1098
0.1098
0.1098
0.1098
0.1098
0.1098
0.1098
0.1098
0.1098
0.1098
0.1098
0.1098
0.1098
0.1098
0.1098
0.1098
0.1098
0.1098
0.1098
0.1098
0.1098
0.1098
0.1098
0.1098
0.1098
0.1098
0.1098
0.1098
0.1098
0.1098
0.1098
0.1098
0.1098
0.1098
0.1098
0.1098
0.1098
0.1098
0.1098
0.1098
0.1098
0.1098
0.1098
0.1098
0.1098
0.1098
0.1098
0.1098
0.10979999
0.1098
0.1098
0.1098
0.10980001
0.10979961
0.10979987
0.10979999
0.1098001
0.10980047
0.10978149
0.10979339
0.10979898
0.10980532
0.10982744
0.10892751
0.10947117
0.10972093
0.11003898
0.11139254
0.062075441
0.062037527
0.061953819
0.061826739
0.063131546
0.063092051
0.063004853
0.062872482
0.064463749
0.06442223
0.064330557
0.0641914
0.065892535
0.065848802
0.065752247
0.06560569
0.067381794
0.067335683
0.067233884
0.067079382
0.068918903
0.068870268
0.068762902
0.068599969
0.070509761
0.070458428
0.070345118
0.070173182
0.072150435
0.072096235
0.071976601
0.071795088
0.073850763
0.073793494
0.073667089
0.073475321
0.0756111
0.075550548
0.075416898
0.075214158
0.077432554
0.077368487
0.077227081
0.077012598
0.07931712
0.079249288
0.079099575
0.078872517
0.081275532
0.08120364
0.081044978
0.080804382
0.083307228
0.08323096
0.083062666
0.082807506
0.085405789
0.08532482
0.085146192
0.084875421
0.087589712
0.087503646
0.087313837
0.087026182
0.089848083
0.089756531
0.089554691
0.089248882
0.092196672
0.092099179
0.091884311
0.091558846
0.09462309
0.094519212
0.094290326
0.093943711
0.097141707
0.09703094
0.096786894
0.096417404
0.099768392
0.099650151
0.099389626
0.098995258
0.10250162
0.10237529
0.10209688
0.1016755
0.10535083
0.10521569
0.1049178
0.10446703
0.10832644
0.10818168
0.10786251
0.10737964
0.11142721
0.11127191
0.11092951
0.11041161
0.11467881
0.11451186
0.11414384
0.11358738
0.11806217
0.11788241
0.1174863
0.11688766
0.12160526
0.12141127
0.12098409
0.12033887
0.1252829
0.12507323
0.1246119
0.12391561
0.12910683
0.12887983
0.12838087
0.12762838
0.13307191
0.13282581
0.13228545
0.13147126
0.13719792
0.13693072
0.1363447
0.13546256
0.14147787
0.14118763
0.1405523
0.13959622
0.14585744
0.14554667
0.14487191
0.14385098
0.14922208
0.14910398
0.14877195
0.14803804
0.14941227
0.14940308
0.14936868
0.14926719
0.14923393
0.14924488
0.14926444
0.14927849
0.14900009
0.14901757
0.14905413
0.14910309
0.14875073
0.14877144
0.14881599
0.14888016
0.14849212
0.14851499
0.14856464
0.14863759
0.14822673
0.14825157
0.14830575
0.14838616
0.14795486
0.14798164
0.14804017
0.14812749
0.14767656
0.14770528
0.14776807
0.14786187
0.1473921
0.14742291
0.14749025
0.14759089
0.14710013
0.14713323
0.14720557
0.14731367
0.14680043
0.14683608
0.14691396
0.14703026
0.14649279
0.14653127
0.14661525
0.14674058
0.14617677
0.14621839
0.14630913
0.14644436
0.14585022
0.14589537
0.14599364
0.14613984
0.14551449
0.14556358
0.14567028
0.14582867
0.14516719
0.14522074
0.14533694
0.14550903
0.14480758
0.14486622
0.1449932
0.14518071
0.14443487
0.14449935
0.14463863
0.1448436
0.14404805
0.14411927
0.1442727
0.14449753
0.14364562
0.14372473
0.14389458
0.1441422
0.14322498
0.1433135
0.14350271
0.14377676
0.14277834
0.14287853
0.14309141
0.143397
0.14229841
0.1424139
0.14265704
0.14300152
0.1417586
0.14189661
0.14218255
0.14257886
0.14110578
0.14128302
0.14163894
0.14211265
0.1401872
0.14044988
0.14094572
0.14155657
0.13859548
0.13908365
0.13991575
0.14081427
0.13521665
0.13636214
0.13809743
0.1396763
0.12740503
0.13034629
0.13447802
0.13771706
0.11215143
0.11828714
0.12736516
0.13423402
0.094629299
0.10232831
0.11616301
0.12859662
0.081637054
0.089072231
0.10400082
0.12103397
0.071900861
0.07893601
0.093497934
0.11253427
0.063945337
0.070736096
0.084815596
0.1042914
0.057100077
0.063766434
0.077500187
0.096894067
0.051001897
0.057608773
0.071105803
0.090267422
0.045559565
0.052139843
0.065467523
0.084356877
0.040674639
0.047242026
0.060440526
0.079070839
0.036236418
0.042792056
0.055883495
0.074295392
0.032244496
0.038780467
0.051771942
0.070007752
0.028618967
0.03512088
0.048005856
0.066090943
0.025365283
0.031815129
0.044579844
0.062524127
0.022416822
0.0287936
0.041419172
0.059220089
0.019750536
0.026031941
0.038500308
0.056154447
0.017370511
0.02353371
0.035827515
0.053331347
0.015224783
0.021244585
0.033343597
0.050692118
0.013295069
0.019146071
0.031030281
0.04822174
0.011564383
0.017221755
0.028871144
0.045906969
0.010034726
0.015477011
0.026872046
0.043753576
0.0086690681
0.013874656
0.024991632
0.041716932
0.0074574386
0.012408317
0.023223898
0.039789988
0.0063822032
0.011062721
0.021552024
0.0379519
0.0054312291
0.0098291796
0.019967885
0.036192409
0.00459325
0.0086998728
0.01846508
0.034504258
0.0038578207
0.0076674724
0.017037748
0.032880258
0.0032195515
0.0067311804
0.015688412
0.031319942
0.0026642018
0.0058774039
0.014402682
0.029805292
0.0021838589
0.0051007291
0.013177774
0.028333045
0.0017712311
0.0043959703
0.01201032
0.026897667
0.0014195683
0.0037583032
0.010896817
0.0254927
0.0011225937
0.0031834031
0.0098340975
0.02411235
0.00087259187
0.0026637621
0.0088128809
0.022746472
0.00066656186
0.0022007572
0.0078396841
0.021406513
0.00049920238
0.0017913183
0.0069121555
0.02008866
0.00036538887
0.0014323665
0.0060276726
0.018785896
0.00026023029
0.0011207615
0.0051840938
0.017487358
0.00017965608
0.000854953
0.0043851273
0.016190234
0.00011960971
0.00063315118
0.0036358399
0.014889444
7.580943e-05
0.00045056704
0.0029333326
0.013556159
4.5353588e-05
0.00030553073
0.0022855684
0.012167263
2.520944e-05
0.00019456896
0.0017001107
0.010703195
1.2698365e-05
0.00011387335
0.001188652
0.0091609305
5.5356753e-06
5.8817152e-05
0.00075763657
0.0075130385
1.8839621e-06
2.4484366e-05
0.00040875564
0.0056538653
3.9351331e-07
6.4611429e-06
0.00015128508
0.003449139
0.029481196
0.028392471
0.027310503
0.027256714
0.027875539
0.028793671
0.029809486
0.030865314
0.031960971
0.033088669
0.034225452
0.035360396
0.036507839
0.037677932
0.03887821
0.040097491
0.041347723
0.042642477
0.043991898
0.045402138
0.046874027
0.048425411
0.050059478
0.051781153
0.053596276
0.055515664
0.057561619
0.059738968
0.06209066
0.064609093
0.067300921
0.070176731
0.073295497
0.076654333
0.080277567
0.084259266
0.088616672
0.093433253
0.098639521
0.10418826
0.10998864
0.11595598
0.12208844
0.12799334
0.13300899
0.13670164
0.13905716
0.14046736
0.14134938
0.14196591
0.14245236
0.14287386
0.14326362
0.14363285
0.14399044
0.14433676
0.14467529
0.14500646
0.14533032
0.14564681
0.14595587
0.14625753
0.14655342
0.14684179
0.14712422
0.147401
0.14767214
0.14793752
0.1481977
0.14845012
0.14869442
0.14892801
0.1491332
0.14926417
0.14910101
0.14720164
0.14301008
0.13881525
0.1347413
0.13080497
0.12701213
0.12334502
0.11980984
0.11639656
0.11313066
0.10998629
0.10698287
0.10409643
0.10132889
0.098670706
0.096113202
0.09365825
0.091290734
0.088996912
0.08678913
0.084652245
0.082597161
0.080606008
0.078685269
0.076835685
0.075046899
0.073317085
0.071645288
0.070031264
0.068465465
0.066951822
0.065484675
0.06407648
0.062763149
0.06172177
0.060183667
0.061161756
0.06239425
0.063714304
0.065087015
0.066500544
0.067959608
0.069460245
0.07101083
0.072611151
0.07426158
0.075963306
0.077725229
0.079545984
0.081418947
0.083359485
0.085356786
0.087423418
0.089547198
0.091739279
0.094011789
0.096361645
0.098794926
0.10131815
0.10392759
0.10664138
0.10943998
0.11234203
0.11532241
0.11838596
0.1215242
0.12474889
0.12805387
0.13143078
0.1348717
0.13838213
0.14192191
0.14532793
0.14773441
0.14839102
0.14871394
0.14884363
0.14873547
0.1485909
0.14843671
0.14827853
0.14811575
0.147938
0.14774786
0.14755652
0.14736567
0.14717635
0.14698945
0.14680586
0.14662625
0.14645095
0.14627962
0.14611352
0.14595144
0.14579418
0.14564005
0.14548877
0.1453411
0.14519912
0.14506802
0.14495349
0.14485632
0.14477306
0.14470022
0.14463532
0.14457794
0.14452979
0.1444902
0.14445686
0.14443299
0.14442219
0.14442414
0.14443866
0.14446675
0.14450928
0.14456739
0.14464259
0.14473519
0.14484274
0.1449596
0.14506184
0.14509108
0.14503628
0.14501128
0.14503923
0.14511344
0.14522894
0.14537591
0.14551839
0.14553684
0.14507817
0.14428476
0.14197159
0.13293683
0.12242597
0.11107828
0.099036129
0.087077868
0.075159334
0.065210757
0.058662159
0.055751938
0.055842942
0.058730904
0.068884633
0.060615609
0.061611334
0.062866316
0.064210884
0.06560983
0.067051151
0.068539818
0.070071877
0.071656024
0.073292167
0.07498083
0.076723366
0.07852906
0.080396699
0.08231968
0.084314036
0.086368918
0.088497588
0.090687813
0.092951441
0.095301394
0.097734877
0.10025861
0.10287984
0.10559519
0.10842421
0.11134724
0.11438463
0.11751096
0.12073222
0.12404033
0.12744843
0.13095055
0.13453817
0.13820264
0.14193459
0.14556945
0.14803884
0.14881048
0.14891762
0.1488928
0.14879445
0.14861361
0.14841787
0.14821726
0.14801417
0.14780834
0.14759615
0.14737808
0.14715942
0.14694037
0.14672169
0.14650417
0.14628864
0.14607582
0.1458662
0.14565903
0.14545587
0.14525505
0.14505719
0.14485958
0.14466074
0.14445967
0.14425681
0.14405647
0.14386527
0.14368543
0.14351398
0.14334687
0.14317985
0.14301083
0.14284509
0.14268775
0.14254133
0.14240861
0.142288
0.14217905
0.14207977
0.14199252
0.14191983
0.14186374
0.14182911
0.14181978
0.14183675
0.14188026
0.14194741
0.14203045
0.14213157
0.1422693
0.14244682
0.14266017
0.14290868
0.14319072
0.14349888
0.14381254
0.14409689
0.14435993
0.14446325
0.14407901
0.1437372
0.14343546
0.1426561
0.13724814
0.12350539
0.1090737
0.097216863
0.089856658
0.08761675
0.090102408
0.097792015
0.060994473
0.062005754
0.063280603
0.064646825
0.066068963
0.067534864
0.069049731
0.070609619
0.072223508
0.07389142
0.075614017
0.077392804
0.079237415
0.081146782
0.083114328
0.085156696
0.087263013
0.089447175
0.091696916
0.094024723
0.096444245
0.098952974
0.10155824
0.10426798
0.10707921
0.11001285
0.11304918
0.11621023
0.11947045
0.12283701
0.1263023
0.12988083
0.13356679
0.13735129
0.14122333
0.14510853
0.14807947
0.14892795
0.14907216
0.14897243
0.14881902
0.14863476
0.14841822
0.14819406
0.14796594
0.14773501
0.14750121
0.14726325
0.14702068
0.14677665
0.14653065
0.14628327
0.1460352
0.1457872
0.14553998
0.14529406
0.14504831
0.14480438
0.14455993
0.14431499
0.14406476
0.14380466
0.14352873
0.14323071
0.14290856
0.14256658
0.1422089
0.14183476
0.14143965
0.14101289
0.14054305
0.14004038
0.13952271
0.13900387
0.1384965
0.13799439
0.13749675
0.13699326
0.13648767
0.13598867
0.13549918
0.13503545
0.13461416
0.13424961
0.13394785
0.1337192
0.13356612
0.13349356
0.1335102
0.13362129
0.13382457
0.13412156
0.13451589
0.13500448
0.13557578
0.13621788
0.1369302
0.13768733
0.1384518
0.13926167
0.14008603
0.14084302
0.14127535
0.14136481
0.14162568
0.14122313
0.13204631
0.11682622
0.10809596
0.10714623
0.061318695
0.062343353
0.063635307
0.065020172
0.066462293
0.067949383
0.069486847
0.071070748
0.072710318
0.074405676
0.07615761
0.07796776
0.079846069
0.081791604
0.083797821
0.085881898
0.088032952
0.090265435
0.092567059
0.094950873
0.097431176
0.10000573
0.10268242
0.10546985
0.10836542
0.11139131
0.11452787
0.1177987
0.12117822
0.12467476
0.12828126
0.13201358
0.13586597
0.13982859
0.14387703
0.14770586
0.14896484
0.1491553
0.14906812
0.14888512
0.14867749
0.14845453
0.14821645
0.14797298
0.14772514
0.14747352
0.14721815
0.14695854
0.14669368
0.14642587
0.14615415
0.1458789
0.14560065
0.14532002
0.14503759
0.14475372
0.14446674
0.14417811
0.1438842
0.14358342
0.14326647
0.14292076
0.14252603
0.14205342
0.14147267
0.14076702
0.13993757
0.13898998
0.13792348
0.13670773
0.13529236
0.13369316
0.1319698
0.13018298
0.12839322
0.12658769
0.12476786
0.12289488
0.12097081
0.11902201
0.11704912
0.11509675
0.1132142
0.1114553
0.10982949
0.10836666
0.10707092
0.10595027
0.10501658
0.10428268
0.10375798
0.10345402
0.10339966
0.10361979
0.10413628
0.1049769
0.10619382
0.10781879
0.10983538
0.11219045
0.11478634
0.11754295
0.12040393
0.12339309
0.12648974
0.1296548
0.13274426
0.13596756
0.13640954
0.12018384
0.061586856
0.062622623
0.063928791
0.065329154
0.066787899
0.068292621
0.0698489
0.071452801
0.073113771
0.074832008
0.076608411
0.078444736
0.080351195
0.082326974
0.084365564
0.086484599
0.088673188
0.090946252
0.09329148
0.095722394
0.098253843
0.10088383
0.10362074
0.10647376
0.1094407
0.11254487
0.11576673
0.11913131
0.12261308
0.12622149
0.12995001
0.13381574
0.13781298
0.14192952
0.14610864
0.14883338
0.14922908
0.1491657
0.14898676
0.14876585
0.1485314
0.14828742
0.14803434
0.14777626
0.14751298
0.1472448
0.14697171
0.14669344
0.1464086
0.14611912
0.14582359
0.14552218
0.14521516
0.14490286
0.14458557
0.14426326
0.14393338
0.14359661
0.14324693
0.1428787
0.14247269
0.14199609
0.14138819
0.14054632
0.13932996
0.13761654
0.13537553
0.13265184
0.12952012
0.1259628
0.12186859
0.11733407
0.11262797
0.10802834
0.10376974
0.0998493
0.096273554
0.092954015
0.089863883
0.087006886
0.084331091
0.081834307
0.079516403
0.077392249
0.075425694
0.073615045
0.071940737
0.070393932
0.068970839
0.067668331
0.066485542
0.06541117
0.064447484
0.063589896
0.062828399
0.062150887
0.061548328
0.061019962
0.06054342
0.060094995
0.059660046
0.059260356
0.058941456
0.058760787
0.058806719
0.05931243
0.060796619
0.064314114
0.07211596
0.086272059
0.033880066
0.032535598
0.033793287
0.035312897
0.038311452
0.044014815
0.052743741
0.063170203
0.073913245
0.085144712
0.096406912
0.10686397
0.11638099
0.12450213
0.13184897
0.13748522
0.13936514
0.14039113
0.1412213
0.14202854
0.1428594
0.14374078
0.14468808
0.14557951
0.14591458
0.14588343
0.1457724
0.14565801
0.14555641
0.14547069
0.14540246
0.14535093
0.14531604
0.14529546
0.1452893
0.14529784
0.14532047
0.14534294
0.14535651
0.14537196
0.14539516
0.14542671
0.14546722
0.14551892
0.145585
0.14566871
0.1457697
0.14588295
0.1460034
0.14612909
0.14625878
0.14639254
0.14653175
0.14667541
0.14682462
0.14697837
0.14713649
0.14729892
0.14746502
0.14763377
0.14780406
0.14797441
0.14814067
0.14827978
0.14838522
0.14848143
0.14856899
0.14863651
0.14862663
0.14804622
0.14707088
0.14557935
0.14259695
0.13924261
0.13585581
0.13250629
0.12921946
0.12598787
0.12281926
0.11972192
0.11670212
0.11374899
0.11087114
0.10806445
0.1053537
0.10272142
0.10018703
0.097733365
0.095364432
0.093074221
0.090857096
0.088716329
0.086640326
0.084618399
0.082662661
0.080761015
0.078924225
0.077137398
0.075407168
0.073735011
0.072112307
0.070537986
0.069011785
0.067534002
0.066096484
0.064703202
0.063349606
0.062047434
0.060831321
0.059866125
3.0405634e-33
2.8039663e-31
4.6702278e-30
5.0959643e-29
4.5810033e-28
3.5799108e-27
2.5064517e-26
1.6039384e-25
9.5078785e-25
5.2610779e-24
2.7461119e-23
1.3635775e-22
6.4730223e-22
2.9514991e-21
1.299511e-20
5.5588877e-20
2.3167597e-19
9.429776e-19
3.7586931e-18
1.4726519e-17
5.6855203e-17
2.1699069e-16
8.1964786e-16
3.0698777e-15
1.1432609e-14
4.2317232e-14
1.5616008e-13
5.7688414e-13
2.1397167e-12
7.9926376e-12
3.0134811e-11
1.1573308e-10
4.5777182e-10
1.8794044e-09
8.1531093e-09
3.8814871e-08
2.387995e-07
2.9247752e-06
0.00014074855
0.0048534306
1.96479e-32
1.670749e-30
2.8178538e-29
3.073994e-28
2.7588714e-27
2.1526197e-26
1.504974e-25
9.6172879e-25
5.6929303e-24
3.1454679e-23
1.6392237e-22
8.125343e-22
3.8497005e-21
1.7515428e-20
7.6930969e-20
3.2818508e-19
1.3635522e-18
5.5307595e-18
2.1959671e-17
8.5660468e-17
3.2907575e-16
1.2488794e-15
4.6871722e-15
1.7425268e-14
6.4332704e-14
2.3568776e-13
8.5903876e-13
3.1253711e-12
1.1371417e-11
4.1424975e-11
1.5105931e-10
5.5394795e-10
2.0534412e-09
7.6907916e-09
2.9497812e-08
1.2171121e-07
6.7068513e-07
7.7162375e-06
0.00030662702
0.0066356844
7.9482137e-32
6.5012049e-30
1.1078365e-28
1.2078564e-27
1.0810653e-26
8.4128931e-26
5.8675723e-25
3.740896e-24
2.2092463e-23
1.217672e-22
6.3290122e-22
3.1280583e-21
1.4772305e-20
6.6966049e-20
2.9291723e-19
1.2437693e-18
5.1405548e-18
2.0727719e-17
8.1752287e-17
3.1651779e-16
1.2057105e-15
4.5322497e-15
1.6825959e-14
6.1778491e-14
2.2481691e-13
8.0989693e-13
2.8938935e-12
1.0281571e-11
3.6348696e-11
1.2782807e-10
4.4621034e-10
1.5493272e-09
5.3645792e-09
1.8496191e-08
6.4736633e-08
2.4638324e-07
1.2975008e-06
1.4558827e-05
0.00049603044
0.00831474
2.6402783e-31
2.1368941e-29
3.6794214e-28
4.0063544e-27
3.5711951e-26
2.7683811e-25
1.9240288e-24
1.2225804e-23
7.1960646e-23
3.9524802e-22
2.0466764e-21
1.0073932e-20
4.7356232e-20
2.1357038e-19
9.2875709e-19
3.9177765e-18
1.6072632e-17
6.4269025e-17
2.5111687e-16
9.6204939e-16
3.6216075e-15
1.3433338e-14
4.9126822e-14
1.7732961e-13
6.329218e-13
2.2300492e-12
7.7671582e-12
2.6787954e-11
9.1472752e-11
3.088191e-10
1.0274646e-09
3.3718914e-09
1.0937157e-08
3.5097682e-08
1.1451864e-07
4.1380651e-07
2.1225579e-06
2.3392997e-05
0.00070947661
0.010088139
7.9081984e-31
6.3859791e-29
1.1082192e-27
1.2032475e-26
1.0664833e-25
8.2241073e-25
5.689093e-24
3.599247e-23
2.1094005e-22
1.153465e-21
5.944566e-21
2.9107539e-20
1.3603831e-19
6.0952546e-19
2.6312251e-18
1.1007419e-17
4.4736566e-17
1.7701237e-16
6.8352778e-16
2.5843611e-15
9.586687e-15
3.4979761e-14
1.2559773e-13
4.4414929e-13
1.5491322e-12
5.3186058e-12
1.7990302e-11
6.0021294e-11
1.9736528e-10
6.3831239e-10
2.0228394e-09
6.2855743e-09
1.9203095e-08
5.7967241e-08
1.7904691e-07
6.2387894e-07
3.1465542e-06
3.4419923e-05
0.00097045115
0.012229543
2.2172997e-30
1.790564e-28
3.1202518e-27
3.3701708e-26
2.9641015e-25
2.2699898e-24
1.5608537e-23
9.8206798e-23
5.7250302e-22
3.113681e-21
1.5955262e-20
7.763921e-20
3.6035802e-19
1.6021491e-18
6.8562796e-18
2.8402535e-17
1.1416871e-16
4.461974e-16
1.6994204e-15
6.3277383e-15
2.3077514e-14
8.2635183e-14
2.905927e-13
1.0042071e-12
3.4141921e-12
1.1394761e-11
3.7351042e-11
1.2033581e-10
3.8060575e-10
1.1789551e-09
3.5627233e-09
1.0514371e-08
3.0427298e-08
8.714282e-08
2.5738562e-07
8.719458e-07
4.3588931e-06
4.8673713e-05
0.0013497552
0.015167726
5.9441249e-30
4.7947598e-28
8.351334e-27
8.9429706e-26
7.7834121e-25
5.9069352e-24
4.0305466e-23
2.5187236e-22
1.4588929e-21
7.883893e-21
4.013087e-20
1.9388504e-19
8.9285043e-19
3.9349993e-18
1.6675335e-17
6.8323084e-17
2.7127386e-16
1.0457256e-15
3.9224572e-15
1.4360207e-14
5.1404164e-14
1.8032421e-13
6.1998111e-13
2.0901571e-12
6.9161981e-12
2.2407724e-11
7.1103262e-11
2.210716e-10
6.7253718e-10
1.9968291e-09
5.7650014e-09
1.6212364e-08
4.4660299e-08
1.221052e-07
3.4698803e-07
1.1489371e-06
5.7882429e-06
7.0449168e-05
0.0020099987
0.019388873
1.5460671e-29
1.2415817e-27
2.1494904e-26
2.2714335e-25
1.9489492e-24
1.4615066e-23
9.8748466e-23
6.1189529e-22
3.5170045e-21
1.8864959e-20
9.5302716e-20
4.5676698e-19
2.0852494e-18
9.1026354e-18
3.8165878e-17
1.5452768e-16
6.0546176e-16
2.2997996e-15
8.4866557e-15
3.0515027e-14
1.0709217e-13
3.6762458e-13
1.2344248e-12
4.0560114e-12
1.3051202e-11
4.1023425e-11
1.2597705e-10
3.7803895e-10
1.1068861e-09
3.1542637e-09
8.7188985e-09
2.3436899e-08
6.1708112e-08
1.6179608e-07
4.4442814e-07
1.4509655e-06
7.6405815e-06
0.00011301581
0.0031745205
0.024922726
3.9274317e-29
3.1325685e-27
5.3586906e-26
5.5541638e-25
4.6741497e-24
3.4498169e-23
2.3013984e-22
1.4110648e-21
8.0354865e-21
4.2730642e-20
2.140356e-19
1.0168426e-18
4.5987901e-18
1.987094e-17
8.2383272e-17
3.2941622e-16
1.2729141e-15
4.7612843e-15
1.7274294e-14
6.0964179e-14
2.0963059e-13
7.0378631e-13
2.3068502e-12
7.3845653e-12
2.3102171e-11
7.0453447e-11
2.0944911e-10
6.0706844e-10
1.712774e-09
4.6926358e-09
1.2448614e-08
3.2083685e-08
8.1043027e-08
2.0464418e-07
5.4669023e-07
1.7912836e-06
1.0466125e-05
0.00020861223
0.0050256865
0.031395668
9.9778636e-29
7.8573651e-27
1.3176406e-25
1.3290083e-24
1.0894441e-23
7.8710703e-23
5.163528e-22
3.1235187e-21
1.7585946e-20
9.2570642e-20
4.5922351e-19
2.1606957e-18
9.6741436e-18
4.1353131e-17
1.6944599e-16
6.6884107e-16
2.5478486e-15
9.3810127e-15
3.3449438e-14
1.1582394e-13
3.9008659e-13
1.280413e-12
4.0958063e-12
1.2771796e-11
3.8846675e-11
1.1496113e-10
3.3099985e-10
9.2728377e-10
2.5237056e-09
6.6577944e-09
1.6984319e-08
4.2077299e-08
1.0229401e-07
2.4983649e-07
6.5483588e-07
2.2166177e-06
1.56525e-05
0.00042936432
0.0077065847
0.038737359
2.565403e-28
1.9836029e-26
3.2355744e-25
3.1473882e-24
2.4914024e-23
1.7492047e-22
1.1221255e-21
6.6696721e-21
3.7017974e-20
1.9248785e-19
9.4433421e-19
4.3959258e-18
1.9470769e-17
8.2295848e-17
3.3315576e-16
1.2978247e-15
4.8729098e-15
1.7658948e-14
6.1877699e-14
2.1021371e-13
6.9343267e-13
2.2254278e-12
6.9479697e-12
2.1108619e-11
6.2440988e-11
1.7939764e-10
5.0059003e-10
1.3567123e-09
3.5661894e-09
9.0731989e-09
2.2303978e-08
5.3255586e-08
1.250511e-07
2.971578e-07
7.7574294e-07
2.8436569e-06
2.7325045e-05
0.00090820228
0.011265694
0.046876727
6.7418913e-28
5.0951513e-26
8.0304773e-25
7.4668741e-24
5.6507578e-23
3.8197946e-22
2.378109e-21
1.380888e-20
7.5238123e-20
3.8533029e-19
1.8657097e-18
8.5807709e-18
3.7564808e-17
1.5690337e-16
6.2735668e-16
2.4116116e-15
8.9250171e-15
3.1837535e-14
1.0965479e-13
3.6558489e-13
1.1815502e-12
3.7088983e-12
1.1306654e-11
3.3484812e-11
9.6389843e-11
2.6906011e-10
7.282779e-10
1.9116615e-09
4.8599239e-09
1.1946142e-08
2.8363919e-08
6.5481573e-08
1.4924989e-07
3.4844048e-07
9.2995079e-07
3.9701331e-06
5.8418743e-05
0.0018330172
0.015646479
0.055578448
1.8224894e-27
1.342309e-25
2.0358082e-24
1.7969868e-23
1.2874463e-22
8.2898632e-22
4.9601682e-21
2.7915482e-20
1.4841983e-19
7.4544523e-19
3.5514811e-18
1.6105339e-17
6.9595416e-17
2.8704571e-16
1.1331261e-15
4.297872e-15
1.5679738e-14
5.5074566e-14
1.8652752e-13
6.1061366e-13
1.93471e-12
5.9441149e-12
1.7706992e-11
5.1159329e-11
1.434411e-10
3.8940616e-10
1.0236185e-09
2.605891e-09
6.4180426e-09
1.5274374e-08
3.5127406e-08
7.8730702e-08
1.7538305e-07
4.0800592e-07
1.1551916e-06
6.2563271e-06
0.0001436624
0.0033811983
0.020653513
0.064143421
5.0759081e-27
3.6391669e-25
5.3066272e-24
4.4337955e-23
2.9857598e-22
1.8123367e-21
1.0305282e-20
5.5639564e-20
2.8626704e-19
1.4011357e-18
6.5386084e-18
2.9145143e-17
1.2406288e-16
5.0464687e-16
1.9654976e-15
7.3541904e-15
2.6451745e-14
9.1518948e-14
3.0496912e-13
9.8097894e-13
3.0497566e-12
9.1797123e-12
2.6748901e-11
7.5481034e-11
2.0638395e-10
5.4561659e-10
1.3949131e-09
3.449873e-09
8.2481922e-09
1.9054511e-08
4.2592041e-08
9.3150304e-08
2.0456586e-07
4.8277533e-07
1.5158595e-06
1.129222e-05
0.00035647533
0.0056118709
0.026098876
0.072476599
1.4526414e-26
1.0137326e-24
1.4240705e-23
1.1282525e-22
7.1251665e-22
4.0472871e-21
2.163638e-20
1.1075825e-19
5.4550821e-19
2.578875e-18
1.1708605e-17
5.1049539e-17
2.1334832e-16
8.5405072e-16
3.2778419e-15
1.2091761e-14
4.2876087e-14
1.4616945e-13
4.7954044e-13
1.5169884e-12
4.632312e-12
1.3676451e-11
3.9033962e-11
1.0773261e-10
2.8770266e-10
7.4193006e-10
1.848193e-09
4.4499438e-09
1.0354024e-08
2.3291758e-08
5.0821015e-08
1.0915254e-07
2.3895524e-07
5.8601086e-07
2.1632127e-06
2.4199744e-05
0.00082053535
0.008485811
0.031877965
0.08079122
4.2259269e-26
2.8778615e-24
3.9100756e-23
2.9535163e-22
1.7550519e-21
9.3138679e-21
4.6481362e-20
2.231573e-19
1.0393441e-18
4.6915947e-18
2.0525883e-17
8.6894942e-17
3.5465712e-16
1.3921564e-15
5.2532325e-15
1.9081933e-14
6.6672038e-14
2.2398324e-13
7.2385482e-13
2.2540376e-12
6.7687907e-12
1.9630222e-11
5.4966683e-11
1.4865018e-10
3.8849333e-10
9.7938339e-10
2.3828986e-09
5.6008582e-09
1.2723714e-08
2.7984575e-08
5.9928126e-08
1.2744041e-07
2.8219825e-07
7.4294743e-07
3.4582151e-06
6.0828963e-05
0.0016823432
0.011889746
0.037855741
0.088950555
1.2616178e-25
8.3606009e-24
1.0999466e-22
7.9680303e-22
4.4863317e-21
2.23392e-20
1.0398002e-19
4.6506257e-19
2.0256578e-18
8.6183691e-18
3.5880406e-17
1.4591139e-16
5.7672251e-16
2.2062677e-15
8.1506088e-15
2.9073584e-14
9.9941083e-14
3.3064646e-13
1.0526476e-12
3.2284389e-12
9.5434921e-12
2.7223222e-11
7.490725e-11
1.9886879e-10
5.0971636e-10
1.2591646e-09
3.0003607e-09
6.9057707e-09
1.5374523e-08
3.3217933e-08
7.0265706e-08
1.4938095e-07
3.4042057e-07
9.9926232e-07
6.2476296e-06
0.00016222004
0.0030693274
0.015761457
0.044117621
0.096983284
3.8623234e-25
2.4766702e-23
3.1529387e-22
2.2014249e-21
1.1841513e-20
5.5795863e-20
2.4363029e-19
1.0157538e-18
4.1146898e-18
1.6325127e-17
6.3814989e-17
2.4591927e-16
9.3007027e-16
3.4342226e-15
1.2331709e-14
4.2978178e-14
1.4487229e-13
4.7110881e-13
1.4762343e-12
4.4591828e-12
1.2983978e-11
3.6471991e-11
9.877504e-11
2.5794681e-10
6.4992323e-10
1.5775928e-09
3.6932779e-09
8.3555747e-09
1.8313307e-08
3.9090426e-08
8.2293102e-08
1.7684535e-07
4.2305097e-07
1.4452667e-06
1.2897232e-05
0.00040869576
0.0050174408
0.020041861
0.050707739
0.10484262
1.216001e-24
7.4677325e-23
9.1668596e-22
6.1873209e-21
3.2023265e-20
1.4413705e-19
5.96206e-19
2.3347278e-18
8.8198236e-18
3.2512141e-17
1.1818628e-16
4.2583336e-16
1.5187762e-15
5.3404279e-15
1.8431374e-14
6.2221439e-14
2.0439091e-13
6.505746e-13
2.0014557e-12
5.9470115e-12
1.7052747e-11
4.7198294e-11
1.2597196e-10
3.2419981e-10
8.0496335e-10
1.9257483e-09
4.4456312e-09
9.9300602e-09
2.1542949e-08
4.5740917e-08
9.6702065e-08
2.1293736e-07
5.4909769e-07
2.3128551e-06
3.1544851e-05
0.00092087967
0.0074798804
0.024637087
0.057431388
0.11222579
3.966907e-24
2.294457e-22
2.6979409e-21
1.7615624e-20
8.81611e-20
3.820782e-19
1.5123384e-18
5.623638e-18
2.0000999e-17
6.886943e-17
2.3258768e-16
7.7756466e-16
2.582132e-15
8.5160766e-15
2.7828049e-14
8.9803483e-14
2.8444331e-13
8.7919827e-13
2.6408429e-12
7.6913282e-12
2.1676488e-11
5.9075782e-11
1.5544827e-10
3.9477197e-10
9.6799745e-10
2.289233e-09
5.2317304e-09
1.1595599e-08
2.5058693e-08
5.3351591e-08
1.1448304e-07
2.6256053e-07
7.5417708e-07
4.1549182e-06
8.628668e-05
0.0018261268
0.010380329
0.02947159
0.064175731
0.11923586
1.3570898e-23
7.2121532e-22
8.0459448e-21
5.0754649e-20
2.463193e-19
1.0336328e-18
3.9468696e-18
1.4081961e-17
4.7715816e-17
1.5524341e-16
4.9120745e-16
1.527777e-15
4.7030523e-15
1.4391957e-14
4.3866339e-14
1.3313406e-13
4.004066e-13
1.1862353e-12
3.4431839e-12
9.7548876e-12
2.6880092e-11
7.1900724e-11
1.8623038e-10
4.6661055e-10
1.1311458e-09
2.6505592e-09
6.0187123e-09
1.3305517e-08
2.8842248e-08
6.2133682e-08
1.3693091e-07
3.3290384e-07
1.102486e-06
8.3364266e-06
0.00023081057
0.0031939647
0.013635674
0.034482948
0.070879555
0.12593271
4.964083e-23
2.3406974e-21
2.4472595e-20
1.4874568e-19
7.0083403e-19
2.8573003e-18
1.0582888e-17
3.651177e-17
1.1908332e-16
3.7062659e-16
1.1131914e-15
3.2584455e-15
9.3640951e-15
2.6595366e-14
7.5077083e-14
2.1149931e-13
5.940557e-13
1.6579129e-12
4.5767199e-12
1.2443907e-11
3.3170543e-11
8.6395012e-11
2.1905744e-10
5.3968142e-10
1.2914802e-09
2.9994899e-09
6.7826196e-09
1.5022482e-08
3.2895067e-08
7.2423591e-08
1.6620796e-07
4.3823339e-07
1.7549595e-06
1.9472837e-05
0.0005575779
0.0050199219
0.017185998
0.039693505
0.077377328
0.13242405
1.9218255e-22
7.8117981e-21
7.5816387e-20
4.4304642e-19
2.0275112e-18
8.046352e-18
2.9001373e-17
9.723261e-17
3.0742929e-16
9.2424303e-16
2.667852e-15
7.4550319e-15
2.0292499e-14
5.414049e-14
1.4252261e-13
3.7254765e-13
9.6972771e-13
2.5151439e-12
6.4931018e-12
1.6648319e-11
4.2231664e-11
1.0560012e-10
2.5911533e-10
6.2215896e-10
1.4603743e-09
3.3483859e-09
7.5293822e-09
1.6736154e-08
3.7226186e-08
8.4617385e-08
2.0551456e-07
6.0537225e-07
3.1015739e-06
5.2270267e-05
0.0011719244
0.0072129292
0.020913414
0.044923568
0.083570103
0.13873928
7.84015e-22
2.6964298e-20
2.4135601e-19
1.3537494e-18
6.0164928e-18
2.325838e-17
8.1697666e-17
2.6683985e-16
8.2111582e-16
2.3985465e-15
6.7092761e-15
1.8097999e-14
4.7306929e-14
1.204201e-13
3.0020305e-13
7.3744237e-13
1.7919858e-12
4.3205387e-12
1.0358595e-11
2.4726974e-11
5.8718746e-11
1.384759e-10
3.2317347e-10
7.444071e-10
1.6904464e-09
3.782707e-09