/*--------------------------------*- C++ -*----------------------------------*\
| =========                 |                                                 |
| \\      /  F ield         | OpenFOAM: The Open Source CFD Toolbox           |
|  \\    /   O peration     | Version:  2.3.0                                 |
|   \\  /    A nd           | Web:      www.OpenFOAM.org                      |
|    \\/     M anipulation  |                                                 |
\*---------------------------------------------------------------------------*/
FoamFile
{
    version     2.0;
    format      ascii;
    class       volScalarField;
    location    "0.2";
    object      epsilon;
}
// * * * * * * * * * * * * * * * * * * * * * * * * * * * * * * * * * * * * * //

dimensions      [0 2 -3 0 0 0 0];

internalField   nonuniform List<scalar> 
5835
(
2661.3394
7556.7742
32330.703
113675.54
2490.0927
6607.8945
29004.102
119009.16
2435.1689
6203.6895
29854.053
3938.6898
776.69433
2489.4305
23840.697
52590.554
7389.5382
1499.6852
4799.1068
44695.88
58832.605
9098.8356
2016.4518
6354.556
54352.361
57038.942
9613.4416
2329.4589
7156.9622
57262.416
27672.295
119428.87
2403.4915
5881.5334
26512.256
119959.29
2389.1058
5612.0103
25438.178
120641.47
2388.9728
5380.6536
24427.392
121405.24
2402.5408
5188.6291
23486.714
122291.51
2429.1086
5031.2636
22618.007
123257.35
2468.0483
4907.023
21822.111
124326.3
2519.114
4812.3641
21096.591
125451.73
2582.262
4745.9328
20440.144
126639.77
2657.6219
4704.5561
19845.786
127830.55
2745.5223
4686.0957
19305.864
128997.39
2846.6171
4687.0291
18804.908
130038.87
2962.0747
4704.8
18326.2
130859.48
3093.726
4736.0174
17842.799
131269.3
3244.372
4778.3323
17323.269
131041.06
3418.1551
4829.7551
16723.087
129793.98
3620.9459
4890.6072
15993.305
127032.95
3860.9686
4964.8541
15077.599
122127.44
4149.3773
5062.2008
13938.098
114371.13
4500.9314
5200.4653
12529.202
102875.84
4934.2084
5413.7137
10952.4
86506.01
5469.0665
5735.8331
9268.7672
65346.714
6128.8451
6217.9355
7717.9832
41618.499
54154.987
9625.1821
2504.7258
7603.2223
58001.109
51872.138
9555.3137
2617.6106
7886.8844
58212.578
50235.677
9501.4014
2702.3123
8077.1975
58254.104
49122.484
9476.6271
2772.8542
8220.4929
58258.627
48387.293
9475.5679
2834.44
8330.0413
58269.146
47899.311
9488.1055
2888.7067
8413.249
58290.607
47570.532
9505.2037
2935.7561
8475.6392
58307.54
47341.156
9522.2168
2976.1006
8521.2804
58313.764
47170.958
9535.8211
3009.5509
8553.9749
58303.075
47038.278
9544.8414
3036.7411
8575.6946
58271.621
46923.874
9549.5629
3058.2752
8588.5313
58221.53
46820.514
9549.6172
3075.0172
8594.3219
58155.178
46718.06
9544.6663
3087.4221
8594.3026
58072.859
46616.861
9535.5427
3095.9292
8589.7204
57975.355
46504.167
9522.0634
3101.2051
8581.2905
57860.256
46395.681
9506.6456
3103.5617
8568.6069
57737.063
46240.055
9489.4911
3104.74
8549.2279
57590.623
46106.437
9484.1115
3109.3991
8527.5547
57533.002
45613.181
9549.2055
3151.1962
8435.7276
57016.718
44853.448
9778.5708
3281.5352
8393.8447
59934.435
42007.869
10887.676
4023.4189
7219.9152
47513.745
475.75694
475.5684
475.15187
474.5167
508.71018
508.50031
508.03825
507.33361
548.25274
548.02075
547.50899
546.72809
591.44761
591.19255
590.63019
589.77172
638.22024
637.93982
637.32101
636.37588
688.82168
688.51374
687.83415
686.79565
743.77834
743.44008
742.69317
741.55113
803.30838
802.9371
802.117
800.86224
868.11172
867.70424
866.80368
865.42486
938.58294
938.13611
937.14803
935.634
1015.1458
1014.6564
1013.5735
1011.9127
1098.2928
1097.7577
1096.5731
1094.7544
1188.9467
1188.363
1187.0697
1185.0821
1287.5318
1286.8969
1285.4896
1283.3238
1394.1729
1393.4854
1391.9607
1389.6105
1510.3702
1509.6291
1507.9843
1505.4444
1636.0484
1635.2544
1633.4902
1630.7598
1772.7395
1771.8942
1770.0133
1767.0939
1920.3103
1919.418
1917.4278
1914.3278
2080.3449
2079.4121
2077.3246
2074.0583
2254.5718
2253.609
2251.4445
2248.0378
2443.4969
2442.5208
2440.3133
2436.8115
2648.3032
2647.3399
2645.1435
2641.6206
2870.079
2869.1678
2867.0657
2863.6377
3108.7778
3107.9767
3106.0927
3102.9344
3366.2178
3365.6109
3364.1255
3361.4931
3640.1843
3639.8895
3639.0554
3637.3099
3932.0175
3932.2005
3932.3721
3932.0191
4237.9614
4238.8455
4240.4994
4242.2193
4556.9808
4558.8724
4562.6582
4567.3757
4885.8662
4889.1825
4895.9815
4904.944
5222.593
5227.9258
5238.9837
5253.9385
5561.4423
5569.6332
5586.7242
5610.1159
5893.1268
5905.4007
5931.215
5966.7215
6212.8123
6229.0977
6264.2213
6313.8847
6553.6036
6571.7547
6611.8218
6670.1638
6949.1901
6968.1613
7010.0967
7071.477
7395.0531
7415.4777
7460.4914
7526.1141
7883.851
7906.3788
7955.8613
8027.6877
8416.7886
8442.0345
8497.344
8577.3294
8992.5537
9021.1526
9083.6543
9173.7239
9610.5786
9643.3497
9714.7452
9817.2681
10270.895
10308.788
10391.115
10508.96
10971.416
11015.433
11110.834
11246.961
11713.249
11764.622
11875.666
12033.524
12494.123
12554.481
12684.536
12868.645
13310.148
13381.594
13534.985
13751.152
14156.245
14241.399
14423.514
14678.945
15029.924
15132.043
15349.561
15653.098
15916.348
16039.351
16300.235
16662.268
16808.096
16957.062
17271.533
17705.223
17689.359
17870.802
18251.855
18773.699
18539.298
18761.61
19225.805
19856.521
19331.312
19605.347
20173.851
20939.445
20032.114
20371.936
21071.817
22004.852
20600.576
21024.408
21890.205
23031.125
20989.418
21521.542
22598.484
23998.879
21135.563
21806.446
23150.079
24871.37
20973.394
21821.889
23501.708
25618.877
20436.611
21506.823
23600.39
26195.429
19470.824
20808.351
23397.314
26558.784
18068.356
19701.739
22848.225
26655.739
16324.409
18225.589
21928.527
26430.248
14512.893
16551.149
20678.983
25841.971
13044.618
15040.697
19325.035
24989.505
12108.856
14030.68
18260.641
24173.524
11510.341
13448.405
17648.194
23647.903
10997.678
13018.553
17302.79
23388.454
10490.007
12612.888
17044.428
23269.336
9990.3563
12218.985
16817.647
23215.131
9504.6816
11842.466
16618.991
23208.654
9044.0486
11493.313
16456.561
23257.637
8608.7073
11168.532
16321.303
23348.95
8197.3623
10865.986
16206.842
23468.751
7816.2976
10590.635
16113.759
23606.817
7462.9689
10341.834
16044.856
23765.929
7141.1406
10123.013
16005.419
23953.096
6845.5227
9929.351
15994.241
24174.209
6576.3073
9761.1216
16014.489
24440.987
6334.3031
9616.6382
16061.387
24749.457
6114.7877
9490.5317
16128.267
25094.856
5917.5288
9382.329
16212.72
25475.531
5742.0749
9292.3364
16313.419
25891.851
5588.4091
9220.3382
16424.141
26325.991
5452.2838
9164.7622
16543.484
26775.394
5332.5668
9127.4062
16673.733
27236.07
5226.2875
9108.5421
16817.841
27709.538
5130.7147
9108.6983
16980.106
28196.07
5042.6731
9127.687
17166.348
28700.657
4959.0748
9164.9575
17384.515
29232.909
4877.0633
9217.8349
17639.834
29797.105
4792.7764
9283.0388
17941.498
30409.706
4703.6759
9357.1669
18300.587
31091.984
4607.6054
9435.1979
18725.439
31869.065
4503.1462
9511.1472
19223.338
32769.601
4389.6888
9578.0334
19797.679
33824.932
4266.838
9629.8036
20457.622
35090.826
4136.7532
9660.2191
21200.781
36617.883
4001.4678
9663.5861
22020.189
38455.566
3861.903
9634.2007
22902.773
40651.131
3714.4432
9564.1738
23821.764
43235.151
3564.2571
9453.6429
24761.328
46256.064
3421.427
9311.5248
25713.238
49762.659
3287.025
9141.2823
26672.764
53827.845
3163.4766
8937.1247
27602.477
58424.581
3053.64
8697.4703
28463.38
63600.167
2956.8932
8445.3118
29299.782
69558.334
2869.7843
8195.4115
30161.926
76736.651
2787.6996
7948.4036
30988.706
84984.548
2715.0299
7716.4913
31595.429
92075.267
29095.381
100108.67
106856.26
99336.014
89739.497
80779.861
73100.316
66696.795
61508.789
57300.4
53877.006
51069.456
48753.733
46819.756
45181.47
43760.081
42490.764
41344.657
40296.427
39320.776
38399.138
37515.922
36671.265
35854.459
35062.114
34298.888
33566.591
32871.868
32215.111
31619.017
31077.096
30588.056
30152.423
29769.908
29421.117
29097.288
28793.806
28511.665
28269.139
28079.019
27945.59
27851.126
27807.567
27878.838
28153.011
28619.15
29043.657
29184.8
28989.294
28518.651
27831.547
26979.458
25999.179
24933.408
23805.392
22647.662
21474.09
20302.342
19146.596
18018.18
16925.841
15875.87
14867.819
13912.131
13006.685
12152.64
11350.257
10598.802
9895.7931
9243.0557
8639.1974
8083.5279
7577.4097
7119.6264
6715.2337
6350.6072
5992.1747
5626.7523
5264.3525
4910.9122
4570.1973
4242.831
3931.1174
3635.4072
3358.9679
3100.0556
2860.595
2638.5426
2433.7829
2245.1122
2071.2683
1911.6914
1764.6206
1628.4546
1503.3066
1387.6378
1281.5098
1183.4204
1093.2362
1010.5279
934.37273
864.27715
799.81853
740.60184
685.93294
635.5913
589.05938
546.08065
506.74945
473.99053
465.77166
497.62629
535.95165
577.88127
623.24613
672.3132
725.56439
783.22099
845.94832
914.13374
988.18769
1068.597
1156.2694
1251.6405
1354.8613
1467.4117
1589.2582
1721.9196
1865.3205
2021.0607
2190.9385
2375.635
2576.5947
2795.3076
3032.3333
3290.2851
3568.054
3868.3874
4189.2972
4532.0347
4896.31
5284.2813
5695.627
6129.315
6582.0054
7053.2507
7545.0073
8062.9134
8613.6258
9214.0106
9871.4313
10586.435
11368.394
12216.4
13127.371
14103.519
15149.632
16271.344
17475.575
18752.215
20105.069
21532.552
23031.676
24597.617
26224.404
27902.688
29632.161
31393.034
33184.055
34980.097
36776.6
38548.417
40260.865
41866.273
43333.481
44699.144
46039.634
47389.472
48742.072
50076.185
51385.309
52666.356
53938.163
55220.992
56480.294
57695.455
58852.167
59950.995
60978.52
61923.353
62785.025
63552.679
64223.639
64792.978
65269.864
65707.071
66177.466
66634.477
66886.375
66821.501
66407.721
65571.678
64242.332
62350.189
59828.301
56636.118
52668.19
47775.245
42318.62
36417.382
29914.121
23083.25
16417.592
10396.298
5933.7208
3216.174
2011.0858
1950.8409
3337.4951
9620.3374
468.16013
500.27803
538.89881
581.13968
626.85061
676.29762
729.97223
788.09689
851.34563
920.10937
994.80315
1075.9173
1164.3662
1260.5862
1364.7258
1478.276
1601.1996
1735.0284
1879.683
2036.7749
2208.107
2394.3428
2596.8995
2817.2171
3055.7677
3315.0619
3593.8211
3894.6105
4215.1896
4556.5286
4917.9934
5301.3145
5705.6631
6129.4266
6568.0688
7019.9227
7487.7599
7983.0987
8520.3177
9113.8968
9764.9725
10474.667
11249.33
12086.884
12987.048
13953.276
14990.39
16102.731
17296.785
18563.565
19908.193
21329.994
22826.849
24394.681
26027.869
27717.579
29463.88
31245.352
33059.38
34878.374
36694.825
38481.989
40202.54
41802.241
43252.451
44605.622
45956.497
47344.009
48754.511
50165.385
51569.383
52963.218
54366.532
55792.56
57206.543
58594.697
59947.415
61273.768
62569.293
63829.934
65070.906
66292.524
67507.521
68724.053
69966.941
71278.466
72681.187
74080.077
75323.018
76356.096
77146.673
77647.794
77815.469
77622.484
77036.92
75992.969
74287.312
71896.262
68834.038
64759.908
59181.409
51753.227
42514.311
32158.892
21563.292
12613.411
6939.6433
4635.2366
5054.7987
7868.8163
470.20698
502.54973
541.42223
583.92573
629.92924
679.69609
733.72683
792.24392
855.92878
925.17452
1000.3995
1082.0962
1171.1832
1268.0959
1372.9793
1487.3314
1611.109
1745.8515
1891.4723
2049.5865
2221.9924
2409.3281
2612.9727
2834.3042
3073.6958
3333.5341
3612.3584
3912.5176
4231.4916
4569.9141
4926.7342
5303.131
5697.6135
6107.7482
6527.3888
6954.077
7395.8331
7874.2353
8402.8906
8988.2812
9629.3129
10327.492
11087.151
11906.13
12786.047
13730.447
14743.28
15827.591
16989.327
18220.126
19525.402
20904.61
22355.733
23874.9
25456.433
27091.67
28780.193
30499.15
32243.356
33982.14
35702.957
37375.606
38959.64
40393.563
41654.882
42817.997
43999.349
45238.417
46512.098
47789.151
49060.939
50329.543
51618.157
52935.064
54249.22
55552.976
56837.049
58119.932
59410.143
60710.121
62049.345
63441.31
64905.128
66451.996
68103.325
69876.736
71765.496
73692.491
75580.383
77418.746
79187.896
80878.656
82481.864
83999.421
85412.08
86658.805
87632.92
88355.342
88653.239
88036.377
86144.885
82657.39
77279.424
69217.201
57215.239
40922.285
23607.447
11449.294
5716.502
4637.0578
471.92176
504.45268
543.53436
586.25498
632.50021
682.53049
736.85411
795.69296
859.73443
929.37291
1005.029
1087.1961
1176.7954
1274.2602
1379.7313
1494.7102
1619.147
1754.5837
1900.9242
2059.7817
2232.9428
2421.0162
2625.3362
2847.2126
3086.9157
3346.6978
3624.9122
3923.6736
4240.1694
4574.6608
4925.6289
5293.6029
5676.2924
6070.1605
6467.1734
6866.525
7287.6518
7756.3991
8276.912
8851.8573
9479.7324
10161.967
10901.508
11696.386
12549.158
13462.654
14439.41
15481.06
16592.538
17765.366
19004.069
20307.043
21671.114
23091.337
24560.795
26069.741
27615.597
29173.802
30735.011
32264.936
33743.786
35134.919
36393.07
37450.407
38296.134
39035.746
39811.551
40660.4
41545.479
42425.33
43292.353
44165.046
45067.596
46005.986
46955.232
47911.428
48867.937
49843.049
50859.894
51928.478
53074.834
54320.464
55675.515
57139.544
58722.753
60423.723
62232.271
64110.563
66036.602
68021.355
70059.145
72164.647
74350.028
76632.018
79006.935
81448.831
83937.679
86484.293
88978.079
91270.53
93343.652
95174.297
96603.09
96849.947
94555.734
88150.369
75049.27
52000.314
24951.584
11403.352
473.30884
505.99242
545.24174
588.13607
634.57423
684.8143
739.37067
798.46452
862.78779
932.73545
1008.7296
1091.2637
1181.2604
1279.1505
1385.07
1500.5218
1625.4486
1761.3916
1908.2444
2067.6136
2241.2708
2429.7938
2634.4715
2856.546
3096.1882
3355.5179
3632.7107
3929.6474
4243.2281
4573.3327
4917.9557
5276.9212
5647.0472
6023.3908
6396.0854
6771.9394
7180.7029
7642.4557
8154.2206
8717.4027
9330.5771
9994.7741
10711.907
11480.153
12302.222
13179.745
14113.58
15103.722
16153.559
17253.685
18406.522
19608.087
20852.446
22131.618
23435.332
24750.346
26068.968
27363.309
28617.397
29792.818
30860.765
31776.424
32488.388
32930.884
33117.521
33200.8
33357.766
33624.474
33953.796
34302.245
34667.911
35080.188
35552.219
36077.744
36631.515
37207.503
37805.844
38439.471
39133.437
39894.823
40732.811
41656.641
42673.548
43763.405
44929.513
46163.797
47461.239
48810.13
50210.11
51672.761
53195.968
54796.157
56488.529
58296.421
60238.25
62335.674
64649.325
67266.289
70278.45
73833.83
78146.806
83475.42
90072.766
98130.881
107598.92
118126.6
127722.48
130853.37
115656.3
79841.556
782.58152
973.5664
743.88858
794.97065
1277.3699
2529.6131
4968.1024
8686.448
13252.751
18422.673
23920.919
29178.312
34175.013
38865.578
43066.388
46804.71
49987.383
52571.307
54612.759
56178.427
57327.59
58127.849
58608.871
58912.603
59188.982
59409.575
59495.024
59415.586
59181.87
58805.766
58298.112
57673.762
56940.363
56111.976
55204.726
54221.494
53180.843
52108.628
51033.654
49931.113
48780.167
47585.307
46354.697
45110.197
43856.948
42563.198
41163.36
39629.06
37990.722
36291.797
34565.597
32836.64
31108.365
29404.813
27726.928
26093.232
24504.592
22970.575
21497.291
20090.176
18752.963
17488.138
16293.287
15179.23
14138.461
13164.72
12253.978
11405.856
10625.527
9911.3978
9251.1694
8643.992
8082.0354
7551.7179
7049.2796
6569.9608
6111.7677
5674.4858
5260.8913
4871.7625
4507.1879
4164.8135
3844.7555
3545.6208
3269.2556
3012.823
2777.3357
2560.1332
2360.611
2177.2586
2008.6229
1854.0187
1711.6578
1579.9534
1458.9811
1347.2346
1244.7462
1150.0466
1062.9845
983.12628
909.57026
841.83341
779.50914
722.21378
669.2882
620.51345
575.4132
533.72298
495.6213
463.96647
0.009046793
0.0013088842
0.0012095549
0.0012065942
0.0012067479
0.0012069477
0.0012071139
0.0012072605
0.0012074027
0.0012075415
0.001207679
0.0012078172
0.0012079571
0.0012080978
0.0012082392
0.0012083826
0.001208529
0.0012086781
0.001208829
0.0012089821
0.0012091374
0.0012092969
0.0012094572
0.0012096342
0.0012097845
0.0012100155
0.0012100985
0.0012104971
0.0012102048
0.0012113347
0.0012094547
0.0012128598
0.0012065801
0.0012183998
0.0012150933
0.0013399297
0.0020572732
0.014125462
0.73242957
52.295446
0.0089034969
0.0014206452
0.0012249952
0.0012150157
0.0012146635
0.0012148269
0.0012149602
0.0012150671
0.001215163
0.0012152549
0.001215346
0.0012154387
0.0012155345
0.0012156329
0.0012157341
0.001215839
0.0012159485
0.0012160631
0.0012161821
0.0012163074
0.0012164393
0.0012165818
0.0012167271
0.0012169083
0.0012170464
0.0012173272
0.0012173845
0.001217912
0.0012175968
0.0012189216
0.0012172126
0.0012210666
0.0012172405
0.0012364818
0.0012729933
0.0015557904
0.0032047258
0.026155003
0.9333528
51.26445
0.0087587535
0.001510696
0.0012323226
0.0012127816
0.0012113768
0.0012114017
0.0012115097
0.0012116043
0.0012116913
0.0012117747
0.0012118569
0.00121194
0.0012120253
0.0012121122
0.001212201
0.0012122925
0.0012123873
0.0012124863
0.0012125892
0.001212698
0.0012128141
0.0012129404
0.0012130772
0.0012132363
0.0012133999
0.0012136255
0.0012138127
0.0012141633
0.0012143498
0.0012149938
0.0012153095
0.001217573
0.0012228953
0.0012490746
0.0013480395
0.0017977622
0.0043817268
0.034663515
0.91805165
45.848563
0.0086140081
0.0015921611
0.0012420069
0.0012114898
0.0012086038
0.0012084388
0.001208529
0.0012086304
0.0012087294
0.0012088273
0.0012089264
0.0012090284
0.0012091346
0.0012092446
0.0012093592
0.001209479
0.001209605
0.0012097383
0.0012098798
0.001210032
0.0012101974
0.0012103796
0.001210583
0.0012108136
0.001211081
0.0012113872
0.0012117715
0.0012121874
0.0012128252
0.0012135117
0.0012152955
0.0012186236
0.0012320926
0.0012741709
0.0014332934
0.0020531497
0.0054448625
0.040790408
0.94520592
50.7637
0.0084718519
0.00166499
0.0012528183
0.0012103814
0.0012055659
0.0012051226
0.0012051846
0.0012052963
0.0012054119
0.0012055288
0.0012056488
0.0012057737
0.0012059046
0.0012060418
0.0012061862
0.0012063391
0.0012065015
0.0012066752
0.001206862
0.0012070655
0.0012072897
0.0012075401
0.0012078237
0.0012081484
0.0012085331
0.0012089731
0.0012095529
0.0012101702
0.0012112227
0.0012123768
0.0012155838
0.0012216515
0.0012437502
0.0013065411
0.0015236777
0.0023084433
0.0064403615
0.047816439
1.2443659
80.436246
0.0083325404
0.0017304998
0.0012644642
0.0012095336
0.0012023491
0.0012015084
0.0012015161
0.0012016319
0.001201762
0.0012018963
0.0012020357
0.001202182
0.0012023364
0.0012024997
0.0012026731
0.0012028583
0.001203057
0.0012032716
0.0012035052
0.0012037623
0.001204049
0.0012043729
0.0012047444
0.0012051758
0.0012056919
0.0012062994
0.0012070941
0.0012080119
0.0012095254
0.0012114819
0.0012163956
0.0012264808
0.001258293
0.001344481
0.0016184505
0.0025701425
0.007571718
0.063236364
2.4200367
175.06674
0.0081955902
0.0017898717
0.0012769604
0.0012092626
0.0011993062
0.0011979396
0.001197864
0.0011979797
0.0011981257
0.0011982803
0.0011984424
0.0011986138
0.0011987957
0.0011989893
0.0011991964
0.0011994193
0.0011996604
0.0011999229
0.0012002114
0.0012005319
0.0012008927
0.0012013045
0.0012017818
0.001202343
0.0012030199
0.0012038376
0.0012048976
0.0012062226
0.0012083088
0.0012114193
0.0012184699
0.0012336983
0.0012764042
0.0013879321
0.0017205782
0.0028706617
0.0093858262
0.10857691
6.5983066
426.39801
0.0080608734
0.001843923
0.0012901519
0.0012096342
0.0011965442
0.0011945142
0.0011943197
0.0011944288
0.0011945916
0.0011947691
0.0011949573
0.0011951575
0.0011953711
0.0011955999
0.0011958459
0.0011961125
0.0011964028
0.0011967212
0.0011970738
0.0011974688
0.001197917
0.0011984331
0.0011990365
0.0011997532
0.0012006243
0.0012016966
0.0012030874
0.0012049201
0.0012077461
0.0012123359
0.0012220545
0.001243375
0.001298284
0.0014373274
0.001837503
0.0032760878
0.012977793
0.2390251
19.607442
960.66717
0.0079294655
0.0018928475
0.0013036886
0.0012105584
0.0011940451
0.0011912154
0.0011908611
0.0011909545
0.0011911337
0.0011913361
0.0011915531
0.0011917852
0.0011920342
0.001192302
0.0011925918
0.0011929073
0.0011932531
0.0011936348
0.0011940604
0.0011945405
0.0011950892
0.0011957257
0.0011964753
0.0011973732
0.0011984726
0.0011998445
0.0012016355
0.0012040747
0.0012078297
0.0012141918
0.0012271305
0.0012552991
0.0013239248
0.0014934558
0.0019815783
0.0038949531
0.020631764
0.60948686
53.377948
1873.9265
0.0078002874
0.0019374946
0.0013174932
0.0012119948
0.0011917948
0.001188024
0.0011874634
0.0011875299
0.0011877248
0.0011879544
0.0011882036
0.0011884715
0.0011887602
0.0011890721
0.0011894111
0.0011897821
0.0011901908
0.0011906446
0.0011911535
0.0011917311
0.0011923954
0.0011931708
0.0011940897
0.0011951981
0.0011965643
0.0011982873
0.0012005564
0.0012037146
0.0012086042
0.0012170451
0.0012337911
0.0012695534
0.001354172
0.0015598415
0.00217832
0.0049749034
0.039366353
1.7872653
130.96489
3265.7066
0.0076733137
0.0019782676
0.0013314512
0.0012139235
0.0011898192
0.0011849679
0.0011841501
0.0011841761
0.0011843855
0.0011846449
0.00118493
0.0011852383
0.0011855717
0.0011859335
0.0011863282
0.001186762
0.0011872422
0.0011877781
0.0011883821
0.0011890713
0.001189868
0.001190803
0.0011919169
0.0011932684
0.0011949441
0.001197076
0.0011999087
0.0012039121
0.0012101526
0.0012210003
0.0012421933
0.001286445
0.0013902791
0.0016427683
0.0024669159
0.0070336793
0.089446577
5.4461849
290.14816
5225.8934
0.0075485164
0.0020155098
0.0013454702
0.0012163264
0.0011881472
0.0011820812
0.0011809517
0.0011809213
0.0011811432
0.0011814349
0.00118176
0.0011821136
0.0011824974
0.0011829152
0.0011833728
0.0011838777
0.0011844389
0.0011850679
0.00118578
0.0011865961
0.0011875438
0.0011886608
0.0011899977
0.0011916277
0.00119366
0.0011962647
0.001199756
0.0012047478
0.0012125761
0.0012262037
0.0012525787
0.001306674
0.0014341556
0.0017518587
0.002909536
0.011091546
0.22545469
15.588401
580.84668
7760.6093
0.0074258802
0.0020495313
0.0013594841
0.0012191938
0.0011868145
0.001179408
0.00117791
0.001177805
0.0011780366
0.0011783629
0.0011787325
0.0011791367
0.001179577
0.0011800579
0.0011805863
0.0011811713
0.0011818239
0.0011825579
0.0011833923
0.001184352
0.0011854707
0.0011867943
0.0011883846
0.001190332
0.0011927723
0.0011959215
0.0012001772
0.0012063199
0.0012160049
0.0012328581
0.0012652857
0.0013313054
0.0014887268
0.0019019048
0.0036255894
0.019728375
0.62049662
40.211052
1046.003
10677.764
0.0073054101
0.0020806238
0.0013734653
0.0012225434
0.0011858842
0.0011770228
0.0011750988
0.0011748995
0.0011751369
0.0011755004
0.0011759191
0.0011763799
0.0011768835
0.0011774352
0.0011780431
0.0011787183
0.0011794737
0.0011803261
0.001181298
0.0011824196
0.0011837312
0.001185288
0.0011871649
0.0011894723
0.0011923776
0.0011961503
0.0012012872
0.0012087619
0.0012206047
0.0012412119
0.0012807233
0.0013616413
0.0015580303
0.0021174543
0.0048756295
0.040707902
1.836233
92.534459
1713.3205
13843.268
0.0071871641
0.0021090844
0.0013874466
0.0012264503
0.001185479
0.0011750641
0.0011726584
0.0011723436
0.0011725827
0.0011729856
0.0011734586
0.0011739825
0.0011745571
0.0011751882
0.0011758854
0.0011766617
0.0011775326
0.001178518
0.0011796445
0.0011809479
0.0011824761
0.0011842952
0.0011864949
0.0011892088
0.0011926409
0.0011971234
0.0012032682
0.0012122715
0.0012266043
0.0012515854
0.0012994857
0.0013993749
0.0016486001
0.0024413592
0.0072378479
0.097490855
5.3558076
191.82361
2604.8388
17221.959
0.0070721538
0.002135104
0.0014014821
0.001231073
0.0011858357
0.0011737996
0.0011708639
0.0011704134
0.0011706493
0.0011710939
0.0011716264
0.0011722203
0.0011728739
0.0011735934
0.0011743902
0.0011752793
0.001176279
0.0011774125
0.0011787113
0.0011802172
0.001181987
0.0011840984
0.0011866584
0.0011898265
0.0011938488
0.001199129
0.0012064108
0.0012171457
0.0012343226
0.0012643912
0.0013223928
0.0014466361
0.0017701564
0.0029446928
0.011958637
0.25712688
14.260216
359.64519
3717.2996
20721.429
0.0069599385
0.0021593781
0.0014160153
0.001236842
0.0011874142
0.0011737051
0.0011701951
0.0011695887
0.0011698167
0.0011703056
0.0011709038
0.0011715758
0.0011723179
0.0011731369
0.0011740456
0.0011750615
0.0011762059
0.0011775059
0.001178998
0.0011807313
0.001182772
0.0011852115
0.0011881757
0.0011918537
0.0011965391
0.0012027164
0.0012112802
0.0012239778
0.0012444179
0.0012804788
0.0013509575
0.0015073532
0.0019406187
0.0037804377
0.022518032
0.73724358
34.276897
619.19079
5066.7813
24196.378
0.0068510661
0.0021827136
0.0014317835
0.0012445686
0.0011910926
0.0011756913
0.0011715731
0.0011707928
0.0011710083
0.0011715445
0.0011722155
0.0011729751
0.001173817
0.0011747482
0.0011757833
0.0011769426
0.0011782505
0.0011797383
0.0011814486
0.0011834384
0.0011857845
0.0011885934
0.0011920122
0.001196263
0.001201692
0.0012088737
0.0012188723
0.0012337758
0.001257939
0.0013010685
0.0013871132
0.0015867422
0.0021904211
0.0052854155
0.049496124
2.164226
74.407334
991.65938
6648.2608
27516.052
0.0067463206
0.0022065268
0.0014502188
0.0012557838
0.0011984812
0.001181408
0.0011766612
0.0011756919
0.0011758907
0.0011764776
0.0011772296
0.001178088
0.0011790432
0.0011801023
0.0011812816
0.0011826044
0.0011840986
0.0011858006
0.0011877593
0.0011900407
0.0011927337
0.0011959614
0.0011998945
0.0012047907
0.0012110538
0.0012193559
0.0012309486
0.0012483098
0.0012766958
0.0013281912
0.0014340856
0.0016934124
0.0025748347
0.0082471365
0.12617429
5.9956035
146.31394
1487.8737
8412.6479
30585.341
0.0066471611
0.0022334005
0.0014739955
0.0012732692
0.0012124424
0.0011937575
0.0011883751
0.0011872039
0.0011873813
0.0011880227
0.0011888653
0.0011898363
0.0011909218
0.0011921286
0.0011934748
0.0011949867
0.0011966965
0.001198646
0.0012008916
0.0012035092
0.0012066013
0.0012103096
0.0012148303
0.0012204602
0.0012276639
0.0012372177
0.0012505769
0.0012706659
0.0013038453
0.0013653286
0.0014971007
0.0018424548
0.0031965197
0.014567304
0.35455049
15.032638
262.73905
2111.3295
10308.209
33373.787
0.0065564962
0.0022680328
0.0015079404
0.0013019287
0.0012379364
0.0012177261
0.0012117056
0.0012103166
0.0012104651
0.0012111642
0.0012121089
0.0012132103
0.0012144486
0.0012158295
0.0012173729
0.0012191085
0.0012210731
0.0012233147
0.0012258984
0.0012289114
0.0012324716
0.0012367415
0.0012419455
0.0012484221
0.0012566995
0.0012676615
0.0012829787
0.0013060783
0.0013446771
0.0014181458
0.0015839463
0.0020586564
0.0042720201
0.029692406
1.0387396
33.796484
435.44362
2859.9942
12293.172
35868.437
0.0064796016
0.0023191686
0.0015608573
0.0013505005
0.0012836652
0.001261988
0.0012553026
0.0012536623
0.0012537649
0.0012545222
0.0012555834
0.0012568395
0.0012582625
0.0012598559
0.0012616408
0.0012636503
0.0012659268
0.0012685255
0.0012715214
0.0012750153
0.0012791427
0.00128409
0.0012901132
0.0012975956
0.0013071312
0.0013197096
0.0013372176
0.0013636279
0.0014083068
0.0014962478
0.0017078023
0.0023889699
0.006327093
0.071583691
2.9459495
68.679032
675.05404
3744.5736
14302.519
38097.246
0.0064277753
0.0024010018
0.0016468529
0.0014328937
0.0013633996
0.0013402182
0.0013327749
0.0013308079
0.0013308247
0.0013316324
0.0013328256
0.0013342686
0.0013359207
0.0013377807
0.0013398699
0.0013422255
0.0013448955
0.0013479438
0.0013514574
0.0013555532
0.0013603879
0.0013661756
0.0013732084
0.0013819184
0.001392966
0.0014074404
0.0014274279
0.0014574533
0.0015088255
0.0016141468
0.0018884128
0.0029130821
0.010569701
0.19550555
7.559187
126.27699
984.59493
4737.2978
16301.853
40077.326
0.0064195663
0.0025370911
0.0017891851
0.0015718523
0.0014995032
0.0014745294
0.0014660778
0.0014636176
0.0014634617
0.0014642929
0.0014656333
0.001467307
0.0014692527
0.0014714598
0.0014739482
0.0014767583
0.0014799452
0.0014835831
0.001487774
0.0014926546
0.0014984076
0.0015052814
0.0015136103
0.0015238825
0.0015368275
0.0015536255
0.0015765294
0.0016105694
0.0016692412
0.0017955311
0.0021587893
0.0037867173
0.020126537
0.56206952
17.235344
212.06502
1358.7532
5787.9762
18243.084
41979.822
0.0064853283
0.0027643152
0.0020244795
0.0018032606
0.0017272185
0.0016997179
0.0016897235
0.0016864372
0.0016859327
0.0016867222
0.0016882181
0.0016901811
0.001692514
0.0016951893
0.0016982211
0.0017016527
0.0017055468
0.0017099909
0.0017151059
0.0017210547
0.0017280536
0.0017363945
0.0017464645
0.0017588196
0.0017742661
0.0017940682
0.0018205978
0.0018592667
0.0019258294
0.0020773109
0.0025727309
0.0053457513
0.044444012
1.5656168
35.012271
329.3548
1788.7445
6867.3065
20096.068
43815.171
0.0066719385
0.0031377108
0.0024080694
0.0021817028
0.0021002692
0.0020688535
0.0020563405
0.0020516265
0.0020504454
0.0020510547
0.0020526936
0.0020550187
0.0020578724
0.0020611953
0.0020649893
0.0020692981
0.0020741931
0.0020797792
0.0020862028
0.0020936623
0.0021024191
0.0021128233
0.0021253308
0.0021405844
0.0021594816
0.0021833703
0.0022146894
0.0022590554
0.0023344038
0.002516696
0.0032229754
0.0083982351
0.11351054
3.9998497
64.306828
480.65182
2272.9323
7987.0212
21873.371
45394.818
0.0070498781
0.003737782
0.0030217903
0.0027885759
0.0026991173
0.0026615812
0.0026449679
0.0026378256
0.0026353963
0.0026355575
0.0026372771
0.0026400451
0.0026436025
0.0026478348
0.0026527186
0.0026582942
0.0026646422
0.0026718913
0.0026802228
0.0026898856
0.0027012033
0.002714607
0.0027306443
0.0027500743
0.0027739099
0.0028035983
0.002841616
0.0028936485
0.0029800063
0.003203919
0.0042770851
0.014969746
0.31557376
9.2020311
108.69287
669.3001
2817.0568
9172.3555
23586.034
46659.189
0.0077154525
0.0046692267
0.0039730548
0.003731843
0.0036312162
0.0035846509
0.0035617056
0.0035506427
0.0035460548
0.0035452961
0.003546936
0.0035502118
0.0035547033
0.0035602048
0.0035666463
0.0035740578
0.0035825285
0.0035922201
0.0036033617
0.0036162753
0.0036313705
0.0036491924
0.0036704102
0.0036959383
0.0037269348
0.003764977
0.0038125851
0.0038754687
0.0039775053
0.0042671523
0.0060538979
0.030750682
0.87481574
18.987179
171.24377
897.44386
3420.8075
10408.148
25215.371
47636.193
0.0088177054
0.0060914885
0.0054261695
0.005177941
0.0050632669
0.0050042929
0.0049720837
0.0049549635
0.0049468067
0.0049443266
0.0049455483
0.0049493481
0.0049550606
0.0049623352
0.0049710222
0.0049811287
0.0049927503
0.0050060945
0.005021457
0.0050392655
0.0050600499
0.0050845138
0.0051134866
0.0051480841
0.005189634
0.0052398661
0.0053014068
0.0053802007
0.0055074105
0.0059251205
0.0093483305
0.0746865
2.285569
35.727597
255.50587
1169.502
4091
11677.647
26754.466
48370.938
0.010522271
0.0081687596
0.0075540765
0.007305744
0.0071769304
0.0071030823
0.0070586427
0.0070329288
0.007019333
0.0070139503
0.0070141651
0.0070183915
0.0070256256
0.0070353046
0.0070471548
0.0070611419
0.0070773632
0.0070960867
0.0071176988
0.0071427725
0.007172
0.0072062926
0.0072466754
0.0072945005
0.0073512649
0.0074188365
0.0075000824
0.007602307
0.0077739926
0.0084755201
0.01602457
0.20164819