/*--------------------------------*- C++ -*----------------------------------*\
| =========                 |                                                 |
| \\      /  F ield         | OpenFOAM: The Open Source CFD Toolbox           |
|  \\    /   O peration     | Version:  2.3.0                                 |
|   \\  /    A nd           | Web:      www.OpenFOAM.org                      |
|    \\/     M anipulation  |                                                 |
\*---------------------------------------------------------------------------*/
FoamFile
{
    version     2.0;
    format      ascii;
    class       volScalarField;
    location    "0.2";
    object      H2O;
}
// * * * * * * * * * * * * * * * * * * * * * * * * * * * * * * * * * * * * * //

dimensions      [0 0 0 0 0 0 0];

internalField   nonuniform List<scalar> 
5835
(
8.6446939e-09
8.7823692e-08
1.0340836e-06
8.0244336e-06
3.7605911e-11
3.1112749e-10
3.2750539e-09
2.0336759e-08
1.330404e-13
9.5701105e-13
0.0942
0.0942
0.0942
0.0942
0.0942
0.0942
0.0942
0.0942
0.0942
0.0942
0.0942
0.0942
0.0942
0.0942
0.0942
0.0942
0.0942
0.0942
0.0942
0.0942
9.4428232e-12
5.1951297e-11
4.2121304e-16
2.6955757e-15
2.5426788e-14
1.3281194e-13
1.2480136e-18
7.1814651e-18
6.5406596e-17
3.3963968e-16
3.5378622e-21
1.8388658e-20
1.6286366e-19
8.6859488e-19
9.7500906e-24
4.5892608e-23
3.9684341e-22
2.2208819e-21
2.6471033e-26
1.1291956e-25
9.5449641e-25
5.6764419e-24
9.9133814e-29
3.0434767e-28
2.3116844e-27
1.4531986e-26
2.6532607e-29
2.7212975e-29
3.2820389e-29
6.6092355e-29
2.4768355e-29
2.4931962e-29
2.5661555e-29
2.7313e-29
2.3188112e-29
2.3321548e-29
2.3937742e-29
2.5366508e-29
2.1600871e-29
2.1708672e-29
2.2229581e-29
2.3515163e-29
2.0005538e-29
2.0090881e-29
2.0523754e-29
2.1666077e-29
1.8401513e-29
1.8467381e-29
1.8819897e-29
1.9819868e-29
1.6788175e-29
1.6837382e-29
1.7117568e-29
1.797744e-29
1.5164874e-29
1.5200087e-29
1.5416263e-29
1.6139736e-29
1.3530956e-29
1.355469e-29
1.3715345e-29
1.4307767e-29
1.1885737e-29
1.1900365e-29
1.2014089e-29
1.2482599e-29
1.0228538e-29
1.0236299e-29
1.031157e-29
1.0665327e-29
8.5586268e-30
8.5616317e-30
8.6068775e-30
8.856938e-30
6.8753427e-30
6.875444e-30
6.8986646e-30
7.0587799e-30
5.1786912e-30
5.1774788e-30
5.1863434e-30
5.271641e-30
3.4672298e-30
3.4661057e-30
3.4676971e-30
3.4978223e-30
1.7372702e-30
1.737321e-30
1.737959e-30
1.7408255e-30
0.0942
0.0942
0.0942
0.0942
0.0942
0.0942
0.0942
0.0942
0.0942
0.0942
0.0942
0.0942
0.0942
0.0942
0.0942
0.0942
0.0942
0.0942
0.0942
0.0942
0.0942
0.0942
0.0942
0.0942
0.0942
0.0942
0.0942
0.0942
0.0942
0.0942
0.0942
0.0942
0.0942
0.0942
0.0942
0.0942
0.0942
0.0942
0.0942
0.0942
0.0942
0.0942
0.0942
0.0942
0.0942
0.0942
0.0942
0.0942
0.0942
0.0942
0.0942
0.0942
0.0942
0.0942
0.0942
0.0942
0.0942
0.0942
0.0942
0.0942
0.0942
0.0942
0.0942
0.0942
0.0942
0.0942
0.0942
0.0942
0.0942
0.0942
0.0942
0.0942
0.0942
0.0942
0.0942
0.0942
0.0942
0.0942
0.0942
0.0942
0.0942
0.0942
0.0942
0.0942
0.0942
0.094199993
0.094199998
0.0942
0.094200002
0.094200006
0.094199665
0.094199886
0.094199986
0.094200083
0.094200375
0.094184115
0.094194314
0.094199069
0.09420424
0.094222054
0.093451329
0.0939175
0.094130073
0.094389693
0.095479046
0.050937827
0.050906717
0.050838033
0.050733761
0.051804402
0.051771996
0.051700448
0.051591834
0.052897521
0.052863453
0.052788235
0.052674054
0.05406988
0.054033996
0.053954772
0.053834521
0.055291847
0.055254014
0.055170487
0.055043718
0.056553067
0.056513161
0.056425068
0.056291382
0.057858372
0.057816254
0.057723284
0.057582212
0.059204535
0.059160065
0.059061907
0.058912978
0.060599624
0.060552636
0.060448924
0.060291583
0.062043926
0.061994245
0.061884589
0.061718248
0.063538348
0.063485784
0.063369766
0.063193792
0.065084528
0.065028875
0.064906042
0.064719753
0.06669127
0.066632287
0.066502114
0.06630472
0.068358119
0.068295546
0.068157472
0.067948131
0.070079809
0.07001338
0.06986683
0.069644684
0.071871518
0.071800909
0.071645187
0.071409192
0.073724293
0.073649183
0.073483593
0.073232707
0.075651067
0.075571085
0.075394808
0.075127799
0.077641669
0.07755645
0.077368676
0.07708432
0.079707882
0.079617011
0.079416803
0.079113684
0.081862709
0.081765708
0.081551984
0.08122846
0.084104893
0.084001252
0.083772858
0.083427185
0.086442156
0.086331293
0.086086929
0.085717147
0.088883055
0.088764299
0.088502485
0.088106378
0.091426555
0.09129916
0.091018286
0.090593453
0.094093721
0.093956776
0.093654891
0.093198442
0.096868912
0.09672146
0.096396544
0.095905501
0.099775075
0.099615956
0.099265559
0.098736318
0.10279155
0.10261957
0.10224118
0.10167006
0.10592797
0.10574178
0.10533253
0.10471533
0.10918012
0.10897827
0.10853507
0.10786728
0.11256421
0.11234506
0.11186442
0.11114091
0.11607451
0.11583647
0.1153154
0.11453127
0.11966651
0.11941163
0.11885822
0.1180209
0.12242769
0.12233052
0.12205764
0.12145521
0.12258995
0.12258193
0.12255268
0.12246794
0.12245043
0.12245888
0.12247376
0.12248355
0.12226538
0.12227916
0.12230792
0.12234624
0.12206755
0.12208395
0.12211921
0.12216992
0.12186211
0.12188026
0.12191965
0.12197749
0.12165107
0.12167082
0.12171388
0.12177776
0.12143469
0.121456
0.12150258
0.12157204
0.12121298
0.12123586
0.12128588
0.12136058
0.12098617
0.12101073
0.12106444
0.12114466
0.12075315
0.12077958
0.12083733
0.12092359
0.12051376
0.12054225
0.12060448
0.1206974
0.12026778
0.12029857
0.12036576
0.120466
0.12001486
0.1200482
0.12012088
0.12022916
0.11975324
0.11978945
0.11986825
0.11998546
0.11948396
0.11952338
0.11960905
0.11973619
0.11920505
0.11924812
0.11934155
0.11947987
0.11891588
0.11896311
0.11906537
0.1192163
0.11861573
0.11866776
0.1187801
0.11894535
0.11830372
0.11836129
0.11848526
0.11866683
0.11797854
0.11804261
0.11818011
0.11838045
0.11763796
0.1177098
0.1178633
0.11808547
0.11727552
0.11735703
0.11753013
0.1177784
0.11688511
0.1169793
0.1171775
0.11745801
0.11644482
0.11655768
0.11679137
0.11711489
0.11591098
0.11605629
0.11634789
0.11673556
0.11515839
0.1153741
0.11578112
0.11628206
0.1138534
0.11425431
0.11493774
0.1156755
0.11108394
0.11202377
0.11344801
0.11474437
0.10468415
0.10709507
0.11048286
0.11314024
0.092190814
0.09721793
0.10465694
0.11028807
0.077839703
0.084147652
0.095482735
0.10567188
0.067196561
0.073289648
0.085522318
0.099479414
0.059218343
0.064985288
0.076920088
0.092519742
0.052697104
0.058265556
0.069808033
0.085770288
0.047083999
0.052552426
0.0638148
0.079713075
0.04208164
0.047503457
0.058575343
0.074286864
0.037615461
0.043017845
0.053954733
0.069447039
0.033604928
0.038999346
0.049834445
0.065118648
0.02995937
0.035347019
0.046098777
0.061208458
0.026678651
0.032053261
0.04272777
0.05769785
0.023697317
0.029047326
0.039639537
0.054491088
0.021020058
0.026330871
0.036829746
0.05157114
0.018592286
0.023846847
0.034237182
0.048866625
0.016395226
0.02157536
0.031842601
0.046357618
0.014432477
0.019519467
0.029649541
0.044047505
0.012661438
0.017634601
0.027611101
0.041888245
0.011067243
0.01590564
0.025712304
0.039867544
0.0096360862
0.014319166
0.023939676
0.037974556
0.0083698686
0.012879722
0.022298025
0.036213938
0.007238197
0.011556753
0.02075338
0.034549138
0.0062330353
0.010345094
0.019300792
0.03297434
0.0053399812
0.0092322263
0.017926407
0.031472427
0.0045491715
0.0082110594
0.016623512
0.030034945
0.0038514459
0.0072752201
0.015386804
0.0286559
0.0032383087
0.0064187385
0.014211422
0.027329342
0.0027054639
0.0056410663
0.013099396
0.026054764
0.0022412146
0.004931037
0.012038835
0.024817346
0.0018391158
0.0042842646
0.01102741
0.023614358
0.0014932221
0.003696552
0.010062304
0.022441178
0.0011980227
0.003164001
0.0091405855
0.021292405
0.00094838336
0.0026831291
0.0082596009
0.020163161
0.00073793905
0.0022477848
0.0074116279
0.019045044
0.00056426996
0.0018592503
0.006602053
0.017947308
0.00042300661
0.0015150914
0.0058289267
0.016866605
0.00030990941
0.0012128616
0.0050900836
0.015796828
0.00022091734
0.00095005461
0.0043837782
0.014728538
0.00015264635
0.00072550193
0.0037132284
0.013658937
0.00010170918
0.00053782662
0.0030828551
0.012583248
6.451263e-05
0.00038309845
0.0024904094
0.011476738
3.8621878e-05
0.00026001041
0.0019428175
0.010318974
2.1480994e-05
0.00016571337
0.0014467694
0.0090926082
1.0826168e-05
9.7053593e-05
0.0010125228
0.0077944261
4.7217097e-06
5.0159529e-05
0.00064591223
0.0064008379
1.6075793e-06
2.0890817e-05
0.00034871709
0.0048220728
3.3589393e-07
5.5150989e-06
0.00012913421
0.002944134
0.025164804
0.024193641
0.023225315
0.023127666
0.023598293
0.024321424
0.025127367
0.025967933
0.026843364
0.027746701
0.028658693
0.029570163
0.030492927
0.031435242
0.032403166
0.033387459
0.034397699
0.035445021
0.03653773
0.037680842
0.038874992
0.040134734
0.041462794
0.042863195
0.0443407
0.045904168
0.047571845
0.049347693
0.051266801
0.053323031
0.055521798
0.057871741
0.060421095
0.063167527
0.066130898
0.069388163
0.072953436
0.076894989
0.081155919
0.085697514
0.090445368
0.095330099
0.10035013
0.10518392
0.10928975
0.11231244
0.11424027
0.11539379
0.11611443
0.11661725
0.1170131
0.11735534
0.11767116
0.11796979
0.11825851
0.11853773
0.11881028
0.11907656
0.11933667
0.11959056
0.11983825
0.12007977
0.12031645
0.12054691
0.12077244
0.12099326
0.12120941
0.12142079
0.12162786
0.12182851
0.12202245
0.12220759
0.12236944
0.12247042
0.12233053
0.12076916
0.11733124
0.11389075
0.11054936
0.10732079
0.10420988
0.10120204
0.098302381
0.09550267
0.092823794
0.090244566
0.0877809
0.085413133
0.083142843
0.080962211
0.078864125
0.076850133
0.074907843
0.07302599
0.071214711
0.069461585
0.067775557
0.066141965
0.064566125
0.063048642
0.061581017
0.060161754
0.05879007
0.05746577
0.056181022
0.054939054
0.053735226
0.05257976
0.051502125
0.050647631
0.049385574
0.050188144
0.051199461
0.052282617
0.053408971
0.054568806
0.055765992
0.056997274
0.058269522
0.059582558
0.060936687
0.062332883
0.063778449
0.065272268
0.066808909
0.06840098
0.070039611
0.071735112
0.073477482
0.075275863
0.077140199
0.079067951
0.081064101
0.083133994
0.085274565
0.087500696
0.089796363
0.092176853
0.094621577
0.097134492
0.099708654
0.1023537
0.10506459
0.10783445
0.11065679
0.11353612
0.11643952
0.11923343
0.121209
0.12175192
0.12202161
0.12213304
0.12204966
0.1219364
0.12181523
0.12169074
0.12156242
0.12142177
0.12127094
0.12111908
0.12096761
0.12081737
0.12066912
0.12052357
0.12038131
0.12024261
0.12010725
0.11997627
0.11984873
0.11972529
0.11960461
0.11948652
0.11937166
0.11926172
0.11916098
0.11907412
0.11900181
0.11894132
0.11888982
0.11884532
0.11880759
0.11877796
0.11875592
0.11873973
0.11873196
0.11873574
0.11875074
0.11877699
0.11881541
0.11886658
0.11893169
0.11901207
0.11910806
0.11921749
0.11933605
0.11944413
0.11949409
0.11947704
0.11948658
0.11954201
0.11963795
0.11977083
0.11993291
0.12009496
0.1201594
0.11983734
0.11924685
0.11741815
0.110092
0.10156265
0.092354106
0.082584345
0.072891531
0.063232259
0.055189413
0.049936956
0.04766542
0.04785476
0.050374506
0.059096071
0.049739995
0.050557034
0.0515868
0.052690067
0.053837943
0.055020579
0.05624205
0.05749911
0.05879889
0.060141312
0.061526804
0.062956477
0.064437948
0.065970225
0.067547894
0.06918411
0.070869972
0.072616359
0.074413229
0.076270295
0.078198149
0.08019449
0.082264823
0.084415087
0.086642515
0.088963149
0.091360853
0.093852324
0.096416729
0.099058972
0.10177242
0.10456786
0.10744039
0.11038302
0.11338865
0.11644961
0.11943113
0.12145849
0.12209586
0.12218914
0.12217435
0.12209929
0.12195662
0.12180168
0.12164271
0.12148166
0.12131829
0.12114965
0.12097617
0.12080214
0.12062775
0.12045365
0.12028046
0.12010888
0.1199395
0.11977273
0.11960803
0.11944664
0.11928727
0.11913041
0.11897392
0.11881661
0.1186577
0.11849754
0.11833971
0.11818967
0.11804928
0.1179162
0.11778714
0.11765869
0.11752923
0.11740306
0.11728442
0.11717553
0.11707862
0.11699257
0.11691694
0.11685032
0.11679471
0.11675211
0.11672443
0.11671579
0.11672944
0.11676606
0.11682622
0.11690763
0.11700423
0.11711814
0.11726493
0.11744764
0.11766318
0.11791171
0.11819244
0.11849988
0.11881791
0.11911893
0.11941137
0.11958263
0.11936543
0.11919641
0.11907743
0.11858945
0.11433829
0.1032917
0.091706608
0.082261267
0.076514594
0.074947042
0.077244109
0.08388911
0.050050864
0.050880665
0.05192673
0.053047762
0.054214665
0.055417466
0.056660431
0.057940319
0.059264498
0.060632981
0.06204631
0.063505719
0.065019113
0.066585618
0.068199843
0.069875441
0.071603494
0.073395398
0.075241085
0.077150791
0.079135705
0.081193759
0.08333096
0.085553813
0.087859874
0.090266293
0.09275691
0.095349794
0.098023989
0.10078537
0.1036277
0.1065629
0.10958617
0.11269021
0.11586603
0.11905271
0.12149093
0.12219147
0.12231534
0.12223944
0.12211955
0.12197433
0.12180262
0.12162461
0.1214433
0.12125964
0.12107356
0.12088402
0.12069065
0.12049601
0.12029971
0.12010223
0.11990412
0.11970601
0.11950847
0.11931193
0.11911552
0.11892056
0.11872517
0.1185294
0.11832937
0.11812135
0.11790048
0.11766167
0.11740327
0.11712889
0.116842
0.11654203
0.11622534
0.11588323
0.11550646
0.1151034
0.11468871
0.11427389
0.11386924
0.11346983
0.11307498
0.11267642
0.11227732
0.11188469
0.11150121
0.11114029
0.11081573
0.11053911
0.11031578
0.11015434
0.11005712
0.11002849
0.11007596
0.11020423
0.11041161
0.11070009
0.11107327
0.11152932
0.11205964
0.11265557
0.11331862
0.1140292
0.11475876
0.11554154
0.11635607
0.11714016
0.11768885
0.11799636
0.11849261
0.11850479
0.11137736
0.099275975
0.092414709
0.09185502
0.050316897
0.051157673
0.052217771
0.053354097
0.054537394
0.055757578
0.057019081
0.058318669
0.059663915
0.061054913
0.062492307
0.063977442
0.065518479
0.067114652
0.068760596
0.070470406
0.072235155
0.074066694
0.075954936
0.077910581
0.079945347
0.082057387
0.084253168
0.086539731
0.088914957
0.091397031
0.093969837
0.096652741
0.099424758
0.10229273
0.10525086
0.10831214
0.11147188
0.11472197
0.11804242
0.12118318
0.12222001
0.12238199
0.12231657
0.12217265
0.12200853
0.12183179
0.12164261
0.12144894
0.12125166
0.12105123
0.12084766
0.12064053
0.12042906
0.1202151
0.11999785
0.11977764
0.11955488
0.11933005
0.11910363
0.11887589
0.11864549
0.1184136
0.11817729
0.11793523
0.11767986
0.11740087
0.11708171
0.11669878
0.11622735
0.11565381
0.11497917
0.11420814
0.11334011
0.11235029
0.11119754
0.10989481
0.10849102
0.10703599
0.10557926
0.10411047
0.10263078
0.10110853
0.099545522
0.097963254
0.096362464
0.09477978
0.093255691
0.091834152
0.09052325
0.089347561
0.088310717
0.087419507
0.086683925
0.086114786
0.08571986
0.085509188
0.085506866
0.085733808
0.086208539
0.08695457
0.088016136
0.089420157
0.091154747
0.093178314
0.095413328
0.097797516
0.1002892
0.10291529
0.10566607
0.10852354
0.11139236
0.11447543
0.1153517
0.10246073
0.05053693
0.05138682
0.052458579
0.05360762
0.054804555
0.056039204
0.057316142
0.058632138
0.059994939
0.061404705
0.062862171
0.064368778
0.065932906
0.067553887
0.069226385
0.07096487
0.072760406
0.074625232
0.07654924
0.078543516
0.080620231
0.082777733
0.085022901
0.087363261
0.089797013
0.092343277
0.094986033
0.097745816
0.10060169
0.10356138
0.10661956
0.10979024
0.11306874
0.11644504
0.11987266
0.12210968
0.12243989
0.12239417
0.12225376
0.12207893
0.12189298
0.12169917
0.12149785
0.12129236
0.12108258
0.12086872
0.12065077
0.12042851
0.12020081
0.1199692
0.11973256
0.11949098
0.11924468
0.11899389
0.11873881
0.1184794
0.11821358
0.11794185
0.11765929
0.11736124
0.11703199
0.11664468
0.1161496
0.11546272
0.11446909
0.1130685
0.1112361
0.1090087
0.10644748
0.10353806
0.10018946
0.096480764
0.092632055
0.088871048
0.085389784
0.082186019
0.079265079
0.076554629
0.074032802
0.0717026
0.069521633
0.067488179
0.065602203
0.06387579
0.062279545
0.060812132
0.059457657
0.058208991
0.05706316
0.056017737
0.055071976
0.05421692
0.053454657
0.052781671
0.052190034
0.051670159
0.05121544
0.050825673
0.050483244
0.050169573
0.049873702
0.049615082
0.049433222
0.049378823
0.049527582
0.050078087
0.051470771
0.054600852
0.061381307
0.073641379
0.029065641
0.02790803
0.028968105
0.030216989
0.032665676
0.037329298
0.044468787
0.052980787
0.061735984
0.070888712
0.08006674
0.088582097
0.096326956
0.10293062
0.10890357
0.11347906
0.11498122
0.11578633
0.11643314
0.11706329
0.11771481
0.11840941
0.11915966
0.11986558
0.12011716
0.12007005
0.11995866
0.11984571
0.1197442
0.1196568
0.11958479
0.11952743
0.11948449
0.11945414
0.11943645
0.11943143
0.1194387
0.11944641
0.11944745
0.11945054
0.11946045
0.11947778
0.1195029
0.11953761
0.11958447
0.1196461
0.11972216
0.11980855
0.11990111
0.11999824
0.12009889
0.12020311
0.12031195
0.1204246
0.1205419
0.12066304
0.1207878
0.12091613
0.12104749
0.12118101
0.1213158
0.12145062
0.12158205
0.12169122
0.12177275
0.12184666
0.12191344
0.12196376
0.12195065
0.12147037
0.12066672
0.11944042
0.11699354
0.11424214
0.11146419
0.10871679
0.10602078
0.10337008
0.10077101
0.098230382
0.095753344
0.093330974
0.090970333
0.088668031
0.086444409
0.084285122
0.082206095
0.080193253
0.078249878
0.076371045
0.074552136
0.072795843
0.071092662
0.069433831
0.067829292
0.066269123
0.064762154
0.063296165
0.061876595
0.060504655
0.05917327
0.057881563
0.056629319
0.055416785
0.054237275
0.05309405
0.051983378
0.050914892
0.049917014
0.049125021
2.6025231e-33
2.4004874e-31
3.9995745e-30
4.3656094e-29
3.9255042e-28
3.0683212e-27
2.1486405e-26
1.3751604e-25
8.152646e-25
4.5115828e-24
2.3550673e-23
1.1694696e-22
5.5518089e-22
2.5315345e-21
1.1146318e-20
4.7681178e-20
1.9872194e-19
8.0885498e-19
3.2241098e-18
1.263212e-17
4.8769619e-17
1.8613291e-16
7.0309231e-16
2.6333534e-15
9.8070081e-15
3.6300422e-14
1.3395773e-13
4.9486849e-13
1.835528e-12
6.8564376e-12
2.5851194e-11
9.9282678e-11
3.927072e-10
1.6122925e-09
6.9943989e-09
3.3298788e-08
2.0486429e-07
2.5091516e-06
0.00012074766
0.004163742
1.6815788e-32
1.4302399e-30
2.4130723e-29
2.6333189e-28
2.3640289e-27
1.8449547e-26
1.2901065e-25
8.2454088e-25
4.881418e-24
2.6973392e-23
1.4057889e-22
6.9686404e-22
3.3018091e-21
1.5023108e-20
6.5985821e-20
2.8149841e-19
1.1695926e-18
4.7440805e-18
1.8836347e-17
7.3477506e-17
2.822752e-16
1.0712729e-15
4.0206228e-15
1.4947369e-14
5.5184873e-14
2.0217539e-13
7.3689758e-13
2.6810144e-12
9.7547336e-12
3.5535823e-11
1.2958507e-10
4.7520366e-10
1.7615558e-09
6.5976355e-09
2.5305212e-08
1.0441268e-07
5.7536437e-07
6.6195598e-06
0.00026304451
0.0056923739
6.8015142e-32
5.5646222e-30
9.4859589e-29
1.0346193e-27
9.262899e-27
7.210143e-26
5.0296737e-25
3.2071803e-24
1.8942832e-23
1.0441745e-22
5.4276476e-22
2.6827239e-21
1.2669771e-20
5.743672e-20
2.5124102e-19
1.0668252e-18
4.4092953e-18
1.7779316e-17
7.0124032e-17
2.7149885e-16
1.0342262e-15
3.8876651e-15
1.4433025e-14
5.2992859e-14
1.9284643e-13
6.9472832e-13
2.4823925e-12
8.8196238e-12
3.1180431e-11
1.0965342e-10
3.8277021e-10
1.3290586e-09
4.6019179e-09
1.5866729e-08
5.5533682e-08
2.113575e-07
1.1130414e-06
1.248877e-05
0.00042547657
0.0071309856
2.2588504e-31
1.8286702e-29
3.1500014e-28
3.4312964e-27
3.0596126e-26
2.3724261e-25
1.6491827e-24
1.0481091e-23
6.1699431e-23
3.3892277e-22
1.7551542e-21
8.6395694e-21
4.0615393e-20
1.8317648e-19
7.9660302e-19
3.3603729e-18
1.3786074e-17
5.5126386e-17
2.1539564e-16
8.2520328e-16
3.1064701e-15
1.1522635e-14
4.2139417e-14
1.5210836e-13
5.4290497e-13
1.9128905e-12
6.6625375e-12
2.2978349e-11
7.8464395e-11
2.6490273e-10
8.8135371e-10
2.8923948e-09
9.3818476e-09
3.0106565e-08
9.8232671e-08
3.5495265e-07
1.8206092e-06
2.006337e-05
0.00060836265
0.0086455652
6.7635129e-31
5.4632072e-29
9.4852115e-28
1.0303397e-26
9.1357633e-26
7.0470789e-25
4.8760153e-24
3.0854158e-23
1.8085231e-22
9.8905104e-22
5.0976806e-21
2.496245e-20
1.1667155e-19
5.2277142e-19
2.2567826e-18
9.4411639e-18
3.8371473e-17
1.5182856e-16
5.862851e-16
2.2167053e-15
8.2228983e-15
3.0003682e-14
1.07731e-13
3.8096836e-13
1.3287684e-12
4.5620427e-12
1.5431228e-11
5.1483434e-11
1.692905e-10
5.4751263e-10
1.7350836e-09
5.3913915e-09
1.6471082e-08
4.9719364e-08
1.5356653e-07
5.3506483e-07
2.6983079e-06
2.9508756e-05
0.00083145583
0.010462127
1.8954685e-30
1.5311638e-28
2.6696483e-27
2.8850809e-26
2.5386056e-25
1.9448151e-24
1.3376259e-23
8.4179401e-23
4.9081019e-22
2.6697177e-21
1.368163e-20
6.6580565e-20
3.0904721e-19
1.3740778e-18
5.8804361e-18
2.4360537e-17
9.7922541e-17
3.8270698e-16
1.4576138e-15
5.4273959e-15
1.9793961e-14
7.0877592e-14
2.4924622e-13
8.6132449e-13
2.9284021e-12
9.7734241e-12
3.2036306e-11
1.0321242e-10
3.2644403e-10
1.0111729e-09
3.0556455e-09
9.0176599e-09
2.6095106e-08
7.4731736e-08
2.2071018e-07
7.4759264e-07
3.7361234e-06
4.1690476e-05
0.0011542709
0.01293122
5.0780749e-30
4.0976603e-28
7.1416684e-27
7.6527773e-26
6.6641828e-25
5.0596895e-24
3.4535615e-23
2.1587012e-22
1.2506021e-21
6.7592842e-21
3.4410229e-20
1.6626096e-19
7.6568848e-19
3.3747213e-18
1.4301505e-17
5.8598162e-17
2.3266465e-16
8.9689913e-16
3.3642297e-15
1.2316532e-14
4.4088512e-14
1.5466066e-13
5.3174372e-13
1.7926697e-12
5.9317863e-12
1.921815e-11
6.0981472e-11
1.895982e-10
5.7677736e-10
1.7124595e-09
4.943812e-09
1.3902264e-08
3.8293707e-08
1.0468636e-07
2.9743377e-07
9.8452518e-07
4.9563951e-06
6.0224533e-05
0.0017128803
0.016448434
1.3196488e-29
1.0601922e-27
1.8368458e-26
1.9426729e-25
1.6680165e-24
1.2515023e-23
8.4593436e-23
5.2434437e-22
3.0144887e-21
1.617236e-20
8.171106e-20
3.91664e-19
1.7881702e-18
7.8062212e-18
3.2731411e-17
1.3252751e-16
5.1926924e-16
1.9724174e-15
7.2785697e-15
2.6171108e-14
9.1846718e-14
3.1528763e-13
1.0586745e-12
3.4784942e-12
1.1192718e-11
3.5181e-11
1.0803305e-10
3.2418106e-10
9.4915178e-10
2.7046212e-09
7.4754495e-09
2.0092335e-08
5.2894068e-08
1.3865431e-07
3.8071786e-07
1.2420857e-06
6.5304238e-06
9.6270404e-05
0.0026922256
0.021031132
3.3484069e-29
2.6719506e-27
4.5748362e-26
4.746633e-25
3.998082e-24
2.9528491e-23
1.9708837e-22
1.2088841e-21
6.8861506e-21
3.6626779e-20
1.8349166e-19
8.7183967e-19
3.9433453e-18
1.7039891e-17
7.0648984e-17
2.8250335e-16
1.091652e-15
4.0833043e-15
1.4814513e-14
5.2282798e-14
1.7977689e-13
6.035502e-13
1.9782615e-12
6.3325564e-12
1.9810456e-11
6.041274e-11
1.795914e-10
5.2049928e-10
1.4684212e-09
4.0227697e-09
1.0670187e-08
2.7495092e-08
6.9433619e-08
1.752563e-07
4.6785598e-07
1.5309021e-06
8.918137e-06
0.00017682685
0.0042408315
0.026369158
8.4943515e-29
6.6923963e-27
1.1234475e-25
1.1345818e-24
9.3110927e-24
6.7330926e-23
4.4199779e-22
2.6750822e-21
1.5066847e-20
7.9332554e-20
3.9363362e-19
1.8523697e-18
8.294578e-18
3.5458773e-17
1.4530118e-16
5.7355464e-16
2.1849063e-15
8.0447213e-15
2.8684553e-14
9.9323552e-14
3.345082e-13
1.0979564e-12
3.5120528e-12
1.0951087e-11
3.3307272e-11
9.8562452e-11
2.83764e-10
7.948819e-10
2.1631027e-09
5.7055861e-09
1.4552065e-08
3.6040672e-08
8.7579392e-08
2.1375003e-07
5.5958458e-07
1.8897444e-06
1.3279732e-05
0.00036204371
0.0064738222
0.032408356
2.1801414e-28
1.6865304e-26
2.7541561e-25
2.6831354e-24
2.1269057e-23
1.495016e-22
9.5991829e-22
5.7093887e-21
3.1704089e-20
1.6491739e-19
8.0929465e-19
3.7680541e-18
1.6692118e-17
7.0558496e-17
2.8565871e-16
1.1128428e-15
4.1784486e-15
1.5142357e-14
5.3059015e-14
1.8025105e-13
5.9457785e-13
1.9081026e-12
5.956977e-12
1.8096852e-11
5.3528192e-11
1.5377719e-10
4.2905222e-10
1.1626668e-09
3.055575e-09
7.7721913e-09
1.909946e-08
4.5582679e-08
1.0695973e-07
2.5388961e-07
6.6153013e-07
2.4158903e-06
2.3060671e-05
0.00076232673
0.0094282257
0.039093256
5.7181935e-28
4.3233258e-26
6.8219837e-25
6.3539083e-24
4.8166738e-23
3.2607615e-22
2.0324632e-21
1.1812529e-20
6.4404687e-20
3.3001257e-19
1.5984561e-18
7.3535729e-18
3.2198506e-17
1.3450681e-16
5.3785455e-16
2.06767e-15
7.6523493e-15
2.7297802e-14
9.4017932e-14
3.1344379e-13
1.0129922e-12
3.1796231e-12
9.6924973e-12
2.8702091e-11
8.2613812e-11
2.3057688e-10
6.2401406e-10
1.6376438e-09
4.1621873e-09
1.0227371e-08
2.4271059e-08
5.5993544e-08
1.2749148e-07
2.9715218e-07
7.9077257e-07
3.3574712e-06
4.9040609e-05
0.0015330403
0.013055072
0.046231723
1.5426332e-27
1.1365279e-25
1.7255731e-24
1.5257944e-23
1.0952534e-22
7.0649824e-22
4.2336999e-21
2.3855874e-20
1.2695382e-19
6.3807341e-19
3.0414827e-18
1.3797671e-17
5.9639055e-17
2.4602587e-16
9.7131765e-16
3.6844247e-15
1.3442259e-14
4.7215977e-14
1.5990964e-13
5.2345935e-13
1.6584741e-12
5.0950469e-12
1.5176279e-11
4.3842471e-11
1.2290835e-10
3.3360519e-10
8.7673815e-10
2.231319e-09
5.4934123e-09
1.3067136e-08
3.0030112e-08
6.7238709e-08
1.4955917e-07
3.4710278e-07
9.7869389e-07
5.2635887e-06
0.00012009008
0.0028199203
0.017191699
0.053248687
4.2881295e-27
3.0747728e-25
4.4875752e-24
3.7555304e-23
2.5340336e-22
1.5412704e-21
8.7802838e-21
4.7480663e-20
2.4459682e-19
1.1983336e-18
5.5962113e-18
2.4957559e-17
1.062773e-16
4.3241444e-16
1.6844658e-15
6.3033792e-15
2.2673558e-14
7.844863e-14
2.6141136e-13
8.4083284e-13
2.6138745e-12
7.8669525e-12
2.2920756e-11
6.4668431e-11
1.7678475e-10
4.6724989e-10
1.1941887e-09
2.9522551e-09
7.054717e-09
1.6285829e-08
3.6367737e-08
7.9427291e-08
1.7407018e-07
4.0947633e-07
1.278767e-06
9.4547332e-06
0.000297097
0.0046699797
0.021682682
0.060068694
1.2250358e-26
8.5485587e-25
1.201627e-23
9.5330208e-23
6.0314248e-22
3.433181e-21
1.839213e-20
9.4332862e-20
4.653741e-19
2.2029407e-18
1.0011892e-17
4.3684664e-17
1.8266821e-16
7.3151771e-16
2.8083033e-15
1.0361443e-14
3.6744232e-14
1.2527054e-13
4.1097475e-13
1.3000248e-12
3.9694471e-12
1.1717959e-11
3.3438755e-11
9.2270712e-11
2.4634625e-10
6.350686e-10
1.5813261e-09
3.8053252e-09
8.8478016e-09
1.9884364e-08
4.3329387e-08
9.2890087e-08
2.0280255e-07
4.9527846e-07
1.8164956e-06
2.0181574e-05
0.00068239164
0.00704904
0.026442139
0.066869893
3.5583224e-26
2.4227097e-24
3.2928477e-23
2.4898021e-22
1.4817729e-21
7.8787206e-21
3.9403507e-20
1.8958708e-19
8.8476822e-19
4.0007261e-18
1.7527669e-17
7.4281812e-17
3.0341912e-16
1.1917141e-15
4.4986826e-15
1.6345489e-14
5.7120379e-14
1.9191055e-13
6.2021356e-13
1.9312208e-12
5.7988175e-12
1.6814659e-11
4.7073084e-11
1.2726869e-10
3.324988e-10
8.3785568e-10
2.037415e-09
4.7853663e-09
1.0860848e-08
2.3857269e-08
5.100222e-08
1.0820077e-07
2.387748e-07
6.2543914e-07
2.8910684e-06
5.058276e-05
0.0013968241
0.0098623727
0.031359519
0.073541431
1.060883e-25
7.0280063e-24
9.2475651e-23
6.7035396e-22
3.7787228e-21
1.8845327e-20
8.7886709e-20
3.9393426e-19
1.7196571e-18
7.3317287e-18
3.0579283e-17
1.2453858e-16
4.9281319e-16
1.8868914e-15
6.9750474e-15
2.489093e-14
8.5586778e-14
2.8320089e-13
9.0165298e-13
2.7652755e-12
8.1735287e-12
2.3311278e-11
6.4127033e-11
1.7019129e-10
4.3602208e-10
1.0765086e-09
2.5632687e-09
5.8942201e-09
1.3106438e-08
2.8271735e-08
5.9673429e-08
1.2648728e-07
2.8706059e-07
8.3778556e-07
5.2035936e-06
0.00013463267
0.0025450403
0.013058036
0.036505928
0.080107168
3.2439672e-25
2.0792869e-23
2.6470052e-22
1.8489547e-21
9.9534908e-21
4.6954206e-20
2.0533887e-19
8.5772661e-19
3.4820175e-18
1.384604e-17
5.4241157e-17
2.0942697e-16
7.933208e-16
2.932961e-15
1.0541684e-14
3.6764513e-14
1.2398425e-13
4.0329907e-13
1.263934e-12
3.8179951e-12
1.1116091e-11
3.1219301e-11
8.4524791e-11
2.2064264e-10
5.556283e-10
1.3477471e-09
3.1522894e-09
7.1231681e-09
1.5588014e-08
3.3205782e-08
6.9718635e-08
1.4929462e-07
3.5546222e-07
1.2070349e-06
1.0711835e-05
0.00033872921
0.0041557638
0.016586968
0.041918152
0.086529214
1.0202512e-24
6.2626223e-23
7.6866352e-22
5.189432e-21
2.6872489e-20
1.2104965e-19
5.0126259e-19
1.9657928e-18
7.4395464e-18
2.7481504e-17
1.0012331e-16
3.6155122e-16
1.2921188e-15
4.5512649e-15
1.5729404e-14
5.3155687e-14
1.747428e-13
5.5648772e-13
1.7125215e-12
5.0891471e-12
1.4592513e-11
4.0382085e-11
1.0774558e-10
2.7716134e-10
6.8771895e-10
1.6438221e-09
3.7904613e-09
8.4540603e-09
1.8305595e-08
3.8770977e-08
8.1706554e-08
1.7918803e-07
4.5970114e-07
1.9249472e-06
2.6146715e-05
0.00076242924
0.0061894454
0.020371722
0.047436703
0.092560355
3.325182e-24
1.9223001e-22
2.2599283e-21
1.4757326e-20
7.3880134e-20
3.2035387e-19
1.2689695e-18
4.7234833e-18
1.6822042e-17
5.8020651e-17
1.9633807e-16
6.5781629e-16
2.1893562e-15
7.23591e-15
2.3688635e-14
7.6561754e-14
2.427876e-13
7.5108614e-13
2.2573249e-12
6.576492e-12
1.8536528e-11
5.0513479e-11
1.3287842e-10
3.3728153e-10
8.2640435e-10
1.9523447e-09
4.4556347e-09
9.8575687e-09
2.1253039e-08
4.511536e-08
9.6453933e-08
2.202203e-07
6.2921258e-07
3.4484309e-06
7.1422893e-05
0.0015106109
0.0085824954
0.024350235
0.052969349
0.098285508
1.1365747e-23
6.0369879e-22
6.7334538e-21
4.2476577e-20
2.0618551e-19
8.6551275e-19
3.3065368e-18
1.1805323e-17
4.0038046e-17
1.3041931e-16
4.1328454e-16
1.2877603e-15
3.9723965e-15
1.2182672e-14
3.7212384e-14
1.1316147e-13
3.4090824e-13
1.0113127e-12
2.9383444e-12
8.3301154e-12
2.2962299e-11
6.1425914e-11
1.590679e-10
3.9835901e-10
9.6490978e-10
2.2583507e-09
5.1197659e-09
1.129381e-08
2.4413678e-08
5.2412284e-08
1.1503067e-07
2.7833103e-07
9.1701426e-07
6.9049407e-06
0.00019087112
0.0026401669
0.011266014
0.028471337
0.058466193
0.103754
4.1541589e-23
1.9577051e-21
2.0463457e-20
1.2437525e-19
5.8607796e-19
2.3899725e-18
8.8548928e-18
3.0563756e-17
9.9743723e-17
3.1068147e-16
9.3410593e-16
2.7378216e-15
7.8805491e-15
2.2423741e-14
6.343091e-14
1.7906863e-13
5.0398286e-13
1.4090692e-12
3.8955806e-12
1.0603971e-11
2.8287827e-11
7.3707706e-11
1.8689612e-10
4.6028959e-10
1.1006481e-09
2.5530721e-09
5.7626069e-09
1.2731512e-08
2.7788813e-08
6.0941112e-08
1.3922597e-07
3.6530413e-07
1.4559808e-06
1.610579e-05
0.00046076305
0.0041468417
0.014190424
0.032753642
0.063791216
0.10905399
1.6070763e-22
6.5286974e-21
6.3347675e-20
3.701626e-19
1.6940806e-18
6.7241117e-18
2.4241147e-17
8.1298236e-17
2.5715293e-16
7.73503e-16
2.2342593e-15
6.2488532e-15
1.7028027e-14
4.5492449e-14
1.1994993e-13
3.1411757e-13
8.1924206e-13
2.1290321e-12
5.5064976e-12
1.4141443e-11
3.5918602e-11
8.9895102e-11
2.206829e-10
5.2987735e-10
1.2430933e-09
2.846877e-09
6.3894703e-09
1.4163284e-08
3.1388771e-08
7.1034804e-08
1.7169151e-07
5.0329039e-07
2.5679754e-06
4.3189298e-05
0.00096786607
0.0059550595
0.017258559
0.037049502
0.068863803
0.11420964
6.5514576e-22
2.251943e-20
2.0151913e-19
1.1302174e-18
5.0231827e-18
1.9420469e-17
6.8227925e-17
2.2289612e-16
6.8609641e-16
2.004897e-15
5.6107961e-15
1.5143838e-14
3.9614127e-14
1.0093001e-13