/*--------------------------------*- C++ -*----------------------------------*\
| =========                 |                                                 |
| \\      /  F ield         | OpenFOAM: The Open Source CFD Toolbox           |
|  \\    /   O peration     | Version:  2.3.0                                 |
|   \\  /    A nd           | Web:      www.OpenFOAM.org                      |
|    \\/     M anipulation  |                                                 |
\*---------------------------------------------------------------------------*/
FoamFile
{
    version     2.0;
    format      ascii;
    class       volScalarField;
    location    "0.2";
    object      k;
}
// * * * * * * * * * * * * * * * * * * * * * * * * * * * * * * * * * * * * * //

dimensions      [0 2 -2 0 0 0 0];

internalField   nonuniform List<scalar> 
5835
(
3.3825033
5.6222297
13.292421
24.53913
3.3055132
5.2375968
12.540742
25.300837
3.2887535
5.0124913
11.364278
2.373696
0.98555086
1.824299
10.179923
16.575913
3.7529297
1.3033772
2.8103545
15.477814
17.862824
4.5502175
1.5949863
3.5207127
17.633676
17.497853
4.9410222
1.8293216
3.9553445
18.257568
11.989713
25.360299
3.2925265
4.8326412
11.488886
25.435341
3.3135038
4.686679
11.017482
25.531685
3.3499434
4.5694055
10.574812
25.639337
3.4013125
4.4813616
10.162701
25.763971
3.4671495
4.4203476
9.7832013
25.899451
3.5470558
4.3861378
9.4371676
26.048983
3.6408827
4.3771938
9.1250256
26.205956
3.7485377
4.3934144
8.8470649
26.371155
3.8700568
4.4336984
8.6026129
26.536219
4.0055629
4.4978937
8.3909764
26.69747
4.1552968
4.5850975
8.2101338
26.840987
4.3196546
4.695164
8.0582926
26.953802
4.4992012
4.8273981
7.9320671
27.010059
4.6947764
4.9816805
7.828076
26.978752
4.9075956
5.1576453
7.7410665
26.807322
5.1393665
5.355506
7.6659469
26.425796
5.3925249
5.5759041
7.5961944
25.741038
5.6705668
5.8206354
7.5284061
24.639292
5.9783943
6.0933851
7.4553107
22.959348
6.322343
6.4015657
7.3968543
20.454151
6.7092391
6.7533278
7.3586544
16.96549
7.1467089
7.1610262
7.3959535
12.558605
16.902926
5.1263667
2.0086576
4.2406619
18.414217
16.424477
5.2433881
2.1535694
4.4427045
18.458918
16.077168
5.3341282
2.2752499
4.5898582
18.467666
15.838746
5.4108958
2.3793272
4.7025532
18.468596
15.680289
5.4772932
2.4687435
4.78966
18.470794
15.574663
5.5339517
2.5452675
4.8568904
18.475305
15.503287
5.5807277
2.6100168
4.9085647
18.478861
15.453386
5.618302
2.6643091
4.9478807
18.480154
15.416301
5.6475256
2.7090532
4.9776538
18.477872
15.387355
5.6694231
2.7454798
4.9996288
18.471207
15.36237
5.685267
2.7747032
5.0153572
18.4606
15.339777
5.6958456
2.7978616
5.0261371
18.44655
15.317365
5.7019513
2.8158353
5.0329144
18.429116
15.29521
5.7045091
2.8293801
5.0365351
18.408459
15.270522
5.7040003
2.8392967
5.037519
18.384064
15.246737
5.7016643
2.8461405
5.0360935
18.357937
15.212595
5.6980648
2.8511842
5.0311546
18.326858
15.183247
5.6985967
2.8571181
5.0233373
18.314609
15.074735
5.7234359
2.8817276
4.9866068
18.204856
14.906842
5.8210039
2.9548426
4.9285805
18.820734
14.269425
6.2916715
3.3638339
4.5144796
16.121166
9.2000742
9.1970688
9.1904327
9.1803213
9.543835
9.5405916
9.5334459
9.5225581
9.9432639
9.9397857
9.9321132
9.9204183
10.363344
10.359636
10.35146
10.338993
10.801138
10.797186
10.788468
10.775172
11.257774
11.253567
11.244287
11.230129
11.735783
11.731305
11.721421
11.706337
12.235033
12.230268
12.219749
12.203689
12.758817
12.753746
12.742549
12.725447
13.307675
13.302282
13.290369
13.272164
13.882176
13.876443
13.863774
13.844405
14.483402
14.477314
14.463853
14.44326
15.114882
15.108422
15.094134
15.072262
15.776022
15.769179
15.754039
15.730846
16.464581
16.45735
16.441347
16.416813
17.186046
17.178424
17.161553
17.135662
17.936067
17.928063
17.910336
17.883105
18.719031
18.710657
18.692099
18.663553
19.529957
19.521237
19.501896
19.472095
20.373407
20.364374
20.34431
20.313331
21.253588
21.24429
21.223592
21.191552
22.168376
22.158882
22.137689
22.104777
23.118933
23.109344
23.087865
23.054371
24.105156
24.095619
24.074166
24.040529
25.122045
25.112771
25.091801
25.058673
26.170813
26.162105
26.142271
26.110594
27.236398
27.228678
27.210896
27.18199
28.316248
28.310105
28.295647
28.271349
29.388791
29.385024
29.375608
29.358395
30.442146
30.441861
30.439844
30.433097
31.456771
31.461509
31.470156
31.478523
32.414709
32.426755
32.450877
32.481116
33.283005
33.305912
33.352937
33.415189
34.01141
34.051173
34.133868
34.245042
34.576764
34.633774
34.755809
34.926652
35.158292
35.221667
35.360893
35.563244
35.919036
35.982136
36.121166
36.3249
36.816392
36.880946
37.02286
37.230168
37.802475
37.870288
38.018914
38.235121
38.860002
38.93259
39.091299
39.321317
39.971177
40.049859
40.221486
40.469348
41.123963
41.210397
41.398361
41.668821
42.309111
42.405189
42.613582
42.912518
43.511426
43.618857
43.851383
44.184022
44.722512
44.843174
45.103729
45.475272
45.930336
46.066753
46.360525
46.77789
47.120063
47.275545
47.609319
48.081635
48.2746
48.453219
48.835373
49.373929
49.378579
49.585178
50.025675
50.643787
50.400559
50.640707
51.150884
51.863449
51.318688
51.599423
52.19346
53.018837
52.101148
52.431338
53.126933
54.087724
52.70996
53.10086
53.920252
55.044452
53.100461
53.566473
54.537786
55.860183
53.220468
53.780145
54.939123
56.502998
53.008549
53.685939
55.078184
56.937186
52.388807
53.216295
54.902041
57.125013
51.28012
52.299249
54.353864
57.023819
49.582618
50.848484
53.369336
56.589767
47.215805
48.795513
51.897388
55.78506
44.095098
46.066788
49.880942
54.56673
40.221172
42.652013
47.296396
52.903276
35.777827
38.662034
44.172549
50.778742
31.307676
34.462296
40.661637
48.217584
27.684091
30.773588
37.201844
45.441082
25.309067
28.200811
34.428501
42.909248
23.695551
26.512861
32.521324
40.939622
22.284652
25.145848
31.112668
39.440084
20.915741
23.860388
29.892433
38.20323
19.59504
22.630995
28.76227
37.105972
18.331622
21.461956
27.705311
36.107131
17.148435
20.373613
26.737326
35.220513
16.042917
19.357707
25.84004
34.420832
15.007579
18.403701
24.9937
33.674577
14.054349
17.521535
24.201964
32.971255
13.173713
16.703207
23.458766
32.300885
12.372563
15.955962
22.774816
31.676718
11.636683
15.265621
22.139051
31.093249
10.964635
14.630783
21.553423
30.560941
10.357681
14.050598
21.015447
30.079887
9.8033434
13.510895
20.507914
29.632383
9.2995096
13.009186
20.02611
29.213665
8.8438804
12.544014
19.56656
28.820503
8.4367862
12.116899
19.126737
28.441876
8.0681761
11.719898
18.69663
28.063269
7.7358471
11.354612
18.278528
27.681284
7.434088
11.018796
17.87164
27.291698
7.15845
10.711772
17.478307
26.892813
6.9041701
10.432184
17.101893
26.48678
6.6669212
10.17854
16.747205
26.078976
6.4436689
9.9491352
16.419364
25.674694
6.2286547
9.7382512
16.119331
25.276851
6.0189779
9.5424777
15.852511
24.895691
5.8123052
9.3572333
15.62144
24.541333
5.60725
9.1775457
15.427273
24.223739
5.4033291
8.9980399
15.268048
23.951665
5.199749
8.8130574
15.141627
23.738497
4.9995783
8.6205834
15.045969
23.602173
4.8048513
8.4175454
14.972694
23.547741
4.6159721
8.2014267
14.91112
23.573859
4.4275528
7.9689016
14.845377
23.66605
4.2453533
7.7224415
14.76778
23.813042
4.080222
7.4695769
14.67523
23.995716
3.9321043
7.2126872
14.562916
24.185579
3.8026954
6.947715
14.421845
24.330236
3.6936315
6.6746549
14.243416
24.395673
3.6035662
6.4121907
14.05405
24.387881
3.5286038
6.1708464
13.879411
24.348674
3.464275
5.9505939
13.703177
24.143201
3.4133368
5.7588282
13.459589
23.239027
24.824051
35.787396
36.531903
35.570732
34.424291
33.35395
32.441634
31.704554
31.17311
30.836263
30.669975
30.643934
30.736678
30.923754
31.184762
31.486874
31.814129
32.159919
32.516998
32.876013
33.228707
33.574243
33.90987
34.230457
34.536394
34.834853
35.135063
35.443566
35.776033
36.146438
36.554348
37.0025
37.506358
38.060888
38.64888
39.274503
39.926614
40.62186
41.379994
42.235255
43.201483
44.249865
45.411396
46.785256
48.517699
50.643039
52.871959
54.83545
56.383779
57.52809
58.293092
58.710373
58.815954
58.642924
58.225852
57.60144
56.799843
55.851476
54.783723
53.621621
52.387668
51.101565
49.775309
48.435816
47.092746
45.757124
44.437564
43.141282
41.876708
40.66084
39.499868
38.403769
37.392701
36.484951
35.718833
35.050809
34.322042
33.457046
32.499349
31.480435
30.423723
29.341253
28.249013
27.156343
26.083024
25.030176
24.011807
23.025913
22.076911
21.164496
20.28723
19.447039
18.6396
17.860299
17.114017
16.396333
15.71151
15.054044
14.426122
13.828293
13.257028
12.711235
12.190348
11.693813
11.218378
10.764141
10.328654
9.9107246
9.5135336
9.171944
9.0430392
9.3747246
9.7614903
10.169183
10.59373
11.036464
11.499532
11.98292
12.489692
13.020415
13.575617
14.156391
14.766222
15.404687
16.069794
16.766992
17.492292
18.250081
19.035762
19.853927
20.709065
21.599791
22.528286
23.496025
24.500386
25.545649
26.621087
27.729508
28.856228
29.998237
31.147713
32.304291
33.459902
34.605633
35.726972
36.81834
37.887955
38.956351
40.046578
41.209361
42.452352
43.760506
45.159861
46.634969
48.152516
49.704335
51.292775
52.924424
54.600669
56.292592
57.991084
59.684114
61.359725
63.004968
64.607819
66.153089
67.633742
69.031633
70.342532
71.547716
72.641957
73.602896
74.399991
74.992596
75.368759
75.596967
75.775721
75.94069
76.078934
76.165307
76.184208
76.150869
76.089643
76.009423
75.88694
75.685891
75.405207
75.035114
74.568095
74.012113
73.356147
72.594003
71.725509
70.764977
69.707796
68.60595
67.526583
66.453887
65.242571
63.799068
62.115189
60.143513
57.849284
55.199095
52.162001
48.736268
44.865764
40.476329
35.864189
31.061423
25.903614
20.537319
15.258209
10.360811
6.4809489
3.9108881
2.5862839
2.1951539
2.7023431
5.1012184
9.0802435
9.4147854
9.8045831
10.215288
10.643048
11.089177
11.555899
12.043185
12.554154
13.089377
13.649394
14.235306
14.850619
15.494883
16.166059
16.869629
17.60154
18.366214
19.158998
19.984524
20.847282
21.745783
22.682068
23.65737
24.668668
25.719769
26.799195
27.908955
29.033273
30.167933
31.303641
32.438186
33.561348
34.661958
35.721581
36.732297
37.708737
38.696898
39.747812
40.898387
42.133313
43.439854
44.830602
46.285834
47.782065
49.314808
50.885959
52.497165
54.146676
55.807292
57.472142
59.129765
60.768195
62.374164
63.934565
65.433619
66.863474
68.203516
69.447286
70.574779
71.577875
72.434905
73.115895
73.577015
73.815376
73.92249
74.01674
74.133842
74.249793
74.33638
74.377205
74.388412
74.392583
74.387591
74.348242
74.244632
74.081155
73.854044
73.562755
73.220343
72.825784
72.38006
71.892543
71.385506
70.86388
70.367602
69.914252
69.437651
68.82371
68.029197
67.046815
65.844459
64.402964
62.71395
60.768306
58.547056
55.946008
52.983729
49.712746
45.958354
41.461873
36.067356
29.846968
23.178331
16.398929
10.454426
6.3920423
4.4448839
4.2480885
5.333044
9.1122651
9.449262
9.8416597
10.25492
10.685413
11.134418
11.604234
12.094814
12.609322
13.148328
13.712385
14.302593
14.92247
15.571538
16.247711
16.956492
17.693763
18.463964
19.262378
20.093657
20.962263
21.866588
22.808507
23.788989
24.804597
25.858626
26.938841
28.046377
29.164318
30.287089
31.403683
32.509574
33.591696
34.635404
35.616396
36.526396
37.406168
38.343
39.380142
40.520514
41.741782
43.033582
44.399922
45.820664
47.279593
48.773323
50.301563
51.861881
53.450437
55.041317
56.628358
58.199753
59.742732
61.2432
62.686582
64.056099
65.341882
66.521126
67.583844
68.508247
69.28179
69.882549
70.282016
70.43417
70.351535
70.157792
69.995676
69.896201
69.820705
69.730146
69.606746
69.47295
69.352762
69.236755
69.101537
68.922418
68.70405
68.449183
68.167518
67.875361
67.580261
67.291408
67.02063
66.788296
66.592907
66.449502
66.344201
66.21486
65.998888
65.683687
65.265965
64.731552
64.07682
63.304629
62.407206
61.358997
60.101065
58.669926
57.001665
54.879084
52.161501
48.757115
44.604939
39.402561
32.624612
24.059017
15.037929
8.2753754
4.7715743
3.8763301
9.139205
9.4782686
9.8728404
10.288223
10.720988
11.172378
11.644756
12.138057
12.655484
13.197602
13.764971
14.35869
14.982282
15.63524
16.315437
17.02838
17.769892
18.544417
19.347174
20.182811
21.055747
21.964245
22.910008
23.893733
24.911575
25.966307
27.044962
28.147776
29.256688
30.364672
31.458845
32.531975
33.567458
34.545624
35.434292
36.235977
37.045014
37.963111
38.991613
40.117745
41.318915
42.585717
43.916796
45.293042
46.702896
48.142293
49.607908
51.093853
52.594309
54.083832
55.555355
56.995356
58.388918
59.719773
60.970683
62.122422
63.161039
64.061158
64.807332
65.375488
65.746962
65.897643
65.800889
65.412438
64.770041
64.043746
63.407333
62.882683
62.410483
61.937548
61.446794
60.977138
60.552217
60.158761
59.776033
59.38194
58.981588
58.577112
58.189475
57.837411
57.524462
57.263586
57.058028
56.914033
56.818777
56.767969
56.740266
56.698484
56.618501
56.501454
56.348051
56.15472
55.925118
55.663885
55.363995
55.008186
54.572832
54.074715
53.459945
52.661266
51.683785
50.545589
49.216063
47.41636
44.718308
40.67502
34.496735
24.924592
13.624816
7.0794463
9.1611068
9.5018574
9.8981839
10.315276
10.749867
11.203169
11.677601
12.173077
12.692832
13.237426
13.807422
14.403916
15.030434
15.686441
16.369772
17.085934
17.830694
18.608488
19.414471
20.253276
21.129264
22.040577
22.988749
23.974221
24.992775
26.04669
27.122324
28.21905
29.317713
30.409839
31.480613
32.519868
33.50693
34.415349
35.203526
35.914
36.687891
37.598843
38.617344
39.725648
40.902644
42.138793
43.429319
44.756482
46.111219
47.487721
48.879398
50.277163
51.67298
53.040872
54.371263
55.647418
56.850517
57.959916
58.953418
59.806555
60.497704
60.996688
61.279152
61.317572
61.085173
60.55474
59.702569
58.499947
57.030419
55.535791
54.234026
53.13592
52.159713
51.241887
50.368627
49.587371
48.906354
48.296981
47.732297
47.187435
46.669813
46.177353
45.731807
45.345547
45.009283
44.725684
44.49467
44.304898
44.13986
43.990009
43.840179
43.675063
43.48909
43.285873
43.066963
42.831219
42.583556
42.330719
42.074885
41.818531
41.573601
41.38006
41.262915
41.267276
41.460312
41.916751
42.69226
43.792118
45.17222
46.734987
47.993231
47.643417
42.792299
31.991819
2.2282236
1.3490226
1.1024906
1.2736401
1.93293
3.3813538
5.896013
9.3793058
13.425556
17.872251
22.527534
27.04663
31.475437
35.814557
39.898961
43.732894
47.24267
50.370318
53.144109
55.599725
57.767552
59.694434
61.392399
62.993477
64.616068
66.199914
67.664083
68.975396
70.15471
71.193735
72.098405
72.877716
73.547652
74.103042
74.553417
74.91119
75.183618
75.41211
75.612691
75.767903
75.849941
75.845705
75.772376
75.65496
75.502896
75.280964
74.902261
74.310034
73.51855
72.56594
71.483023
70.292503
68.998248
67.618773
66.157317
64.630188
63.044497
61.414868
59.752465
58.070169
56.380079
54.695033
53.026533
51.404285
49.823318
48.273702
46.754362
45.278119
43.885509
42.58387
41.334172
40.14832
39.016022
37.898299
36.782795
35.65348
34.503566
33.33727
32.167428
31.002035
29.848161
28.705263
27.580359
26.475786
25.405563
24.366429
23.368645
22.407674
21.485904
20.601731
19.75291
18.940771
18.160846
17.408586
16.688551
15.996387
15.336042
14.702097
14.096519
13.519714
12.96822
12.440954
11.937398
11.456996
10.996718
10.55658
10.134474
9.7290841
9.3445985
9.0150651
0.0026148817
0.0027288289
0.002737465
0.0027391574
0.0027397421
0.002740066
0.0027403134
0.0027405294
0.0027407385
0.0027409425
0.0027411448
0.0027413484
0.0027415545
0.0027417621
0.0027419709
0.0027421829
0.0027423994
0.0027426201
0.0027428437
0.0027430708
0.0027433016
0.0027435386
0.0027437779
0.0027440395
0.002744269
0.002744603
0.0027447471
0.0027453048
0.0027449374
0.0027464744
0.0027438961
0.0027482841
0.0027389301
0.0027504315
0.0027237492
0.0027587005
0.0027142414
0.0027374601
0.0063725491
0.21902365
0.0025871942
0.0027365972
0.0027495234
0.0027522336
0.0027530419
0.0027534065
0.0027536164
0.0027537748
0.0027539151
0.0027540496
0.0027541832
0.0027543196
0.002754461
0.0027546068
0.0027547574
0.002754914
0.002755078
0.0027552501
0.0027554298
0.0027556197
0.0027558205
0.002756038
0.0027562624
0.002756537
0.0027567619
0.0027571719
0.00275731
0.0027580364
0.0027577092
0.0027594123
0.0027571233
0.0027613166
0.002753147
0.0027631345
0.002744081
0.0027796846
0.0027429595
0.0027924412
0.0070842224
0.17939362
0.002559078
0.0027289853
0.0027450277
0.0027482056
0.0027490892
0.0027494372
0.0027496324
0.0027497747
0.0027499009
0.002750021
0.0027501398
0.0027502602
0.002750384
0.0027505109
0.0027506413
0.0027507761
0.0027509165
0.0027510636
0.0027512178
0.0027513818
0.0027515582
0.002751751
0.0027519623
0.0027522067
0.0027524673
0.0027528072
0.0027531253
0.0027536232
0.0027539736
0.0027546958
0.0027549046
0.002755714
0.0027553346
0.0027571241
0.002759356
0.0027849879
0.002782486
0.0027744613
0.0068207231
0.15582781
0.0025308067
0.00272139
0.0027409001
0.0027447921
0.0027458408
0.0027462307
0.0027464465
0.0027466068
0.0027467529
0.002746896
0.0027470408
0.0027471905
0.0027473466
0.0027475092
0.0027476792
0.0027478578
0.0027480464
0.0027482468
0.002748461
0.0027486925
0.0027489457
0.0027492262
0.0027495417
0.0027499003
0.0027503203
0.002750798
0.0027514027
0.0027520364
0.0027529711
0.0027537205
0.0027552989
0.0027557197
0.0027589771
0.002759696
0.0027711001
0.0027919973
0.0028045381
0.0027151507
0.0066893053
0.16571914
0.0025028863
0.0027128218
0.002736004
0.0027407428
0.0027420168
0.0027424818
0.0027427346
0.0027429249
0.0027431
0.0027432736
0.0027434517
0.0027436376
0.0027438331
0.0027440388
0.0027442564
0.0027444876
0.0027447344
0.0027449994
0.0027452861
0.0027455999
0.0027459476
0.0027463378
0.0027467823
0.0027472933
0.0027479008
0.0027485977
0.0027495021
0.0027504565
0.0027519261
0.0027531666
0.0027557528
0.0027570477
0.002762401
0.0027646041
0.0027794978
0.0027971085
0.0028122063
0.0026374011
0.0075364371
0.23220991
0.0024753727
0.0027034272
0.0027304022
0.0027361044
0.0027376512
0.0027382054
0.0027384981
0.0027387175
0.0027389197
0.0027391218
0.002739331
0.002739551
0.002739784
0.0027400313
0.002740295
0.002740578
0.002740883
0.0027412138
0.0027415757
0.0027419761
0.0027424247
0.0027429342
0.0027435211
0.0027442055
0.0027450255
0.0027459929
0.0027472325
0.0027486346
0.0027506824
0.00275271
0.0027563296
0.002759165
0.0027662534
0.0027708356
0.0027865604
0.0028006888
0.0028070112
0.0025555367
0.011523391
0.42676717
0.0024481755
0.0026936561
0.0027245934
0.0027313829
0.0027332581
0.0027339233
0.0027342659
0.0027345202
0.0027347546
0.0027349904
0.0027352359
0.0027354957
0.0027357724
0.002736068
0.0027363856
0.0027367287
0.0027371015
0.0027375094
0.0027379596
0.0027384622
0.0027390306
0.0027396825
0.002740441
0.0027413363
0.0027424164
0.0027437198
0.0027453715
0.0027473577
0.0027500949
0.0027532057
0.0027580192
0.0027628951
0.0027717223
0.0027789724
0.0027938919
0.0028032676
0.0027891035
0.0025073242
0.025735106
0.89280713
0.0024212736
0.0026836499
0.0027187269
0.0027267214
0.002728982
0.0027297824
0.0027301858
0.0027304815
0.0027307535
0.002731028
0.0027313156
0.0027316214
0.0027319486
0.0027323003
0.0027326801
0.0027330932
0.0027335451
0.0027340428
0.0027345965
0.0027352195
0.0027359296
0.0027367508
0.0027377144
0.0027388625
0.0027402571
0.0027419655
0.0027441245
0.0027468175
0.0027504094
0.0027548372
0.0027610936
0.0027683078
0.0027790712
0.0027888226
0.0028021753
0.0028049525
0.0027591625
0.0027081939
0.067201782
1.7813498
0.0023948878
0.0026734482
0.0027127685
0.0027220681
0.0027247692
0.0027257297
0.0027262052
0.0027265483
0.0027268626
0.0027271805
0.0027275148
0.0027278718
0.0027282556
0.0027286699
0.0027291198
0.0027296117
0.002730153
0.002730753
0.0027314249
0.0027321859
0.0027330595
0.0027340768
0.002735279
0.0027367223
0.0027384865
0.0027406691
0.0027434322
0.0027469447
0.0027515672
0.0027574798
0.0027654309
0.0027750441
0.0027880027
0.0027993126
0.0028114771
0.0028034611
0.002724816
0.0040734532
0.16662906
3.1676977
0.0023688072
0.0026629887
0.0027066625
0.0027173712
0.0027205728
0.0027217225
0.002722284
0.0027226826
0.0027230451
0.002723412
0.0027237989
0.0027242136
0.0027246611
0.0027251462
0.0027256754
0.0027262567
0.0027268996
0.0027276163
0.0027284234
0.0027293431
0.0027304051
0.0027316493
0.0027331283
0.0027349149
0.0027371102
0.0027398445
0.0027433159
0.0027477691
0.0027535951
0.0027611397
0.0027710039
0.002782874
0.0027983775
0.0028095853
0.0028220191
0.0027966553
0.0026989286
0.0094084031
0.37656581
5.1246932
0.002343031
0.0026523027
0.0027004264
0.0027126446
0.0027164083
0.0027177789
0.0027184425
0.0027189059
0.0027193237
0.0027197462
0.0027201927
0.0027206726
0.002721192
0.0027217572
0.0027223761
0.0027230589
0.0027238176
0.0027246674
0.0027256292
0.0027267308
0.0027280092
0.0027295146
0.0027313129
0.0027334957
0.0027361894
0.0027395599
0.0027438491
0.0027493716
0.002756564
0.0027658742
0.0027778398
0.0027917134
0.0028099534
0.0028194884
0.0028318087
0.002784788
0.0027302961
0.025869583
0.77024533
7.686808
0.0023175578
0.0026414236
0.0026940811
0.0027079041
0.0027122915
0.0027139169
0.0027147005
0.0027152392
0.0027157202
0.0027162056
0.0027167192
0.0027172724
0.002717873
0.0027185285
0.0027192488
0.0027200466
0.0027209365
0.0027219375
0.0027230752
0.0027243839
0.0027259092
0.002727713
0.0027298764
0.0027325129
0.0027357774
0.0027398754
0.0027450983
0.0027518284
0.0027605509
0.0027717648
0.0027859964
0.0028017187
0.0028224735
0.0028294728
0.0028391937
0.002771428
0.0031403701
0.068870949
1.4276914
10.802426
0.0022923885
0.0026303771
0.0026876406
0.0027031581
0.0027082304
0.0027101459
0.0027110689
0.0027116946
0.0027122476
0.0027128038
0.0027133927
0.0027140283
0.0027147199
0.002715477
0.0027163114
0.0027172386
0.0027182764
0.0027194481
0.0027207846
0.0027223277
0.0027241327
0.0027262747
0.0027288525
0.0027320041
0.0027359173
0.0027408407
0.0027471209
0.0027552069
0.0027656319
0.0027789044
0.0027955204
0.0028131269
0.0028357727
0.0028401705
0.0028439623
0.0027673673
0.0052468292
0.16592841
2.4019959
14.2632
0.0022675285
0.0026191871
0.0026811166
0.0026984125
0.0027042297
0.0027064719
0.0027075551
0.0027082807
0.0027089152
0.0027095511
0.0027102243
0.0027109519
0.0027117454
0.002712616
0.0027135783
0.0027146505
0.0027158544
0.0027172176
0.0027187774
0.0027205838
0.0027227033
0.0027252259
0.0027282704
0.0027320023
0.0027366465
0.0027424985
0.002749964
0.0027595572
0.0027718538
0.0027873307
0.0028063268
0.0028259063
0.0028491201
0.0028513872
0.0028439963
0.0027982892
0.012644414
0.35614275
3.7095843
17.93304
0.0022429941
0.0026078801
0.0026745221
0.0026936723
0.0027002915
0.0027028967
0.002704162
0.0027050012
0.0027057277
0.0027064527
0.0027072197
0.0027080497
0.0027089565
0.0027099537
0.0027110583
0.0027122921
0.0027136809
0.0027152576
0.0027170663
0.0027191663
0.0027216364
0.0027245835
0.0027281487
0.0027325283
0.0027379875
0.0027448725
0.0027536496
0.0027648937
0.0027792086
0.0027969952
0.0028182655
0.0028397834
0.0028619665
0.002862569
0.0028396001
0.0029849546
0.033564396
0.6874613
5.3550177
21.77589
0.0022190016
0.0025965564
0.0026679064
0.0026889635
0.0026964312
0.0026994317
0.0027008995
0.0027018658
0.0027026946
0.0027035178
0.002704388
0.0027053305
0.0027063617
0.0027074978
0.0027087587
0.00271017
0.0027117619
0.0027135728
0.0027156547
0.0027180767
0.0027209316
0.0027243445
0.002728481
0.0027335707
0.0027399221
0.0027479338
0.0027581326
0.0027711461
0.0027875859
0.0028077335
0.0028311674
0.0028543734
0.0028744376
0.0028733046
0.0028409334
0.0039118932
0.083191281
1.2017296
7.3035242
25.706509
0.0021954662
0.0025851605
0.0026612257
0.0026842404
0.0026925997
0.0026960262
0.0026977167
0.0026988239
0.0026997655
0.0027006967
0.0027016801
0.0027027457
0.0027039131
0.002705201
0.0027066329
0.0027082381
0.0027100518
0.0027121185
0.0027144984
0.0027172718
0.0027205462
0.0027244668
0.0027292254
0.002735087
0.0027424058
0.0027516338
0.002763356
0.0027782429
0.0027968885
0.0028194089
0.0028448757
0.0028693921
0.0028867886
0.002882229
0.0028693865
0.0075579497
0.18591141
1.9342333
9.5476836
29.601243
0.0021725104
0.0025737118
0.0026544648
0.0026794669
0.0026887477
0.0026926235
0.0026945534
0.0026958136
0.002696878
0.0026979264
0.0026990322
0.0027002309
0.0027015453
0.002702997
0.0027046131
0.0027064273
0.0027084798
0.0027108217
0.002713522
0.0027166729
0.0027203974
0.0027248622
0.0027302864
0.002736972
0.0027453192
0.0027558324
0.0027691493
0.0027859665
0.0028068242
0.0028316082
0.0028587592
0.0028836563
0.0028986758
0.0028870503
0.0029877311
0.018762515
0.37319282
2.9049394
12.059024
33.362043
0.0021503092
0.0025622409
0.002647601
0.0026745875
0.0026847984
0.0026891343
0.0026913135
0.002692735
0.0026939297
0.0026951024
0.0026963381
0.0026976779
0.002699148
0.0027007731
0.002702584
0.0027046187
0.002706923
0.0027095547
0.002712592
0.0027161395
0.0027203363
0.0027253707
0.0027314896
0.0027390318
0.0027484428
0.0027602756
0.0027752115
0.0027939522
0.0028169388
0.0028437593
0.0028722543
0.0028960661
0.002909473
0.0028937026
0.0034866817
0.047281718
0.67787598
4.1119087
14.77222
36.918073
0.002129185
0.002550808
0.002640609
0.0026695278
0.0026806455
0.0026854326
0.0026878597
0.0026894443
0.0026907723
0.0026920732
0.002693443
0.0026949283
0.0026965589
0.0026983626
0.0027003736
0.0027026347
0.0027051967
0.0027081247
0.002711506
0.0027154571
0.0027201334
0.0027257442
0.0027325637
0.0027409657
0.0027514382
0.002764578
0.0027811017
0.0028017013
0.0028266867
0.0028552816
0.00288494
0.0029068734
0.0029185629
0.0029205452
0.00551553
0.10935734
1.1277192
5.5426725
17.623804
40.253359
0.0021097763
0.002539553
0.0026334893
0.0026642148
0.0026761695
0.0026813704
0.002684027
0.0026857663
0.0026872239
0.0026886512
0.0026901542
0.0026917843
0.0026935744
0.0026955551
0.002697764
0.0027002483
0.0027030639
0.0027062823
0.0027099994
0.0027143433
0.0027194844
0.0027256515
0.0027331433
0.002742366
0.0027538452
0.0027682161
0.0027862237
0.0028085416
0.0028353363
0.002865403
0.0028957791
0.0029157605
0.0029250594
0.0030113797
0.012234262
0.22662138
1.7405769
7.1786334
20.567026
43.361238
0.0020932414
0.0025287448
0.0026263013
0.0026586068
0.0026712666
0.002676806
0.0026796512
0.0026815229
0.0026830971
0.002684642
0.0026862707
0.0026880383
0.0026899798
0.002692128
0.0026945236
0.0026972173
0.0027002695
0.0027037573
0.0027077843
0.0027124883
0.0027180524
0.002724722
0.0027328166
0.0027427689
0.0027551358
0.0027705837
0.0027898783
0.0028136698
0.0028419785
0.0028731346
0.0029033953
0.0029220693
0.0029307312
0.0033388996
0.030452332
0.42382067
2.5272574
9.0209169
23.531091
46.271874
0.0020820517
0.002519208
0.0026194597
0.0026529401
0.0026660759
0.0026718225
0.0026747825
0.002676744
0.0026784079
0.0026800506
0.0026817879
0.002683676
0.0026857504
0.0026880454
0.0026906033
0.0026934776
0.002696732
0.0027004476
0.0027047336
0.0027097349
0.0027156438
0.0027227176
0.0027312901
0.0027418126
0.002754864
0.0027711335
0.0027914037
0.0028163068
0.0028457437
0.0028776099
0.002906949
0.0029254815
0.0029502198
0.0046111367
0.071394383
0.71898404
3.4763292
11.017199
26.487101
49.00376
0.002080255
0.0025125102
0.0026139414
0.0026479522
0.0026612126
0.0026669674
0.0026699286
0.0026719124
0.0026736225
0.0026753309
0.0026771497
0.0026791319
0.0026813118
0.0026837228
0.0026864079
0.0026894216
0.0026928291
0.0026967136
0.0027011871
0.002706398
0.0027125433
0.0027198857
0.0027287651
0.0027396415
0.0027531039
0.0027698556
0.002790696
0.0028162603
0.0028463845
0.0028787281
0.0029069265
0.0029270276
0.0030191928
0.0089609844
0.14995035
1.1213621
4.563306
13.091192
29.400259
51.75315
0.0020943971
0.0025117279
0.0026119832
0.00264556
0.0026584407
0.0026639207
0.0026667187
0.0026686252
0.0026703165
0.0026720443
0.0026739068
0.0026759491
0.0026782004
0.002680691
0.0026834624
0.0026865681
0.0026900728
0.0026940593
0.0026986394
0.0027039611
0.0027102205
0.0027176786
0.0027266727
0.0027376591
0.0027512224
0.0027680666
0.0027890031
0.0028146856
0.0028449121
0.0028772556
0.0029045142
0.0029282115
0.0032489924
0.020930299
0.28111901
1.6306499
5.7609948
15.199782
32.242061
54.542422
0.0021343184
0.0025225838
0.0026182951
0.0026501113
0.0026619365
0.0026667582
0.002669162
0.0026708464
0.0026724245
0.0026741065
0.0026759647
0.002678028
0.0026803156
0.0026828514
0.0026856725
0.0026888293
0.0026923838
0.0026964161
0.0027010351
0.0027063845
0.0027126551
0.0027200995
0.0027290434
0.0027399271
0.0027533143
0.0027698896
0.0027904574
0.0028156925
0.0028453805
0.0028768938
0.0029043446
0.0029437472
0.004075897
0.048294459
0.47752909
2.2444305
7.0609203
17.359284
35.016817
57.140129
0.0022140798
0.0025552761
0.0026421614
0.0026706011
0.0026805404
0.0026842047
0.0026858914
0.002687141
0.0026884656
0.0026900093
0.0026918019
0.002693845
0.0026961404
0.0026987004
0.0027015543
0.002704747
0.0027083358
0.0027123965
0.0027170333
0.0027223841
0.002728631
0.0027360144
0.002744842
0.0027555288
0.0027686032
0.0027847096
0.0028046181
0.002829017
0.0028577838
0.0028880015
0.0029173367
0.0030129973
0.0069201118
0.1020932
0.74890955
2.9644594
8.4723332
19.608771
37.735332
59.464564
0.0023511949
0.0026263453
0.0027000582
0.0027235875
0.0027307886
0.0027327099
0.0027332519
0.0027337641
0.0027346287
0.0027359008
0.0027375475
0.0027395284
0.0027418168
0.0027444065
0.0027473143
0.0027505765
0.0027542446
0.0027583899
0.0027631121
0.0027685438
0.0027748595
0.0027822872
0.0027911151
0.0028017283
0.0028146093
0.0028303441
0.0028496325
0.0028731049
0.0029007925
0.0029295744
0.002963421
0.0032336544
0.015040071
0.1939863
1.0999383
3.7892261
9.9912678
21.927046
40.376975
61.535026
0.0025699402
0.0027633231
0.0028209425
0.0028387623
0.0028426057
0.0028421892
0.0028410545
0.00284041
0.0028405121
0.0028413144
0.0028427012
0.002844572
0.0028468574
0.0028495218
0.0028525628
0.0028560053
0.0028598935
0.0028642954
0.0028693089
0.0028750655
0.0028817362
0.0028895415
0.0028987517
0.0029097211
0.0029228753
0.0029387148
0.002957821
0.0029806259
0.0030071274
0.0030346845
0.0030822414
0.0039386972
0.034565404
0.33609964
1.5373848
4.7260396
11.630212
24.299221
42.947116
63.403997
0.0028911047
0.0030010369
0.0030444137
0.0030579103
0.0030587257
0.0030557333
0.0030524638
0.0030502046
0.0030491718
0.0030492451
0.0030502209
0.0030519256
0.0030542319
0.0030570632
0.0030603896
0.0030642205
0.0030685923
0.0030735724
0.0030792612
0.0030857961
0.0030933519
0.0031021481