/*--------------------------------*- C++ -*----------------------------------*\
| =========                 |                                                 |
| \\      /  F ield         | OpenFOAM: The Open Source CFD Toolbox           |
|  \\    /   O peration     | Version:  2.3.0                                 |
|   \\  /    A nd           | Web:      www.OpenFOAM.org                      |
|    \\/     M anipulation  |                                                 |
\*---------------------------------------------------------------------------*/
FoamFile
{
    version     2.0;
    format      ascii;
    class       volScalarField;
    location    "0.2";
    object      mut;
}
// * * * * * * * * * * * * * * * * * * * * * * * * * * * * * * * * * * * * * //

dimensions      [1 -1 -1 0 0 0 0];

internalField   nonuniform List<scalar> 
5835
(
0.00039804688
0.00038738773
0.00050616401
0.00049068203
0.00040644758
0.00038461648
0.00050239032
0.00049838434
0.00041153464
0.00037531679
6.9433279e-05
2.2960435e-05
2.0071358e-05
2.1455693e-05
6.9746998e-05
8.3880795e-05
3.059959e-05
1.8185067e-05
2.6419452e-05
8.6030773e-05
8.7105817e-05
3.6542373e-05
2.0259008e-05
3.1323028e-05
9.1858577e-05
8.6245807e-05
4.0796509e-05
2.3075504e-05
3.5112764e-05
9.3501411e-05
0.00048142985
0.00049907889
0.00041802387
0.00036805944
0.00046149223
0.00049992216
0.0004260268
0.00036286855
0.00044241307
0.0005009738
0.00043558299
0.00035984811
0.00042453306
0.00050213546
0.00044661686
0.00035900403
0.00040788147
0.00050346224
0.00045911071
0.00036030132
0.00039259171
0.00050489322
0.00047305506
0.0003638114
0.00037871873
0.00050645891
0.00048843262
0.00036954131
0.00036633921
0.00050809425
0.00050520614
0.0003775826
0.00035549986
0.00050980639
0.00052334597
0.00038800872
0.00034627017
0.00051151404
0.00054281302
0.00040099031
0.00033873234
0.00051318191
0.00056353878
0.00041670195
0.00033300378
0.00051467681
0.00058539951
0.00043539823
0.00032925583
0.00051587618
0.00060819421
0.0004573414
0.00032774079
0.00051653449
0.00063161978
0.00048284147
0.00032885328
0.00051635547
0.00065524791
0.00051216336
0.00033320247
0.0005148319
0.00067852304
0.00054547413
0.00034175993
0.00051127767
0.00070076392
0.00058260446
0.00035604165
0.00050474005
0.00072121726
0.00062281825
0.00037840186
0.00049394408
0.00073916822
0.00066452733
0.00041289094
0.0004768892
0.00075419255
0.00070465964
0.00046502322
0.00045018317
0.0007666008
0.00074051383
0.00054407144
0.00041018009
0.00077681504
0.00076869561
0.00066058747
0.00035321686
8.4799826e-05
4.3875885e-05
2.5882539e-05
3.8003723e-05
9.3932856e-05
8.362243e-05
4.6253084e-05
2.8477168e-05
4.022319e-05
9.4077342e-05
8.2764615e-05
4.8155976e-05
3.079922e-05
4.1933211e-05
9.4129893e-05
8.2179396e-05
4.9698854e-05
3.2834755e-05
4.3263764e-05
9.4162648e-05
8.1798041e-05
5.0949619e-05
3.4591954e-05
4.430507e-05
9.4199216e-05
8.1553487e-05
5.1959161e-05
3.6090819e-05
4.5121643e-05
9.4242725e-05
8.1399061e-05
5.2766028e-05
3.7355062e-05
4.5763106e-05
9.4285297e-05
8.1302203e-05
5.3404469e-05
3.8411547e-05
4.6266525e-05
9.4323981e-05
8.1240785e-05
5.3906988e-05
3.9286244e-05
4.6663628e-05
9.4355783e-05
8.1202954e-05
5.4298614e-05
4.0005002e-05
4.6976266e-05
9.4379005e-05
8.1178003e-05
5.4601436e-05
4.0591332e-05
4.7222077e-05
9.4394958e-05
8.116195e-05
5.4832279e-05
4.1066396e-05
4.7415354e-05
9.4405148e-05
8.1149087e-05
5.5008106e-05
4.1449517e-05
4.75671e-05
9.4409898e-05
8.1139775e-05
5.5141878e-05
4.1756783e-05
4.7686407e-05
9.4409774e-05
8.1126774e-05
5.5243927e-05
4.2002669e-05
4.7779157e-05
9.4403594e-05
8.1119354e-05
5.5324247e-05
4.2199267e-05
4.7851934e-05
9.4396659e-05
8.1087739e-05
5.5392656e-05
4.2360583e-05
4.7897447e-05
9.4380841e-05
8.1072604e-05
5.5475338e-05
4.2502976e-05
4.7903189e-05
9.4417592e-05
8.0850174e-05
5.5622759e-05
4.2696913e-05
4.7754334e-05
9.4206e-05
8.0484397e-05
5.6237875e-05
4.3143812e-05
4.6917421e-05
9.5845232e-05
7.9329423e-05
5.9217575e-05
4.5678402e-05
4.5732121e-05
8.7932585e-05
0.004511795
0.0045124486
0.0045138961
0.004516092
0.0044888904
0.0044895433
0.00449099
0.0044931849
0.0044570225
0.0044576891
0.0044591645
0.0044614028
0.004421056
0.004421746
0.0044232708
0.0044255835
0.0043826516
0.0043833669
0.0043849451
0.0043873381
0.0043432052
0.0043439477
0.0043455837
0.0043480637
0.0043026504
0.0043034204
0.0043051156
0.0043076854
0.00426139
0.0042621883
0.0042639454
0.0042666086
0.0042191755
0.0042200032
0.0042218242
0.0042245838
0.0041761144
0.004176973
0.0041788605
0.0041817203
0.0041322801
0.0041331704
0.0041351263
0.0041380897
0.0040878428
0.0040887653
0.0040907918
0.0040938618
0.0040425999
0.0040435561
0.0040456558
0.0040488363
0.0039965111
0.0039975032
0.0039996802
0.0040029768
0.0039498502
0.0039508808
0.0039531403
0.0039565609
0.0039019498
0.0039030213
0.0039053704
0.0039089264
0.0038530407
0.0038541567
0.0038566036
0.0038603079
0.0038025089
0.0038036737
0.0038062286
0.0038100963
0.003750649
0.0037518669
0.0037545398
0.0037585854
0.0036972608
0.0036985374
0.0037013387
0.0037055776
0.0036420807
0.003643421
0.0036463615
0.0036508114
0.003585366
0.0035867753
0.0035898661
0.0035945431
0.0035271688
0.0035286551
0.0035319088
0.0035368316
0.0034673936
0.0034689638
0.0034723961
0.0034775886
0.0034062352
0.0034078963
0.0034115266
0.003417018
0.0033429162
0.0033446821
0.0033485399
0.0033543731
0.0032776306
0.0032795197
0.0032836452
0.0032898818
0.0032092442
0.0032112819
0.0032157321
0.0032224581
0.0031376786
0.003139903
0.0031447552
0.0031520828
0.0030619887
0.0030644535
0.0030698173
0.0030779064
0.0029815578
0.0029843333
0.0029903654
0.0029994469
0.0028949482
0.0028981444
0.0029050932
0.002915522
0.0028007027
0.0028045272
0.0028128152
0.0028251696
0.0026970147
0.0027018286
0.0027121062
0.0027272482
0.0025993291
0.0026022317
0.0026094203
0.0026230885
0.0025487582
0.0025505006
0.0025544208
0.0025607503
0.0025145756
0.0025158943
0.0025187834
0.002523209
0.0024887558
0.0024898801
0.0024923052
0.0024959142
0.0024674446
0.0024684805
0.0024706904
0.0024739199
0.002448609
0.0024496202
0.0024517642
0.0024548651
0.0024310726
0.0024320908
0.0024342455
0.0024373377
0.0024141843
0.0024152446
0.0024174913
0.0024206944
0.002397457
0.0023986063
0.0024010546
0.0024045403
0.0023802078
0.0023814776
0.0023841978
0.0023880789
0.0023618373
0.002363248
0.0023662782
0.00237061
0.0023420661
0.0023436472
0.0023470446
0.0023519074
0.0023205719
0.002322367
0.0023262257
0.0023317557
0.0022969375
0.0022990023
0.0023034493
0.0023098352
0.0022704707
0.0022728673
0.0022780456
0.0022855022
0.002240751
0.0022435456
0.0022496057
0.0022583567
0.0022070499
0.002210325
0.0022174484
0.0022277603
0.0021687909
0.0021726524
0.0021810681
0.002193274
0.0021253219
0.0021299077
0.0021399111
0.0021544365
0.0020759065
0.0020813969
0.0020933748
0.0021107701
0.0020197063
0.0020263407
0.0020408076
0.002061791
0.0019557091
0.0019638159
0.0019814687
0.0020069821
0.0018822029
0.0018922582
0.0019140832
0.0019454069
0.0017982073
0.0018108879
0.0018382413
0.0018770396
0.0017015106
0.0017178232
0.0017526366
0.0018011257
0.0015911939
0.0016125661
0.0016574036
0.001718265
0.0014656317
0.0014940095
0.0015521172
0.0016284362
0.0013266628
0.0013640648
0.0014385556
0.0015330318
0.0011840411
0.0012304545
0.0013216007
0.0014347853
0.0010652244
0.0011132565
0.0012120765
0.0013385983
0.0010146907
0.0010476391
0.0011302621
0.0012541325
0.0010275174
0.0010440838
0.0010947594
0.0011937952
0.0010464969
0.0010586113
0.0010926283
0.0011612288
0.0010528553
0.0010663559
0.0010977302
0.0011481193
0.0010481056
0.0010645825
0.0010988236
0.0011424591
0.0010366572
0.0010563177
0.0010947399
0.0011369714
0.0010215072
0.0010444517
0.0010873813
0.0011304549
0.001004515
0.0010307767
0.0010784355
0.001123638
0.00098624155
0.001015813
0.0010681395
0.001116169
0.00096717807
0.00099994722
0.0010565185
0.0011073683
0.00094798473
0.00098373419
0.0010438794
0.0010969914
0.00092890489
0.00096746037
0.0010305895
0.0010851923
0.00091037181
0.00095157954
0.0010172151
0.0010726177
0.00089218852
0.00093594201
0.0010037642
0.0010594871
0.00087455949
0.00092073885
0.00099050574
0.0010462526
0.00085753546
0.00090594073
0.00097742031
0.0010330616
0.00084082762
0.00089119321
0.00096412455
0.0010196188
0.000824524
0.00087651321
0.00095054681
0.0010058618
0.00080869692
0.00086195271
0.00093663398
0.00099171389
0.00079339611
0.0008475725
0.00092232237
0.00097700554
0.0007783102
0.00083317566
0.00090734236
0.00096135258
0.00076346925
0.00081894608
0.00089183613
0.00094473676
0.00074868041
0.00080489213
0.00087583624
0.00092707204
0.00073377746
0.00079107688
0.00085947878
0.00090835157
0.00071855094
0.00077751949
0.00084293422
0.00088865991
0.00070284752
0.00076425767
0.00082646761
0.00086821529
0.00068658442
0.00075128585
0.00081037245
0.00084731512
0.00066947559
0.00073835284
0.00079471757
0.00082599962
0.00065146053
0.0007253267
0.00077975771
0.00080454093
0.0006325462
0.00071199863
0.00076565621
0.00078322357
0.00061284453
0.00069813231
0.00075252576
0.00076234209
0.00059254879
0.00068345484
0.00074034194
0.00074213329
0.00057179061
0.00066764052
0.00072899937
0.00072275475
0.00055108799
0.00065064445
0.00071845355
0.00070460427
0.00053085365
0.00063235835
0.00070838581
0.00068770537
0.00051071296
0.00061276024
0.00069841967
0.00067197021
0.00048850471
0.00059184611
0.00068801558
0.00065704696
0.0004680315
0.00056992706
0.00067679043
0.00064247563
0.00045036249
0.00054757643
0.00066446155
0.00062758149
0.00043535502
0.00052506235
0.00065070726
0.0006115585
0.00042306429
0.00049993735
0.00063527387
0.00059372459
0.00041348373
0.00047409887
0.00061783343
0.00057355676
0.00040643479
0.00045058373
0.00059912602
0.00055106124
0.00040153046
0.00043000738
0.00058003173
0.00052725884
0.00039838696
0.0004122441
0.0005602067
0.00050195181
0.00039710089
0.00039770674
0.00053056592
0.00047022195
0.00084050466
0.00051759617
0.00051535357
0.00052594288
0.00053883204
0.00055239701
0.00056692672
0.00058249673
0.00059929956
0.00061781711
0.00063820688
0.00066029934
0.00068374227
0.0007081449
0.00073321756
0.00075836971
0.00078348982
0.00080835486
0.00083272378
0.00085637039
0.00087913137
0.00090105207
0.00092185562
0.00094137219
0.00095961106
0.00097670823
0.0009928489
0.001008115
0.0010229319
0.0010374393
0.0010516998
0.0010657546
0.0010798307
0.0010936399
0.0011066698
0.0011186845
0.0011291835
0.0011384991
0.0011477268
0.001158602
0.0011722293
0.0011881783
0.0012073535
0.001234566
0.0012774026
0.0013405097
0.0014200849
0.0015069848
0.0015946095
0.0016797932
0.001760561
0.0018357756
0.0019053873
0.0019686734
0.0020261551
0.0020776843
0.002124016
0.0021655333
0.0022026113
0.0022356457
0.0022650359
0.0022911772
0.0023146823
0.0023359487
0.0023555966
0.0023738965
0.0023910148
0.0024071623
0.0024230996
0.0024396768
0.0024572366
0.002476432
0.0024988169
0.0025269716
0.002566656
0.0026370442
0.0027392608
0.002835074
0.0029239492
0.003006808
0.00308448
0.0031580527
0.0032279453
0.0032949701
0.0033591315
0.0034214966
0.0034818218
0.003540846
0.0035983598
0.0036544435
0.0037090382
0.0037618901
0.0038132573
0.0038633366
0.0039118354
0.0039593603
0.0040056762
0.0040514418
0.0040963768
0.0041405173
0.0041840636
0.0042268463
0.0042687933
0.0043097943
0.0043501004
0.0043893054
0.0044274871
0.0044632472
0.0044949947
0.0045179028
0.0045439651
0.0045210309
0.004489775
0.0044548564
0.0044176032
0.0043793947
0.0043401183
0.0043001901
0.0042593539
0.0042177213
0.0041753567
0.0041324291
0.0040887522
0.0040443108
0.0039994007
0.0039534016
0.0039065717
0.0038583359
0.0038089917
0.0037583448
0.0037061435
0.0036526443
0.0035979282
0.0035419583
0.0034850176
0.003426517
0.0033668396
0.0033051699
0.0032417622
0.003176165
0.0031083937
0.00303805
0.0029652224
0.0028901926
0.0028132335
0.0027343818
0.0026554197
0.0025801061
0.0025213845
0.0024897454
0.0024644767
0.0024425483
0.0024260921
0.002411718
0.0023969713
0.0023813174
0.0023649353
0.0023484233
0.0023316003
0.002313864
0.0022945448
0.0022734405
0.0022504614
0.0022255607
0.0021987881
0.0021701772
0.002139492
0.0021071465
0.002073038
0.0020376119
0.002000751
0.0019624513
0.0019225844
0.0018809196
0.0018376915
0.0017941178
0.0017514867
0.0017100517
0.0016694484
0.0016292606
0.0015889506
0.0015491509
0.0015102133
0.0014718927
0.0014341598
0.0013960755
0.0013579076
0.0013192244
0.0012799983
0.0012406835
0.0012008428
0.0011604267
0.0011194297
0.0010783633
0.0010368978
0.00099586252
0.00095641747
0.00091880848
0.00088097878
0.00084166352
0.00080101381
0.0007585804
0.00071421184
0.00066784582
0.00061968655
0.00057096751
0.00052049672
0.00047062047
0.00043638996
0.00040248651
0.00036403022
0.00032035671
0.00027094526
0.00021760413
0.0001639153
0.00011821598
8.5752983e-05
6.3858676e-05
5.4874969e-05
6.1034617e-05
0.0045367273
0.0045138025
0.0044824135
0.0044472687
0.004409763
0.0043712845
0.0043317278
0.004291508
0.0042503702
0.004208426
0.0041657415
0.0041224859
0.0040784696
0.0040336725
0.003988385
0.0039419757
0.0038946966
0.0038459641
0.0037960751
0.0037448346
0.003691988
0.0036377927
0.0035823261
0.0035255381
0.003467693
0.0034081661
0.0033473044
0.0032842317
0.0032191488
0.003151528
0.0030813002
0.0030079557
0.0029314836
0.0028520913
0.002769992
0.002685599
0.0026030019
0.002539446
0.0025027014
0.0024784413
0.0024579439
0.0024395275
0.002424106
0.0024098822
0.0023950905
0.0023794019
0.0023629713
0.0023460848
0.0023284033
0.0023094415
0.0022886268
0.0022657687
0.002240762
0.0022135459
0.0021841434
0.00215258
0.00211863
0.0020827294
0.0020447895
0.0020053525
0.0019643253
0.0019218159
0.0018778237
0.0018321866
0.0017853829
0.0017390287
0.0016946309
0.0016523029
0.0016114462
0.001571562
0.0015321228
0.0014937574
0.0014566777
0.0014203746
0.001384723
0.0013489017
0.0013132561
0.0012774159
0.0012414109
0.001205715
0.0011699559
0.0011341253
0.0010982814
0.0010629849
0.0010279982
0.00099392416
0.00096103823
0.00092878734
0.00089589023
0.0008617947
0.00082666042
0.00079012104
0.00075209935
0.00071262548
0.00067180412
0.00062983886
0.00058600358
0.00054115013
0.0004969472
0.00045054331
0.00040013161
0.00034582359
0.0002950149
0.00025294575
0.00020555024
0.00015439667
0.0001108003
8.176677e-05
6.718128e-05
6.4059254e-05
0.0045303267
0.0045074083
0.0044758993
0.0044405495
0.0044028173
0.0043640956
0.0043242872
0.0042838053
0.0042423964
0.0042001719
0.0041571991
0.004113648
0.0040693256
0.0040242068
0.0039785777
0.0039317969
0.0038841111
0.0038349291
0.0037845469
0.0037327691
0.0036793386
0.0036245133
0.0035683659
0.0035108345
0.0034521667
0.0033917023
0.0033297538
0.003265386
0.0031987426
0.0031292148
0.0030566385
0.0029803675
0.0029002368
0.0028162878
0.002728578
0.0026387563
0.0025630654
0.0025209136
0.0024928304
0.0024715245
0.0024528501
0.0024357714
0.0024205855
0.0024060172
0.0023907464
0.0023745484
0.0023575043
0.0023396823
0.0023206323
0.0022999298
0.0022770415
0.0022517574
0.0022239322
0.0021934659
0.002160333
0.00212453
0.0020858033
0.002044611
0.0020008687
0.0019552284
0.0019076455
0.0018583869
0.0018076586
0.0017554698
0.0017027254
0.0016516367
0.0016039811
0.0015596112
0.0015175792
0.0014772118
0.0014380035
0.0014006127
0.001365102
0.0013307144
0.0012972008
0.0012638108
0.0012308919
0.0011981657
0.0011657552
0.0011341022
0.0011028856
0.0010721046
0.0010417695
0.0010123199
0.00098341176
0.00095527767
0.00092769404
0.00089997139
0.00087135793
0.00084167465
0.0008111279
0.00077949367
0.00074682241
0.00071325826
0.00067892715
0.00064387741
0.00060770029
0.00057110973
0.00053408354
0.00049527031
0.000454064
0.00041051294
0.00036527526
0.00031666498
0.00026068123
0.00019685934
0.00013863951
9.3836497e-05
6.5668012e-05
5.3645258e-05
0.0045248115
0.0045018977
0.0044702837
0.0044347542
0.0043968245
0.0043578906
0.0043178628
0.0042771522
0.0042355067
0.0041930372
0.0041498126
0.0041060027
0.004061412
0.0040160109
0.0039700818
0.0039229747
0.0038749319
0.0038253552
0.0037745404
0.0037222912
0.0036683486
0.0036129708
0.0035562258
0.0034980413
0.0034386486
0.0033773558
0.003314443
0.0032489198
0.0031808742
0.0031096147
0.0030348737
0.0029558447
0.0028721544
0.0027835636
0.002689962
0.0025972266
0.0025434922
0.0025102601
0.0024857022
0.00246569
0.0024477644
0.0024311551
0.0024158056
0.0024006682
0.0023847176
0.0023677651
0.0023497944
0.0023307121
0.0023099876
0.0022872252
0.0022618867
0.0022337124
0.0022024855
0.0021680293
0.0021302306
0.0020890079
0.0020440153
0.0019956968
0.0019439289
0.0018894761
0.0018323689
0.0017731065
0.0017122541
0.0016502458
0.0015887912
0.0015310955
0.0014793214
0.0014328657
0.0013902152
0.0013504667
0.0013133033
0.0012795247
0.0012488614
0.0012201177
0.0011926664
0.0011657787
0.0011397768
0.001114544
0.001090348
0.0010675286
0.0010457243
0.0010247828
0.0010044209
0.00098463626
0.00096485278
0.00094489257
0.00092430691
0.00090251852
0.00087911666
0.00085406579
0.00082757603
0.00079947801
0.00076981248
0.00073868206
0.00070614835
0.00067221406
0.0006366004
0.00059990481
0.00056216546
0.0005234475
0.00048454732
0.00044629151
0.0004090094
0.00037112839
0.00033090425
0.00028689934
0.00023635647
0.00017268657
0.00010524922
6.7304751e-05
0.00452022
0.0044973097
0.0044656075
0.0044299271
0.0043918326
0.0043527211
0.0043125096
0.0042716071
0.0042297631
0.004187088
0.0041436513
0.0040996233
0.004054806
0.0040091666
0.0039629844
0.003915602
0.003867258
0.0038173485
0.0037661689
0.0037135229
0.0036591489
0.0036033057
0.0035460578
0.0034873225
0.0034273161
0.0033653201
0.0033015864
0.0032350755
0.0031658251
0.0030930654
0.0030164197
0.002934904
0.0028478929
0.0027547513
0.0026552214
0.0025748846
0.0025320355
0.0025026597
0.0024797322
0.0024603396
0.0024427128
0.0024261799
0.0024104781
0.0023946996
0.0023780122
0.0023602213
0.0023412092
0.0023207579
0.0022982755
0.002273373
0.0022454772
0.0022142537
0.0021793847
0.0021405723
0.0020975598
0.0020501121
0.0019976886
0.0019406189
0.0018786253
0.0018125284
0.0017424295
0.0016691815
0.0015940063
0.0015184213
0.0014459196
0.0013817299
0.0013287264
0.0012854134
0.0012490664
0.0012183426
0.0011934388
0.0011750486
0.0011614915
0.0011498451
0.0011379619
0.0011248081
0.0011106048
0.0010955247
0.0010801147
0.0010647874
0.0010493577
0.0010338245
0.0010181097
0.0010021385
0.00098546321
0.00096793264
0.0009492337
0.00092910304
0.00090743859
0.00088432507
0.00086000198
0.00083439489
0.00080762769
0.00077987074
0.00075127705
0.00072201919
0.0006921755
0.0006625157
0.00063348434
0.00060573433
0.000580087
0.00055717415
0.0005371724
0.00051943817
0.00050336678
0.00048757395
0.00046739893
0.00043250178
0.00036431753
0.00025774908
0.00022409429
6.7051979e-05
5.7128028e-05
6.9346621e-05
9.44735e-05
0.00013406468
0.00018545066
0.00023927297
0.00029017906
0.00033693449
0.00037936193
0.00041797377
0.000455791
0.00049561378
0.0005337909
0.00057372601
0.00062252998
0.00067116361
0.00071792347
0.00076251276
0.00080495194
0.00084562948
0.00088448309
0.00092389622
0.0009676982
0.001013868
0.0010599294
0.0011050394
0.001149677
0.0011933934
0.0012362245
0.0012782389
0.0013199152
0.0013608367
0.0014010259
0.0014409448
0.0014804513
0.0015206343
0.0015614207
0.0016028037
0.0016443241
0.0016853703
0.0017265063
0.0017681239
0.0018104962
0.0018533124
0.0018954193
0.001935785
0.0019742592
0.0020110911
0.0020464703
0.0020804437
0.002113135
0.0021441605
0.0021736234
0.0022011176
0.0022269082
0.0022509541
0.0022731956
0.0022936821
0.0023125025
0.0023298879
0.0023466208
0.0023634762
0.0023805042
0.0023967675
0.0024121264
0.0024273488
0.002445642
0.0024740483
0.0025081527
0.0025507613
0.002617009
0.0026908494
0.002766656
0.0028422099
0.0029161292
0.0029884847
0.0030590083
0.0031274039
0.0031935424
0.0032577718
0.0033200355
0.0033807396
0.0034395958
0.0034973812
0.0035536889
0.0036090831
0.0036632703
0.0037162805
0.0037680286
0.0038182587
0.0038672207
0.0039151076
0.0039616213
0.0040073307
0.0040519733
0.0040961622
0.0041395983
0.0041822928
0.0042244297
0.0042658408
0.0043064626
0.0043461837
0.0043852602
0.0044232764
0.0044603486
0.0044951075
0.0045262692
0.0045492121
7.8621584e-05
0.00059181173
0.0006444714
0.0006468517
0.00064704535
0.00064709114
0.00064711892
0.00064714241
0.00064716495
0.00064718701
0.00064720897
0.00064723114
0.00064725362
0.00064727634
0.00064729927
0.00064732259
0.00064734645
0.0006473708
0.00064739556
0.00064742079
0.00064744656
0.00064747303
0.00064750018
0.00064752887
0.00064755673
0.00064759066
0.00064761427
0.00064766411
0.00064764712
0.00064776786
0.00064755715
0.00064780613
0.00064675234
0.00064586869
0.0006351214
0.00059082579
0.00037250895
5.518549e-05
5.7672893e-06
7.4183984e-05
7.8204113e-05
0.00054836299
0.00064196648
0.00064851569
0.00064908475
0.00064916928
0.00064919703
0.00064921465
0.00064922964
0.00064924401
0.00064925845
0.00064927335
0.00064928893
0.00064930519
0.00064932221
0.00064934009
0.00064935899
0.00064937897
0.00064940013
0.00064942273
0.000649447
0.00064947341
0.00064950166
0.00064953429
0.00064956661
0.00064960994
0.00064964441
0.00064970518
0.00064971919
0.00064981488
0.0006496481
0.00064956899
0.00064776059
0.00064231571
0.00061531814
0.00051662111
0.00024421907
3.1013044e-05
5.5927742e-06
4.6177445e-05
7.7778035e-05
0.00051281103
0.00063606423
0.00064781009
0.00064897832
0.00064912924
0.00064916358
0.0006491801
0.00064919312
0.00064920529
0.00064921741
0.00064922984
0.00064924274
0.00064925616
0.0006492702
0.0006492849
0.00064930045
0.00064931697
0.00064933465
0.00064935383
0.00064937491
0.00064939835
0.00064942486
0.00064945497
0.00064949047
0.0006495301
0.00064958
0.00064962734
0.00064969282
0.00064968907
0.00064961872
0.00064879213
0.0006457905
0.000633077
0.00058755012
0.0004487935
0.00018380293
2.3100152e-05
5.213e-06
3.5920631e-05
7.7347262e-05
0.00048386774
0.00062920821
0.00064689095
0.00064893112
0.00064920403
0.0006492576
0.000649279
0.00064929497
0.00064931006
0.00064932543
0.00064934145
0.00064935834
0.00064937617
0.0006493951
0.00064941524
0.00064943681
0.00064946003
0.0006494853
0.00064951306
0.00064954397
0.00064957878
0.00064961869
0.00064966439
0.00064971938
0.0006497808
0.00064986036
0.00064993666
0.00065003623
0.00065002216
0.00064981235
0.00064823564
0.00064266576
0.00062176626
0.00055731604
0.00039494952
0.00015026837
1.8800039e-05
4.7832458e-06
3.4001705e-05
7.6919451e-05
0.00045979373
0.00062155196
0.00064557443
0.00064875572
0.00064921447
0.00064930078
0.00064933078
0.00064935141
0.00064937071
0.00064939051
0.00064941134
0.00064943346
0.00064945704
0.00064948232
0.00064950952
0.00064953892
0.00064957091
0.00064960605
0.00064964508
0.00064968898
0.00064973895
0.00064979667
0.00064986379
0.00064994422
0.0006500373
0.00065015333
0.00065027294
0.00065040234
0.00065036913
0.00064987249
0.00064725248
0.00063822342
0.00060852057
0.00052743856
0.00035255891
0.00012773676
1.5132219e-05
4.5159271e-06
3.886533e-05
7.6495538e-05
0.00043932919
0.00061330831
0.00064384223
0.00064842191
0.00064913828
0.00064927293
0.00064931444
0.00064934009
0.00064936345
0.0006493874
0.00064941275
0.00064943986
0.00064946898
0.00064950047
0.00064953465
0.00064957195
0.00064961294
0.00064965842
0.00064970943
0.00064976736
0.000649834
0.0006499117
0.0006500033
0.00065011336
0.00065024403
0.00065040275
0.00065057215
0.00065072664
0.00065063389
0.00064971085
0.00064569467
0.00063260808
0.00059401773
0.00049907978
0.00031747158
0.00010824943
1.0742934e-05
5.278222e-06
5.4805949e-05
7.607418e-05
0.00042169137
0.00060472539
0.00064176603
0.00064798263
0.00064903764
0.00064924127
0.00064929937
0.00064933163
0.00064935987
0.00064938868
0.00064941928
0.00064945216
0.0006494877
0.00064952635
0.00064956861
0.00064961508
0.00064966655
0.00064972411
0.00064978921
0.00064986375
0.00064995025
0.00065005199
0.00065017319
0.00065031954
0.00065049576
0.00065070619
0.00065093224
0.00065110381
0.00065090207
0.00064940042
0.0006436542
0.00062610041
0.00057880595
0.00047192984
0.00028476039
8.6216131e-05
6.0229088e-06
9.241275e-06
8.7586518e-05
7.5655093e-05
0.00040629488
0.00059596763
0.00063938108
0.00064744797
0.00064892878
0.00064922631
0.00064930763
0.00064934856
0.00064938271
0.00064941723
0.00064945394
0.00064949353
0.00064953653
0.00064958352
0.00064963521
0.0006496924
0.00064975617
0.00064982795
0.0006499097
0.00065000396
0.00065011417
0.00065024472
0.00065040147
0.00065059163
0.0006508219
0.00065109365
0.00065137992
0.00065155645
0.0006511813
0.00064894022
0.00064114994
0.00061881752
0.00056288411
0.00044452418
0.00024982055
6.1021862e-05
3.1917823e-06
1.9803069e-05
0.00013597568
7.524178e-05
0.00039279003
0.00058719733
0.00063671442
0.00064680167
0.00064879534
0.00064921481
0.00064932735
0.00064937939
0.00064942053
0.00064946151
0.00064950509
0.00064955223
0.00064960364
0.00064966007
0.00064972246
0.00064979187
0.0006498697
0.00064995783
0.0006500588
0.00065017596
0.0006503138
0.00065047808
0.00065067646
0.00065091798
0.00065121058
0.0006515518
0.00065189796
0.00065206026
0.00065143428
0.00064828815
0.00063815437
0.00061073982
0.0005458126
0.00041494539
0.00020990354
3.7434294e-05
2.8318216e-06
4.066371e-05
0.00019411786
7.4831008e-05
0.00038074204
0.00057843222
0.00063376723
0.00064602874
0.00064862712
0.00064920115
0.00064935495
0.00064942133
0.00064947083
0.00064951925
0.00064957061
0.0006496263
0.00064968723
0.00064975438
0.00064982895
0.0006499123
0.00065000623
0.00065011315
0.00065023629
0.00065037995
0.00065054987
0.0006507534
0.00065100019
0.00065130123
0.00065166481
0.0006520824
0.00065248475
0.00065260363
0.00065163366
0.00064739011
0.00063455541
0.00060155066
0.00052642607
0.00038030462
0.00016354092
1.9248148e-05
5.101935e-06
7.5170142e-05
0.00025807219
7.4422806e-05
0.00036990825
0.00056973415
0.00063056128
0.0006451221
0.00064841715
0.00064918194
0.00064938904
0.00064947382
0.00064953344
0.00064959045
0.00064965067
0.00064971605
0.00064978778
0.00064986711
0.00064995554
0.00065005481
0.00065016715
0.0006502956
0.00065044423
0.00065061841
0.00065082536
0.00065107422
0.00065137679
0.00065174594
0.00065218912
0.00065268839
0.00065313922
0.00065317523
0.00065175257
0.00064618804
0.00063020836
0.00059078566
0.00050338244
0.00033814826
0.00011469255
8.6693374e-06
1.2239992e-05
0.00012416007
0.00032328551
7.4017193e-05
0.00036010092
0.00056115171
0.00062711829
0.00064407362
0.00064815493
0.00064914962
0.00064942401
0.00064953211
0.00064960395
0.00064967089
0.00064974116
0.00064981748
0.00064990142
0.00064999452
0.00065009864
0.00065021595
0.00065034922
0.00065050219
0.00065067988
0.00065088893
0.00065113819
0.00065143886
0.00065180499
0.00065225102
0.00065278208
0.0006533664
0.00065385356
0.00065375713
0.00065175463
0.00064459973
0.00062490767
0.00057782661
0.00047538566
0.00028820422
7.2035869e-05
4.5501818e-06
2.8583912e-05
0.00018542101
0.00038644134
7.3614229e-05
0.00035116783
0.00055271534
0.00062345258
0.00064286776
0.00064782038
0.00064908619
0.00064944371
0.00064958096
0.0006496675
0.00064974586
0.00064982747
0.00064991608
0.00065001369
0.00065012223
0.00065024398
0.00065038158
0.0006505384
0.00065071902
0.00065092953
0.00065117799
0.00065147512
0.00065183431
0.00065227197
0.0006528036
0.00065343003
0.00065410038
0.00065460625
0.0006543162
0.00065158103
0.00064249694
0.00061835136
0.00056190415
0.00044119896
0.00023206166
4.0380901e-05
4.6149817e-06
5.8943431e-05
0.00025488997
0.0004465661
7.3214043e-05
0.00034298332
0.00054443652
0.00061956368
0.00064147308
0.00064737478
0.00064895389
0.00064941195
0.00064958506
0.00064968918
0.00064978063
0.00064987495
0.00064997721
0.00065009
0.00065021569
0.00065035701
0.00065051716
0.0006507002
0.00065091162
0.00065115872
0.00065145116
0.0006518017
0.00065222609
0.00065274301
0.0006533683
0.00065409601
0.00065484974
0.00065534891
0.0006547872
0.00065112698
0.00063966984
0.00061008107
0.00054197641
0.00039942306
0.0001725687
2.0009668e-05
9.0364813e-06
0.00010571191
0.00032794975
0.00050271376
7.2816945e-05
0.00033544016
0.0005363026
0.00061542249
0.00063982507
0.00064674224
0.00064867595
0.00064925296
0.00064946938
0.00064959429
0.0006497006
0.00064980898
0.0006499262
0.00065005557
0.00065019997
0.00065036267
0.00065054747
0.00065075918
0.00065100429
0.00065129145
0.00065163206
0.00065204107
0.00065253666
0.00065313957
0.0006538649
0.00065469683
0.00065552575
0.0006559819
0.00065504743
0.00065021644
0.00063580999
0.00059947556
0.00051683147
0.00034915271
0.00011588838
9.5070042e-06
2.1150819e-05
0.00016812311
0.00040158937
0.0005544145
7.2426511e-05
0.0003284812
0.00052830862
0.00061097035
0.00063780552
0.00064578046
0.00064810391
0.00064881743
0.00064908472
0.00064923367
0.00064935649
0.00064948003
0.00064961318
0.00064976013
0.00064992434
0.00065010967
0.00065032055
0.00065056261
0.00065084342
0.00065117302
0.00065156466
0.00065203555
0.00065260625
0.00065329914
0.00065412719
0.00065506103
0.00065594927
0.00065631373
0.00065488209
0.00064858317
0.0006305305
0.00058586538
0.00048554528
0.00029164796
7.0206239e-05
6.1909087e-06
4.6244202e-05
0.00024189555
0.0004729879
0.00060198715
7.204145e-05
0.00032194426
0.00052027126
0.00060598661
0.00063514928
0.00064420444
0.00064694735
0.00064781423
0.00064814008
0.00064831639
0.0006484572
0.00064859668
0.00064874626
0.00064891121
0.00064909566
0.00064930405
0.00064954152
0.00064981454
0.00065013174
0.00065050465
0.00065094833
0.00065148223
0.00065212909
0.00065291225
0.0006538408
0.00065486762
0.00065578972
0.00065599794
0.00065391265
0.00064577248
0.00062319043
0.00056819943
0.00044671018
0.00022858672
3.8034982e-05
8.0595811e-06
8.8841257e-05
0.00032214214
0.00054007764
0.00064466918
7.1663867e-05
0.00031568778
0.00051193085
0.00060008492
0.00063137789
0.00064149429
0.00064467241
0.00064570565
0.00064609681
0.00064630334
0.00064646307
0.00064661849
0.00064678405
0.00064696626
0.00064716997
0.00064740029
0.00064766299
0.00064796537
0.00064831713
0.00064873114
0.0006492242
0.00064981777
0.00065053629
0.00065140319
0.00065242168
0.00065352251
0.00065444095
0.0006544124
0.00065148879
0.00064106544
0.00061288584
0.00054515141
0.00039903256
0.00016404623
1.8760621e-05
1.6836009e-05
0.00014951461
0.00040373824
0.00060153059
0.00068267991
7.1296774e-05
0.00030950364
0.00050281314
0.00059256209
0.000625644
0.00063673729
0.00064034257
0.00064154774