/*--------------------------------*- C++ -*----------------------------------*\
| =========                 |                                                 |
| \\      /  F ield         | OpenFOAM: The Open Source CFD Toolbox           |
|  \\    /   O peration     | Version:  2.3.0                                 |
|   \\  /    A nd           | Web:      www.OpenFOAM.org                      |
|    \\/     M anipulation  |                                                 |
\*---------------------------------------------------------------------------*/
FoamFile
{
    version     2.0;
    format      ascii;
    class       volScalarField;
    location    "0.2";
    object      N2;
}
// * * * * * * * * * * * * * * * * * * * * * * * * * * * * * * * * * * * * * //

dimensions      [0 0 0 0 0 0 0];

internalField   nonuniform List<scalar> 
5835
(
0.64730001
0.64730008
0.64730094
0.64730728
0.6473
0.6473
0.6473
0.64730002
0.6473
0.6473
0.742
0.742
0.742
0.742
0.742
0.742
0.742
0.742
0.742
0.742
0.742
0.742
0.742
0.742
0.742
0.742
0.742
0.742
0.742
0.742
0.6473
0.6473
0.6473
0.6473
0.6473
0.6473
0.6473
0.6473
0.6473
0.6473
0.6473
0.6473
0.6473
0.6473
0.6473
0.6473
0.6473
0.6473
0.6473
0.6473
0.6473
0.6473
0.6473
0.6473
0.6473
0.6473
0.6473
0.6473
0.6473
0.6473
0.6473
0.6473
0.6473
0.6473
0.6473
0.6473
0.6473
0.6473
0.6473
0.6473
0.6473
0.6473
0.6473
0.6473
0.6473
0.6473
0.6473
0.6473
0.6473
0.6473
0.6473
0.6473
0.6473
0.6473
0.6473
0.6473
0.6473
0.6473
0.6473
0.6473
0.6473
0.6473
0.6473
0.6473
0.6473
0.6473
0.6473
0.6473
0.6473
0.6473
0.6473
0.6473
0.6473
0.6473
0.6473
0.6473
0.6473
0.6473
0.6473
0.6473
0.6473
0.6473
0.6473
0.6473
0.6473
0.6473
0.6473
0.6473
0.6473
0.6473
0.742
0.742
0.742
0.742
0.742
0.742
0.742
0.742
0.742
0.742
0.742
0.742
0.742
0.742
0.742
0.742
0.742
0.742
0.742
0.742
0.742
0.742
0.742
0.742
0.742
0.742
0.742
0.742
0.742
0.742
0.742
0.742
0.742
0.742
0.742
0.742
0.742
0.742
0.742
0.742
0.742
0.742
0.742
0.742
0.742
0.742
0.742
0.742
0.742
0.742
0.742
0.742
0.742
0.742
0.742
0.742
0.742
0.742
0.742
0.742
0.742
0.742
0.742
0.742
0.742
0.742
0.742
0.742
0.742
0.742
0.742
0.742
0.742
0.742
0.742
0.742
0.742
0.742
0.742
0.742
0.742
0.742
0.742
0.742
0.742
0.742
0.742
0.742
0.742
0.742
0.7420001
0.74200003
0.742
0.74199997
0.74199986
0.74200472
0.74200168
0.74200022
0.74199838
0.74199178
0.74222238
0.74208354
0.74201847
0.74192626
0.74149319
0.75229554
0.75230636
0.75233024
0.75236651
0.75199419
0.75200546
0.75203034
0.75206812
0.75161407
0.75162592
0.75165209
0.7516918
0.75120644
0.75121892
0.75124647
0.7512883
0.75078157
0.75079473
0.75082379
0.75086788
0.75034307
0.75035695
0.75038759
0.75043409
0.74988919
0.74990384
0.74993618
0.74998525
0.74942098
0.74943645
0.7494706
0.7495224
0.74893556
0.7489519
0.74898798
0.74904271
0.74843273
0.74845001
0.74848816
0.74854603
0.74791216
0.74793045
0.74797081
0.74803204
0.74737332
0.74739268
0.74743542
0.74750025
0.74681324
0.74683376
0.74687907
0.74694778
0.74623225
0.74625404
0.7463021
0.74637498
0.74563241
0.74565554
0.74570657
0.74578392
0.7450086
0.74503319
0.74508742
0.7451696
0.74436408
0.74439024
0.74444791
0.74453527
0.74369438
0.74372224
0.74378363
0.7438766
0.74300297
0.74303265
0.74309803
0.74319703
0.74228559
0.74231724
0.74238694
0.74249245
0.74153752
0.7415713
0.74164569
0.74175829
0.74075897
0.74079505
0.74087454
0.74099483
0.73994708
0.73998567
0.7400707
0.74019938
0.73909876
0.73914009
0.7392312
0.73936903
0.73821435
0.73825868
0.73835642
0.73850426
0.73728656
0.73733422
0.73743928
0.73759813
0.73632093
0.73637225
0.73648533
0.73665623
0.73530956
0.73536494
0.7354869
0.7356711
0.73425971
0.73431957
0.73445128
0.73465007
0.73316808
0.73323289
0.73337534
0.73359017
0.73203616
0.73210642
0.73226069
0.73249314
0.73085838
0.73093467
0.73110198
0.73135383
0.72963641
0.72971939
0.72990091
0.73017401
0.72837338
0.72846491
0.72866202
0.72895739
0.72708688
0.72718291
0.727393
0.72770855
0.72578432
0.7258861
0.72610924
0.72644556
0.7244773
0.72458451
0.72481963
0.72517404
0.72316131
0.72327426
0.72352201
0.7238954
0.72183291
0.72195211
0.72221365
0.72260766
0.72047883
0.72060495
0.72088172
0.72129848
0.71909578
0.71922959
0.71952319
0.71996503
0.71768237
0.71782471
0.71813694
0.71860646
0.71623739
0.71638917
0.71672196
0.71722196
0.71476011
0.71492234
0.7152778
0.71581131
0.71324284
0.71341671
0.71379735
0.71436796
0.71168469
0.71187159
0.71228032
0.71289219
0.71008459
0.71028612
0.7107263
0.71138423
0.70844021
0.70865817
0.7091336
0.70984296
0.70673977
0.70697628
0.70749142
0.70825848
0.70498977
0.70524714
0.70580679
0.70663826
0.70317772
0.70345875
0.7040687
0.70497258
0.70130033
0.70160828
0.70227527
0.70326073
0.69935475
0.69969349
0.7004254
0.70150301
0.69733837
0.69771247
0.69851855
0.69970048
0.69524873
0.69566366
0.69655479
0.69785502
0.69308326
0.69354555
0.6945345
0.69596899
0.69082528
0.69134315
0.69244571
0.69403357
0.68848955
0.68907243
0.6903061
0.69206738
0.686063
0.68672243
0.68810779
0.69006487
0.68357194
0.68432021
0.68587776
0.68805099
0.68101804
0.68186786
0.68361707
0.6860243
0.67843959
0.67939956
0.68135115
0.68400099
0.67590655
0.67697286
0.67911767
0.68200256
0.67352919
0.67467459
0.67697247
0.68006296
0.67143172
0.67261057
0.67499851
0.67824717
0.66963394
0.6708273
0.6732648
0.67662656
0.66803221
0.66925643
0.67174982
0.67520339
0.66654511
0.66781567
0.67038251
0.67392583
0.66514363
0.6664687
0.66912008
0.6727554
0.66381981
0.66520359
0.66794481
0.67167391
0.66255895
0.66400469
0.66683973
0.6706657
0.66137085
0.6628799
0.66581035
0.66973583
0.66025256
0.66182452
0.66484925
0.66887522
0.6591918
0.66082532
0.66394195
0.66806826
0.65819841
0.65989046
0.6630942
0.66731786
0.65726098
0.65900832
0.66229481
0.6666134
0.6563876
0.65818564
0.66154948
0.66595977
0.65556658
0.65741031
0.66084677
0.66534707
0.65479651
0.65667992
0.66018449
0.66477457
0.65408362
0.65599902
0.65956566
0.66424444
0.65341739
0.65535627
0.65897868
0.66374586
0.65279638
0.65474924
0.65842049
0.66327602
0.65221915
0.65417583
0.65788835
0.66283241
0.65169041
0.65364024
0.65738489
0.66241571
0.65120137
0.65313365
0.65690099
0.6620173
0.65075179
0.65265608
0.65643617
0.66163609
0.65033834
0.65220444
0.65598693
0.66126817
0.64995928
0.65177745
0.65555188
0.66091213
0.64961293
0.65137392
0.65512991
0.6605675
0.64929762
0.65099263
0.6547198
0.66023383
0.64901368
0.65063471
0.65432239
0.65991155
0.64875735
0.6502964
0.65393344
0.65959785
0.64852731
0.64997686
0.65355184
0.65929341
0.64832228
0.6496753
0.65317591
0.658998
0.64814102
0.64939105
0.65280359
0.65871075
0.64798231
0.6491237
0.65243262
0.65843042
0.64784386
0.64887132
0.6520584
0.65815504
0.64772569
0.64863624
0.65168177
0.6578862
0.64762637
0.64841887
0.65130058
0.65761979
0.6475443
0.64821965
0.65091267
0.65734801
0.64747775
0.64803897
0.65051641
0.65705841
0.64742521
0.64787819
0.6501142
0.65673953
0.64738493
0.64773854
0.64971044
0.65637662
0.64735478
0.64761916
0.64930605
0.65594206
0.64733329
0.64752091
0.64890876
0.6554015
0.64731877
0.64744329
0.64852822
0.65472361
0.64730957
0.64738521
0.64817839
0.65388995
0.64730422
0.64734461
0.64787055
0.65287269
0.64730145
0.64731878
0.64761255
0.65159646
0.6473003
0.647305
0.64741707
0.64996923
0.6701168
0.6684447
0.66671954
0.66565481
0.66500977
0.66456337
0.66421231
0.66393289
0.66373141
0.66359614
0.66351452
0.66347789
0.66348553
0.66353356
0.66361679
0.66372624
0.66385743
0.66400973
0.66418211
0.66437288
0.66457923
0.66480234
0.66504238
0.66529858
0.66557073
0.66586037
0.66617162
0.66650552
0.66686964
0.66726441
0.66769132
0.66815254
0.66865792
0.66920548
0.66979435
0.67043352
0.67111861
0.67185965
0.67265502
0.6735193
0.67446045
0.67547176
0.67656728
0.67776412
0.67909628
0.68060962
0.68229771
0.68409183
0.68593555
0.68780292
0.68967811
0.69154892
0.69341835
0.69526359
0.69708956
0.69887789
0.7006358
0.70236005
0.70404782
0.70569714
0.70730688
0.70887697
0.71041628
0.7119171
0.71338868
0.71483173
0.71624556
0.71762948
0.7189896
0.72032603
0.72163937
0.72293024
0.72420135
0.72546463
0.72672126
0.72796536
0.72919833
0.73039701
0.73155975
0.73268337
0.73376611
0.73481297
0.73582213
0.73679642
0.7377285
0.73862566
0.73948229
0.74030517
0.74109379
0.74185096
0.74257933
0.74327857
0.74395319
0.74460726
0.74523733
0.74584767
0.74643506
0.74700442
0.74755371
0.74808254
0.74859376
0.74908787
0.74956515
0.75002575
0.75047248
0.75090429
0.75132284
0.7517246
0.75209932
0.75239646
0.75283536
0.75255629
0.75220465
0.75182806
0.75143647
0.75103323
0.75061697
0.75018874
0.74974608
0.749289
0.74881737
0.74833087
0.74782708
0.74730651
0.74677123
0.74621701
0.74564704
0.74505775
0.74445257
0.7438282
0.743181
0.74251169
0.74181838
0.74109914
0.74035499
0.7395808
0.7387822
0.73795394
0.73710323
0.73622872
0.73533289
0.73441242
0.73346921
0.73250576
0.73152435
0.73052289
0.72950592
0.7284742
0.72743515
0.72638994
0.72533953
0.72428585
0.72323371
0.72218308
0.72113052
0.72008083
0.71903751
0.718005
0.71697914
0.71596669
0.7149637
0.71397343
0.71299954
0.71204586
0.71111642
0.71021406
0.70933584
0.70848985
0.7076704
0.70688385
0.70612593
0.70540147
0.70471969
0.70409585
0.70355516
0.70312325
0.70280044
0.70256522
0.70239897
0.70229182
0.70224582
0.70226802
0.70235895
0.70251508
0.70272623
0.70298967
0.70330281
0.70366928
0.70409298
0.70457109
0.70511322
0.70572552
0.70641153
0.70716358
0.70799829
0.70892799
0.7099682
0.71112694
0.71240367
0.71376237
0.71520454
0.71675845
0.71844753
0.72029765
0.72230417
0.72451611
0.72694336
0.72960824
0.73252725
0.73572849
0.73915327
0.74277194
0.74632213
0.74982063
0.75275924
0.75472481
0.75564946
0.75571589
0.75501337
0.75243247
0.75271211
0.752428
0.75206995
0.75168635
0.75128727
0.75087611
0.75045139
0.75001419
0.74956194
0.74909462
0.74861204
0.74811386
0.74759753
0.74706354
0.74651396
0.74594436
0.74535796
0.74475099
0.74412688
0.74348213
0.74281288
0.74211973
0.74140063
0.74065342
0.73987903
0.73907193
0.73823779
0.73737087
0.73647847
0.73555893
0.73461459
0.73364177
0.73264229
0.73161869
0.73057318
0.72950516
0.72841885
0.72731763
0.72621265
0.72510137
0.72398174
0.72285559
0.72172522
0.72059083
0.71944871
0.71830277
0.71715643
0.71601261
0.7148662
0.71372474
0.71258396
0.71144696
0.71031761
0.70920031
0.70809955
0.70701893
0.70595553
0.70491962
0.70390566
0.70292218
0.70196346
0.7010337
0.70014195
0.69930521
0.69855489
0.69792281
0.69740844
0.6969862
0.69663428
0.69634081
0.6961051
0.69593549
0.69583185
0.69578852
0.69579749
0.69585427
0.69595756
0.69610889
0.69631308
0.69656985
0.69688511
0.69726453
0.69771172
0.69822269
0.69880924
0.69947955
0.70024158
0.70109567
0.70203774
0.70306161
0.70416951
0.70538285
0.70671966
0.70819679
0.70982264
0.7116245
0.7136375
0.71590157
0.71846423
0.72130428
0.72443294
0.72791425
0.731782
0.736063
0.7405399
0.74424435
0.7466196
0.74747795
0.74697724
0.74505494
0.752604
0.75231545
0.75195172
0.75156195
0.75115625
0.75073807
0.75030587
0.74986072
0.74939998
0.74892357
0.74843128
0.74792272
0.74739524
0.74684931
0.74628698
0.74570366
0.74510258
0.74447979
0.74383874
0.74317571
0.74248664
0.74177204
0.74102969
0.74025722
0.73945546
0.73861848
0.73775197
0.73684972
0.73591909
0.73495805
0.73396884
0.73294736
0.73189542
0.73081556
0.72970951
0.72858116
0.727433
0.72627434
0.72511371
0.72394339
0.72276097
0.72156747
0.72036386
0.7191505
0.71792319
0.71668495
0.71543868
0.71418615
0.71292121
0.71165187
0.71037309
0.7090876
0.70779915
0.70651226
0.70523176
0.70396197
0.70269968
0.70145779
0.70023115
0.69903128
0.69785181
0.69669703
0.6955761
0.69450756
0.69352842
0.69267722
0.69195343
0.69132717
0.69077345
0.69027807
0.68983671
0.68945907
0.68914509
0.68888776
0.68868202
0.68852142
0.68840608
0.68833465
0.68831201
0.68833924
0.68841803
0.68855297
0.68874734
0.6889991
0.68931444
0.68969765
0.69015086
0.69067245
0.6912618
0.69192222
0.69265617
0.69347865
0.69440369
0.69544418
0.69661079
0.69792167
0.69941148
0.70110833
0.70303669
0.70520725
0.70766742
0.71051539
0.71388474
0.71792837
0.72268875
0.72830047
0.7344522
0.73931278
0.74215698
0.7426195
0.75251148
0.75221912
0.7518505
0.7514554
0.751044
0.75061977
0.75018112
0.74972912
0.74926104
0.74877678
0.74827609
0.74775856
0.74722143
0.74666514
0.74609174
0.74549651
0.74488266
0.74424609
0.74359025
0.74291127
0.74220489
0.74147154
0.74070882
0.73991418
0.73908833
0.738225
0.73732987
0.73639626
0.73543156
0.7344334
0.73340387
0.7323385
0.73123905
0.73010812
0.72894732
0.72776646
0.7265679
0.7253627
0.72415385
0.72293126
0.72169248
0.7204378
0.71916741
0.71788162
0.71657556
0.71525134
0.71391109
0.71255558
0.71117753
0.70978511
0.70837205
0.70694039
0.70549333
0.70403498
0.70257003
0.70110316
0.69963043
0.69816749
0.69670976
0.69527275
0.69385053
0.69244887
0.69107798
0.68975829
0.688532
0.6874443
0.68649484
0.68564957
0.68488145
0.68417488
0.68352152
0.68293164
0.68240479
0.68193297
0.68151506
0.68114326
0.68081965
0.68053989
0.68030763
0.68012455
0.67998756
0.67989868
0.67985935
0.67986797
0.67992441
0.68002949
0.68018154
0.68037902
0.68062304
0.68091759
0.68126414
0.68167094
0.68214728
0.68270139
0.6833411
0.68407763
0.68493614
0.68593767
0.68710314
0.68845869
0.69005373
0.69197008
0.69431392
0.69723318
0.70088969
0.70565384
0.71214272
0.72114968
0.73152667
0.73844635
0.75243496
0.75213942
0.75176675
0.75136722
0.75095107
0.75052181
0.7500778
0.74962008
0.74914589
0.74865509
0.7481474
0.74762237
0.74707718
0.74651223
0.74592957
0.74532434
0.74469977
0.74405163
0.74338336
0.74269097
0.74197002
0.74122087
0.74044098
0.73962762
0.73878141
0.73789572
0.73697622
0.73601584
0.73502193
0.73399183
0.73292746
0.731824
0.73068319
0.7295076
0.72829274
0.72707649
0.72583916
0.72459553
0.72334567
0.72207822
0.72079059
0.71948248
0.71815357
0.71680396
0.71542801
0.71402695
0.712602
0.71115301
0.70967152
0.70816552
0.70662722
0.70505759
0.70345876
0.70183378
0.70018655
0.69852132
0.69683261
0.69513833
0.69343424
0.69174057
0.69005328
0.68838191
0.68674043
0.68515377
0.68367024
0.68234008
0.68116171
0.68009731
0.67912069
0.67821874
0.67738061
0.67661463
0.67591596
0.67527256
0.67468546
0.67414561
0.67365668
0.67321179
0.67281235
0.67246013
0.67214795
0.67187483
0.6716397
0.67144151
0.67127507
0.67113927
0.67103077
0.67094846
0.6708933
0.67086722
0.67087097
0.67090734
0.67098167
0.67109862
0.67126317
0.67148245
0.67177198
0.67214855
0.67263006
0.6732389
0.67400504
0.6749736
0.67620139
0.67777018
0.67976546
0.68237129
0.68594714
0.69118832
0.69962394
0.71408105
0.7613596
0.7616991
0.76136312
0.76093142
0.7600666
0.75842706
0.75591812
0.75291
0.74979516
0.74653014
0.74325832
0.74020679
0.73740395
0.73477974
0.73229679
0.72996668
0.7277912
0.72574318
0.72386246
0.7221157
0.7204779
0.71891779
0.71742933
0.7161024
0.71490496
0.71382343
0.71284068
0.71194202
0.71110783
0.71035079
0.70966683
0.70904974
0.70848712
0.70798554
0.70754112
0.70714917
0.70681375
0.70653665
0.70632893
0.70619172
0.7061234
0.70611778
0.70617151
0.70629354
0.70650064
0.70681192
0.70722587
0.70772031
0.70827475
0.70887517
0.70951254
0.710181
0.71088323
0.7116143
0.71237961
0.71317215
0.71399513
0.71484612
0.71572144
0.71661782
0.71753188
0.71846012
0.71940682
0.72036576
0.72134054
0.72232542
0.72331709
0.72431032
0.72530828
0.72631057
0.72730844
0.72830485
0.72929469
0.73027585
0.73124451
0.73219966
0.73313705
0.73405902
0.73496329
0.73584739
0.7367094
0.73755237
0.7383738
0.73917483
0.73994834
0.74069925
0.74142198
0.74212138
0.74279634
0.74344866
0.74408008
0.74468984
0.7452814
0.74585794
0.74641604
0.74695915
0.74748407
0.74799492
0.74848965
0.74896767
0.74943138
0.74988103
0.75031672
0.75073842
0.75114854
0.75154599
0.75193213
0.75230362
0.75265058
0.75292596
0.77
0.77
0.77
0.77
0.77
0.77
0.77
0.77
0.77
0.77
0.77
0.77
0.77
0.77
0.77
0.77
0.77
0.77
0.77
0.77
0.77
0.77
0.77
0.77
0.77
0.77
0.77
0.77
0.77
0.77
0.77
0.77
0.77
0.77
0.77
0.76999999
0.76999994
0.76999925
0.7699641
0.76876223
0.77
0.77
0.77
0.77
0.77
0.77
0.77
0.77
0.77
0.77
0.77
0.77
0.77
0.77
0.77
0.77
0.77
0.77
0.77
0.77
0.77
0.77
0.77
0.77
0.77
0.77
0.77
0.77
0.77
0.77
0.77
0.77
0.77
0.77
0.76999999
0.76999997
0.76999983
0.76999803
0.76992179
0.76830741
0.77
0.77
0.77
0.77
0.77
0.77
0.77
0.77
0.77
0.77
0.77
0.77
0.77
0.77
0.77
0.77
0.77
0.77
0.77
0.77
0.77
0.77
0.77
0.77
0.77
0.77
0.77
0.77
0.77
0.77
0.77
0.77
0.77
0.77
0.76999998
0.76999994
0.76999967
0.76999629
0.76987344
0.76787772
0.77
0.77
0.77
0.77
0.77
0.77
0.77
0.77
0.77
0.77
0.77
0.77
0.77
0.77
0.77
0.77
0.77
0.77
0.77
0.77
0.77
0.77
0.77
0.77
0.77
0.77
0.77
0.77
0.77
0.77
0.77
0.77
0.77
0.76999999
0.76999997
0.76999989
0.76999946
0.76999403
0.76981882
0.76741995
0.77
0.77
0.77
0.77
0.77
0.77
0.77
0.77
0.77
0.77
0.77
0.77
0.77
0.77
0.77
0.77
0.77
0.77
0.77
0.77
0.77
0.77
0.77
0.77
0.77
0.77
0.77
0.77
0.77
0.77
0.77
0.77
0.77
0.76999999
0.76999995
0.76999984
0.7699992
0.76999121
0.76975162
0.76685722
0.77
0.77
0.77
0.77
0.77
0.77
0.77
0.77
0.77
0.77
0.77
0.77
0.77
0.77
0.77
0.77
0.77
0.77
0.77
0.77
0.77
0.77
0.77
0.77
0.77
0.77
0.77
0.77
0.77
0.77
0.77
0.77
0.76999999
0.76999998
0.76999993
0.76999978
0.76999889
0.76998753
0.7696528
0.76606622
0.77
0.77
0.77
0.77
0.77
0.77
0.77
0.77
0.77
0.77
0.77
0.77
0.77
0.77
0.77
0.77
0.77
0.77
0.77
0.77
0.77
0.77
0.77
0.77
0.77
0.77
0.77
0.77
0.77
0.77
0.77
0.77
0.76999999
0.76999997
0.76999991
0.76999971
0.76999852
0.76998186
0.7694781
0.76490548
0.77
0.77
0.77
0.77
0.77
0.77
0.77
0.77
0.77
0.77
0.77
0.77
0.77
0.77
0.77
0.77
0.77
0.77
0.77
0.77
0.77
0.77
0.77
0.77
0.77
0.77
0.77
0.77
0.77
0.77
0.77
0.76999999
0.76999998
0.76999996
0.76999989
0.76999963
0.76999803
0.76997062
0.76916519
0.76336101
0.77
0.77
0.77
0.77
0.77
0.77
0.77
0.77
0.77
0.77
0.77
0.77
0.77
0.77
0.77
0.77
0.77
0.77
0.77
0.77
0.77
0.77
0.77
0.77
0.77
0.77
0.77
0.77
0.77
0.77
0.77
0.76999999
0.76999998
0.76999995
0.76999986
0.76999954
0.76999728
0.76994507
0.76866111
0.76153584
0.77
0.77
0.77
0.77
0.77
0.77
0.77
0.77
0.77
0.77
0.77
0.77
0.77
0.77
0.77
0.77
0.77
0.77
0.77
0.77
0.77
0.77
0.77
0.77
0.77
0.77
0.77
0.77
0.77
0.77
0.77
0.76999999
0.76999997
0.76999994
0.76999983
0.76999943
0.76999589
0.76988539
0.76792307
0.75945224
0.77
0.77
0.77
0.77
0.77
0.77
0.77
0.77
0.77
0.77
0.77
0.77
0.77
0.77
0.77
0.77
0.77
0.77
0.77
0.77
0.77
0.77
0.77
0.77
0.77
0.77
0.77
0.77
0.77
0.77
0.76999999
0.76999999
0.76999997
0.76999992
0.7699998
0.76999926
0.76999272
0.76975477
0.76693536
0.75713671
0.77
0.77
0.77
0.77
0.77
0.77
0.77
0.77
0.77
0.77
0.77
0.77
0.77
0.77
0.77
0.77
0.77
0.77
0.77
0.77
0.77
0.77
0.77
0.77
0.77
0.77
0.77
0.77
0.77
0.77
0.76999999
0.76999998
0.76999996
0.76999991
0.76999976
0.76999895
0.76998423
0.76950057
0.76571204
0.75465429
0.77
0.77
0.77
0.77
0.77
0.77
0.77
0.77
0.77
0.77
0.77
0.77
0.77
0.77
0.77
0.77
0.77
0.77
0.77
0.77
0.77
0.77
0.77
0.77
0.77
0.77
0.77
0.77
0.77
0.77
0.76999999
0.76999998
0.76999995
0.76999989
0.7699997
0.76999832
0.76996081
0.76907238
0.76430687
0.75220246
0.77
0.77
0.77
0.77
0.77
0.77
0.77
0.77
0.77
0.77
0.77
0.77
0.77
0.77
0.77
0.77
0.77
0.77
0.77
0.77
0.77
0.77
0.77
0.77
0.77
0.77
0.77
0.77
0.77
0.77
0.76999999
0.76999998
0.76999995
0.76999987
0.7699996
0.76999693
0.76990204
0.76845207
0.76277224
0.74981097
0.77
0.77
0.77
0.77
0.77
0.77
0.77
0.77
0.77
0.77
0.77
0.77
0.77
0.77
0.77
0.77
0.77
0.77
0.77
0.77
0.77
0.77
0.77
0.77
0.77
0.77
0.77
0.77
0.77
0.76999999
0.76999999
0.76999997
0.76999994
0.76999984
0.76999942
0.76999336
0.76977333
0.76764918
0.76113769
0.74742029
0.77
0.77
0.77
0.77
0.77
0.77
0.77
0.77
0.77
0.77
0.77
0.77
0.77
0.77
0.77
0.77
0.77
0.77
0.77
0.77
0.77
0.77
0.77
0.77
0.77
0.77
0.77
0.77
0.77
0.76999999
0.76999998
0.76999997
0.76999993
0.7699998
0.76999906
0.76998319
0.76953339
0.76669447
0.75944156
0.74506829
0.77
0.77
0.77
0.77
0.77
0.77
0.77
0.77
0.77
0.77
0.77
0.77
0.77
0.77
0.77
0.77
0.77
0.77
0.77
0.77
0.77
0.77
0.77
0.77
0.77
0.77
0.77
0.77
0.77
0.76999999
0.76999998
0.76999996
0.76999991
0.76999973
0.76999828
0.76995496
0.76914591
0.76560478
0.75765933
0.74273347
0.77
0.77
0.77
0.77
0.77
0.77
0.77
0.77
0.77
0.77
0.77
0.77
0.77
0.77
0.77
0.77
0.77
0.77
0.77
0.77
0.77
0.77
0.77
0.77
0.77
0.77
0.77
0.77
0.77
0.76999999
0.76999998
0.76999995
0.76999989
0.7699996
0.76999643
0.76988615
0.76860006
0.76439717
0.75578255
0.74043163
0.77
0.77
0.77
0.77
0.77
0.77
0.77
0.77
0.77
0.77
0.77
0.77
0.77
0.77
0.77
0.77
0.77
0.77
0.77
0.77
0.77
0.77
0.77
0.77
0.77
0.77
0.77
0.77
0.76999999
0.76999999
0.76999997
0.76999994
0.76999985
0.76999936
0.76999121
0.76974282
0.76790832
0.76309836
0.75386873
0.73827361
0.77
0.77
0.77
0.77
0.77
0.77
0.77
0.77
0.77
0.77
0.77
0.77
0.77
0.77
0.77
0.77
0.77
0.77
0.77
0.77
0.77
0.77
0.77
0.77
0.77
0.77
0.77
0.77
0.76999999
0.76999999
0.76999997
0.76999993
0.76999979
0.76999885
0.76997589
0.76948896
0.76709165
0.76172916
0.7519447
0.73622256
0.77
0.77
0.77
0.77
0.77
0.77
0.77
0.77
0.77
0.77
0.77
0.77
0.77
0.77
0.77
0.77
0.77
0.77
0.77
0.77
0.77
0.77
0.77
0.77
0.77
0.77
0.77
0.77
0.76999999
0.76999998
0.76999996
0.76999991
0.7699997
0.76999767
0.76993536
0.76910463
0.76617316
0.76030743
0.75003042
0.734258
0.77
0.77
0.77
0.77
0.77
0.77
0.77
0.77
0.77
0.77
0.77
0.77
0.77
0.77
0.77
0.77
0.77
0.77
0.77
0.77
0.77
0.77
0.77
0.77
0.77
0.77
0.77
0.77
0.76999999
0.76999998
0.76999995
0.76999988
0.76999951
0.76999455
0.76984358
0.76859062
0.76516958
0.75882683
0.74817078
0.73234242
0.77
0.77
0.77
0.77
0.77
0.77
0.77
0.77
0.77
0.77
0.77
0.77
0.77
0.77
0.77
0.77
0.77
0.77
0.77
0.77
0.77
0.77
0.77
0.77
0.77
0.77
0.77
0.77
0.76999999
0.76999998
0.76999994
0.76999983
0.76999913
0.76998533
0.76967079
0.76797223
0.76411418
0.75733844
0.74639384
0.73046044
0.77
0.77
0.77
0.77
0.77
0.77
0.77
0.77
0.77
0.77
0.77
0.77
0.77
0.77
0.77
0.77
0.77
0.77
0.77
0.77
0.77
0.77
0.77
0.77
0.77
0.77
0.77
0.76999999
0.76999999
0.76999997
0.76999993
0.76999975
0.7699983
0.76995992
0.76939655
0.76727606
0.76303552
0.75589953
0.74476533
0.72885662
0.77
0.77
0.77
0.77
0.77
0.77
0.77
0.77
0.77
0.77
0.77
0.77
0.77
0.77
0.77
0.77
0.77
0.77
0.77
0.77
0.77
0.77
0.77
0.77
0.77
0.77
0.77
0.76999999
0.76999999
0.76999997
0.7699999
0.76999961
0.76999627
0.76990036
0.76902117
0.76652508
0.76195043
0.75451576
0.7432379
0.72736596
0.77
0.77
0.77
0.77
0.77
0.77
0.77
0.77
0.77
0.77
0.77
0.77
0.77
0.77
0.77
0.77
0.77
0.77
0.77
0.77
0.77
0.77
0.77
0.77
0.77
0.77
0.76999999
0.76999999
0.76999998
0.76999995
0.76999986
0.76999932
0.76999053
0.76978303
0.76855881
0.76573275
0.76085891
0.75315239
0.74173483
0.72598174
0.77
0.77
0.77
0.77
0.77
0.77
0.77
0.77
0.77
0.77
0.77
0.77
0.77
0.77
0.77
0.77
0.77
0.77
0.77
0.77
0.77
0.77
0.77
0.77
0.77
0.77
0.76999999
0.76999999
0.76999997
0.76999994
0.7699998
0.7699987
0.76997434
0.76958652
0.76802442
0.76490342
0.75975246
0.75178608
0.74028035
0.7246956
0.77
0.77
0.77
0.77
0.77
0.77
0.77
0.77
0.77
0.77
0.77
0.77
0.77
0.77
0.77
0.77
0.77
0.77
0.77
0.77
0.77
0.77
0.77
0.77
0.76999999
0.76999999
0.76999998
0.76999997
0.76999995
0.7699999
0.76999966
0.7699972
0.76993459
0.76930418
0.76743388
0.7640434
0.75863239
0.75041891
0.73885557
0.72349259
0.77
0.77
0.77
0.77
0.77
0.77
0.77
0.77
0.77
0.77
0.77
0.77
0.77
0.77
0.77
0.77
0.77
0.77
0.77
0.77
0.77
0.77
0.77
0.76999999
0.76999999
0.76999998
0.76999997
0.76999995
0.76999992
0.76999983
0.76999937
0.76999308
0.76985084
0.76893895
0.76679149
0.76314801
0.75748565
0.74905708
0.73742654
0.72234744
0.77
0.77
0.77
0.77
0.77
0.77
0.77
0.77
0.77
0.77
0.77
0.77
0.77
0.77
0.77
0.77
0.77
0.77
0.77
0.77
0.77
0.76999999
0.76999999
0.76999998
0.76999997
0.76999996
0.76999994
0.7699999
0.76999984
0.76999968
0.7699987
0.76998156
0.76970412
0.76850897
0.76611348
0.76223066
0.75632469
0.74774301
0.73611053
0.72128642
0.77
0.77
0.77
0.77
0.77
0.77
0.77
0.77
0.77
0.77
0.77
0.77
0.77
0.77
0.77
0.77
0.77
0.77
0.77
0.77
0.76999999
0.76999999
0.76999998
0.76999997
0.76999995
0.76999992
0.76999988
0.76999981
0.7699997
0.76999939
0.76999708
0.76995262
0.76948446
0.76802779
0.76540638
0.76129734
0.75516289
0.74646932
0.73485135
0.7203026
0.77
0.77
0.77
0.77
0.77
0.77
0.77
0.77
0.77
0.77
0.77
0.77
0.77
0.77
0.77
0.77
0.77
0.77
0.76999999
0.76999999
0.76999998
0.76999997
0.76999996
0.76999993
0.7699999
0.76999984
0.76999977
0.76999965
0.76999943
0.76999877
0.76999303
0.76989096
0.76919543
0.76750627
0.76467576
0.76035474
0.75401275
0.74524243
0.73365845
0.71939037
0.77
0.77
0.77
0.77
0.77
0.77
0.77
0.77
0.77
0.77
0.77
0.77
0.77
0.77
0.77
0.77
0.77
0.76999999
0.76999999
0.76999998
0.76999997
0.76999995
0.76999992
0.76999987
0.7699998
0.76999971
0.76999957
0.76999935
0.76999892
0.76999744
0.76998267
0.76977826
0.76884469
0.76694742
0.76392025
0.75940108
0.75287298
0.74404753
0.73248352
0.71853127
0.77
0.77
0.77
0.77
0.77
0.77
0.77
0.77
0.77
0.77
0.77
0.77
0.77
0.77
0.77
0.76999999
0.76999999
0.76999998
0.76999997
0.76999996
0.76999993
0.76999989
0.76999984
0.76999976
0.76999964
0.76999947
0.76999922
0.76999882
0.76999798
0.76999459
0.76995831
0.76960474
0.76844819
0.7663637
0.76315272
0.75845085
0.7517661
0.7428963
0.731426
0.71774322
0.77
0.77
0.77
0.77
0.77
0.77
0.77
0.77
0.77
0.77
0.77
0.77
0.77
0.77
0.76999999
0.76999999
0.76999998
0.76999997
0.76999995
0.76999992
0.76999987
0.76999981
0.76999971
0.76999957
0.76999937
0.76999908
0.76999864
0.76999792
0.76999625
0.76998854
0.76990802
0.76937151
0.76801672
0.76576057
0.76237734
0.7575044
0.75070667
0.74181882
0.73042911
0.71702117
0.77
0.77
0.77
0.77
0.77
0.77
0.77
0.77
0.77
0.77
0.77
0.77
0.77
0.76999999
0.76999999
0.76999998
0.76999996
0.76999994
0.7699999
0.76999985
0.76999977
0.76999966
0.76999949
0.76999926
0.76999892
0.76999844
0.7699977
0.76999639
0.76999307
0.76997579
0.76981736
0.76908406
0.76755374
0.76513761
0.76159325
0.75656524
0.74968517
0.74079238
0.72948609
0.71635776
0.77
0.77
0.77
0.77
0.77
0.77
0.77
0.77
0.77
0.77
0.77
0.76999999
0.76999999
0.76999998
0.76999997
0.76999996
0.76999993
0.76999989
0.76999983
0.76999974
0.76999961
0.76999942
0.76999916
0.76999878
0.76999825
0.76999746
0.76999623
0.76999389
0.76998736
0.76995046
0.76967734
0.76875587
0.76706991
0.76450585
0.76081488
0.75565386
0.74871652
0.73983404
0.72862855
0.71576149
0.77
0.77
0.77
0.77
0.77
0.77
0.77
0.77
0.77
0.77
0.76999999
0.76999999
0.76999998
0.76999997
0.76999995
0.76999992
0.76999988
0.76999981
0.76999971
0.76999957
0.76999936
0.76999907
0.76999865
0.76999807
0.76999723
0.76999599
0.76999396
0.76998986
0.76997719
0.76990327
0.76948492
0.76839318
0.76656573
0.76386416
0.76004084
0.75476822
0.74779232
0.7389288
0.72782903
0.71523147
0.77
0.77
0.77
0.77
0.77
0.77
0.77
0.77
0.77
0.76999999
0.76999999
0.76999998
0.76999997
0.76999995
0.76999992
0.76999987
0.7699998
0.76999969
0.76999953
0.76999931
0.769999
0.76999855
0.76999793
0.76999706
0.76999579
0.76999387
0.7699906
0.76998357
0.76995975
0.7698249
0.76924739
0.76800626
0.76604915
0.76322066
0.75927892
0.75391194
0.74691038
0.73806829
0.72709873
0.71477908
0.77
0.77
0.77
0.77
0.77
0.77
0.77
0.77
0.76999999
0.76999999
0.76999998
0.76999997
0.76999995
0.76999992
0.76999987
0.76999979
0.76999968
0.76999952
0.76999928
0.76999895
0.76999849
0.76999784
0.76999694
0.76999566
0.7699938
0.7699909
0.76998574
0.76997387
0.7699305
0.76970686
0.76897081
0.76759656
0.76551838
0.76257145
0.75852201
0.75307235
0.74605625
0.73724875
0.72643479
0.71439939
0.77
0.77
0.77
0.77
0.77
0.77
0.77
0.77
0.76999999
0.76999998
0.76999997
0.76999995
0.76999992
0.76999987
0.76999979
0.76999968
0.76999951
0.76999927
0.76999893
0.76999846
0.7699978
0.76999689
0.76999562
0.7699938
0.76999112
0.76998683
0.76997887
0.76995921
0.76988357
0.76954663
0.7686632
0.76716819
0.76497595
0.76191801
0.75776953
0.75224862
0.74522613
0.73645678
0.72583159
0.71408912
0.77
0.77
0.77
0.77
0.77
0.77
0.77
0.76999999
0.76999998
0.76999997
0.76999995
0.76999992
0.76999987
0.7699998
0.76999968
0.76999952
0.76999928
0.76999895
0.76999848
0.76999782
0.76999692
0.76999567
0.76999392
0.76999142
0.76998765
0.76998146
0.76996945
0.7699377
0.76981328
0.76934905
0.76833405
0.76672832
0.76442889
0.76126704
0.75702535
0.7514548
0.74443447
0.73572731
0.72529518
0.71384506
0.77
0.77
0.77
0.77
0.77
0.77
0.76999999
0.76999999
0.76999998
0.76999996
0.76999993
0.76999988
0.76999981
0.7699997
0.76999954
0.76999931
0.76999899
0.76999853
0.76999789
0.76999701
0.7699958
0.76999413
0.76999179
0.7699884
0.76998322
0.76997447
0.76995662
0.76990637
0.76971402
0.76911843
0.76798546
0.76627621
0.76387543
0.76061648
0.75629008
0.75068528
0.74367753
0.73505489
0.72481778
0.71366134
0.77
0.77
0.77
0.77
0.77
0.76999999
0.76999999
0.76999998
0.76999996
0.76999994
0.76999989
0.76999983
0.76999973
0.76999958
0.76999936
0.76999905
0.76999861
0.769998
0.76999715
0.769996
0.76999442
0.76999223
0.76998915
0.76998466
0.76997767
0.76996548
0.76993932
0.76986176
0.76958303
0.76886092
0.76762109
0.76581444
0.76331834
0.75997017
0.75556982
0.74994391
0.74295948
0.73443184
0.72440343
0.71354316
0.77
0.77
0.77
0.77
0.77
0.76999999
0.76999998
0.76999997
0.76999995
0.76999991
0.76999985
0.76999976
0.76999962
0.76999941
0.76999912
0.76999871
0.76999813
0.76999734
0.76999625
0.76999477
0.76999274
0.76998993
0.76998596
0.7699801
0.7699708
0.76995403
0.76991609
0.76979969
0.76942086
0.76858183
0.76724406
0.76534568
0.76276076
0.75933227
0.75487027
0.74923641
0.74229153
0.73386873
0.72406171
0.71350212
0.77
0.77
0.77
0.77
0.76999999
0.76999999
0.76999998
0.76999996
0.76999992
0.76999987
0.76999979
0.76999966
0.76999948
0.76999921
0.76999883
0.7699983
0.76999756
0.76999654
0.76999516
0.76999329
0.76999073
0.76998718
0.76998213
0.76997459
0.76996237
0.7699395
0.769885
0.76971623
0.76923037
0.76828523
0.76685682
0.76487231
0.76220558
0.75870645
0.75419566
0.74856588
0.7416747
0.73337573
0.72380273
0.71355185
0.77
0.77
0.77
0.77
0.76999999
0.76999998
0.76999997
0.76999994
0.7699999
0.76999982
0.76999971
0.76999955
0.76999931
0.76999896
0.76999848
0.7699978
0.76999686
0.76999559
0.76999387
0.76999154
0.76998836
0.76998393
0.76997759
0.769968
0.76995208
0.76992106
0.76984354
0.76960849
0.76901549
0.76797427
0.76646145
0.76439643
0.76165523
0.75809567
0.75354954
0.74793313
0.74109899
0.73293103
0.72361707
0.71369151
0.77
0.77
0.77
0.77
0.76999999
0.76999998
0.76999995
0.76999992
0.76999986
0.76999976
0.76999962
0.76999941
0.7699991
0.76999866