/*--------------------------------*- C++ -*----------------------------------*\
| =========                 |                                                 |
| \\      /  F ield         | OpenFOAM: The Open Source CFD Toolbox           |
|  \\    /   O peration     | Version:  2.3.0                                 |
|   \\  /    A nd           | Web:      www.OpenFOAM.org                      |
|    \\/     M anipulation  |                                                 |
\*---------------------------------------------------------------------------*/
FoamFile
{
    version     2.0;
    format      ascii;
    class       volScalarField;
    location    "0.2";
    object      O2;
}
// * * * * * * * * * * * * * * * * * * * * * * * * * * * * * * * * * * * * * //

dimensions      [0 0 0 0 0 0 0];

internalField   nonuniform List<scalar> 
5835
(
0.19659999
0.19659986
0.19659841
0.19658765
0.1966
0.1966
0.19659999
0.19659997
0.1966
0.1966
0.054
0.054
0.054
0.054
0.054
0.054
0.054
0.054
0.054
0.054
0.054
0.054
0.054
0.054
0.054
0.054
0.054
0.054
0.054
0.054
0.1966
0.1966
0.1966
0.1966
0.1966
0.1966
0.1966
0.1966
0.1966
0.1966
0.1966
0.1966
0.1966
0.1966
0.1966
0.1966
0.1966
0.1966
0.1966
0.1966
0.1966
0.1966
0.1966
0.1966
0.1966
0.1966
0.1966
0.1966
0.1966
0.1966
0.1966
0.1966
0.1966
0.1966
0.1966
0.1966
0.1966
0.1966
0.1966
0.1966
0.1966
0.1966
0.1966
0.1966
0.1966
0.1966
0.1966
0.1966
0.1966
0.1966
0.1966
0.1966
0.1966
0.1966
0.1966
0.1966
0.1966
0.1966
0.1966
0.1966
0.1966
0.1966
0.1966
0.1966
0.1966
0.1966
0.1966
0.1966
0.1966
0.1966
0.1966
0.1966
0.1966
0.1966
0.1966
0.1966
0.1966
0.1966
0.1966
0.1966
0.1966
0.1966
0.1966
0.1966
0.1966
0.1966
0.1966
0.1966
0.1966
0.1966
0.054
0.054
0.054
0.054
0.054
0.054
0.054
0.054
0.054
0.054
0.054
0.054
0.054
0.054
0.054
0.054
0.054
0.054
0.054
0.054
0.054
0.054
0.054
0.054
0.054
0.054
0.054
0.054
0.054
0.054
0.054
0.054
0.054
0.054
0.054
0.054
0.054
0.054
0.054
0.054
0.054
0.054
0.054
0.054
0.054
0.054
0.054
0.054
0.054
0.054
0.054
0.054
0.054
0.054
0.054
0.054
0.054
0.054
0.054
0.054
0.054
0.054
0.054
0.054
0.054
0.054
0.054
0.054
0.054
0.054
0.054
0.054
0.054
0.054
0.054
0.054
0.054
0.054
0.054
0.054
0.054
0.054
0.054
0.054
0.054
0.054000013
0.054000004
0.054
0.053999997
0.053999988
0.054000625
0.054000212
0.054000026
0.053999845
0.053999298
0.054029678
0.054010622
0.054001737
0.05399206
0.053958704
0.055398783
0.054527789
0.054130525
0.053644592
0.05159675
0.1346912
0.1347494
0.1348779
0.13507299
0.13306987
0.1331305
0.13326436
0.13346757
0.13102466
0.13108839
0.13122912
0.13144275
0.12883115
0.12889828
0.12904651
0.12927149
0.12654479
0.12661557
0.12677184
0.12700902
0.12418496
0.12425962
0.12442444
0.12467456
0.12174268
0.12182148
0.12199542
0.12225936
0.11922405
0.11930725
0.1194909
0.11976954
0.11661406
0.11670197
0.11689601
0.11719039
0.11391224
0.11400519
0.11421035
0.11452157
0.11111693
0.11121528
0.11143234
0.11176157
0.10822503
0.10832916
0.10855896
0.10890748
0.10521996
0.10533031
0.10557384
0.10594312
0.1021024
0.10221946
0.10247776
0.10286938
0.098881994
0.099006262
0.09928041
0.099695978
0.095530172
0.095662253
0.095953555
0.096395025
0.092063549
0.092204046
0.092513807
0.092983137
0.088457884
0.088607497
0.088937255
0.089436756
0.084732274
0.084891687
0.085242966
0.085774937
0.08086482
0.081034812
0.081409365
0.08197646
0.076831378
0.077012846
0.077412703
0.078017994
0.072634511
0.072828411
0.073255728
0.07390248
0.068259936
0.068467356
0.068924566
0.069616443
0.063691741
0.063913936
0.064403804
0.065144948
0.058931886
0.059170248
0.059695783
0.060490681
0.053940906
0.05419714
0.054761991
0.055616048
0.048747986
0.049023881
0.049631827
0.050550614
0.0433101
0.043607825
0.044263451
0.045253712
0.037665844
0.03798763
0.038695636
0.039764265
0.031797127
0.032145501
0.032911253
0.03406611
0.02571182
0.026089503
0.02691878
0.028168317
0.019379475
0.019789534
0.020688882
0.022042689
0.012810511
0.013255934
0.014231015
0.015698319
0.006084903
0.006562191
0.0075989525
0.0091669975
0.00082627277
0.0010252599
0.0015678072
0.0027248801
0.00017953726
0.0002216712
0.00033479737
0.00057749603
6.7622191e-05
8.1986784e-05
0.00011996317
0.00019966749
3.4517354e-05
4.099074e-05
5.7798711e-05
9.2043375e-05
2.126307e-05
2.4804073e-05
3.3846248e-05
5.1755775e-05
1.500746e-05
1.7324095e-05
2.3192943e-05
3.4662898e-05
1.1129076e-05
1.2694228e-05
1.6620823e-05
2.41689e-05
8.7726716e-06
9.8805874e-06
1.2622046e-05
1.7767327e-05
7.5273356e-06
8.4338468e-06
1.0666541e-05
1.4823817e-05
6.602267e-06
7.369128e-06
9.2527564e-06
1.2743386e-05
5.7942934e-06
6.435291e-06
8.0054393e-06
1.0901241e-05
5.1306404e-06
5.6574166e-06
6.9419998e-06
9.2932953e-06
4.6951484e-06
5.1327846e-06
6.1924463e-06
8.1086101e-06
4.5221661e-06
4.9072297e-06
5.8349238e-06
7.4976083e-06
4.5612661e-06
4.9164127e-06
5.7720913e-06
7.3048066e-06
4.7943767e-06
5.121815e-06
5.9146693e-06
7.344291e-06
5.3199355e-06
5.6092689e-06
6.320128e-06
7.6275259e-06
6.3695385e-06
6.5953636e-06
7.1739665e-06
8.2972817e-06
8.3887924e-06
8.499281e-06
8.8419049e-06
9.6490637e-06
1.2218908e-05
1.2110055e-05
1.2009576e-05
1.2237203e-05
1.94785e-05
1.8934102e-05
1.7966569e-05
1.7087376e-05
3.3400281e-05
3.1944974e-05
2.9199262e-05
2.6119673e-05
6.0920761e-05
5.742914e-05
5.0809191e-05
4.3124538e-05
0.00011696167
0.00010863755
9.3121807e-05
7.5385917e-05
0.00023690804
0.00021625227
0.00017896923
0.00013812664
0.00050563055
0.0004514942
0.00035816197
0.00026215568
0.0011461021
0.00099450372
0.00074823742
0.00051458491
0.0027615241
0.0023108519
0.0016285176
0.0010400379
0.006991031
0.0056119224
0.0036660558
0.0021490375
0.017711609
0.013740892
0.0083486487
0.0044697283
0.039332107
0.030723368
0.01815946
0.0090411275
0.064334189
0.053454137
0.033983072
0.016799066
0.082803738
0.07231344
0.051262796
0.027410594
0.09657125
0.086672525
0.066170377
0.039424477
0.1077744
0.098242681
0.078459736
0.051094128
0.11738588
0.10804735
0.088785643
0.061558432
0.12592994
0.11669054
0.097791883
0.070921893
0.13354166
0.12435343
0.1057196
0.079265144
0.14036328
0.13120567
0.11277731
0.086718837
0.1465525
0.13742296
0.11916656
0.093444313
0.15211221
0.14302098
0.12492434
0.099475416
0.15715554
0.14812223
0.13019306
0.10497928
0.16167632
0.15272556
0.13498193
0.10998748
0.16576833
0.15692902
0.13939658
0.1146241
0.16946452
0.16076728
0.14347058
0.11892431
0.17276011
0.1642361
0.14719846
0.12288271
0.17572792
0.16741158
0.1506604
0.12658169
0.17839395
0.17031992
0.15388218
0.13004233
0.18078229
0.17298437
0.15688697
0.13328322
0.18289079
0.17539797
0.15966696
0.13629628
0.18477105
0.17761261
0.16228002
0.13914411
0.18643725
0.17963746
0.16473483
0.14183672
0.18791405
0.18149391
0.16705505
0.14440346
0.18921849
0.18319421
0.16925223
0.14685899
0.19036636
0.18474934
0.17133552
0.14921381
0.19137228
0.18616957
0.17331322
0.1514784
0.19224395
0.18745615
0.17518197
0.15365379
0.19300112
0.18862791
0.17696176
0.15576557
0.19365488
0.18969239
0.17865644
0.15781879
0.19421542
0.19065682
0.18027058
0.15982161
0.19469221
0.19152793
0.18180883
0.16178342
0.19509401
0.19231178
0.18327532
0.16371258
0.19543153
0.19301877
0.18468252
0.16562351
0.19570906
0.19364722
0.18602109
0.16750023
0.19593398
0.19420154
0.18729392
0.16934763
0.1961134
0.19468618
0.18850426
0.17117451
0.19625406
0.19510568
0.18965478
0.17299439
0.19636158
0.19546247
0.19074035
0.17480925
0.19644153
0.1957593
0.19175427
0.1766237
0.19649972
0.19600292
0.19270074
0.17847444
0.1965401
0.19619588
0.19356947
0.18038878
0.19656675
0.19634309
0.19435108
0.18238933
0.19658327
0.19644987
0.19503098
0.18447697
0.19659271
0.19652256
0.19560173
0.18668629
0.19659752
0.1965678
0.19606223
0.18915703
0.19659948
0.19659151
0.1964012
0.19206762
0.1578602
0.15914964
0.16042028
0.1603171
0.15931446
0.15791558
0.15639488
0.15483176
0.15322738
0.15159106
0.14995367
0.14832922
0.14669651
0.14503982
0.143347
0.14163203
0.13987674
0.13806117
0.13617028
0.13419473
0.13213262
0.12995843
0.12766736
0.12525204
0.12270397
0.12000784
0.11713236
0.11407081
0.11076294
0.10721973
0.10343199
0.099384938
0.094995586
0.090267528
0.085165263
0.079554564
0.073409192
0.066610635
0.059259543
0.051428664
0.043252317
0.034851905
0.026234064
0.017974545
0.011044856
0.006088394
0.0031243402
0.0015646905
0.0007876583
0.00040417038
0.00021295812
0.00011589162
6.5411373e-05
3.8870536e-05
2.4643745e-05
1.7002637e-05
1.287908e-05
1.0684272e-05
9.5561227e-06
9.0263249e-06
8.8473812e-06
8.9080223e-06
9.2409386e-06
1.0143623e-05
1.1832228e-05
1.4059875e-05
1.6576006e-05
1.9418744e-05
2.3514487e-05
3.2878064e-05
4.8187177e-05
7.3239259e-05
0.00013466613
0.0003025838
0.00089709583
0.0040145137
0.010457868
0.016896869
0.023149585
0.029190876
0.035011886
0.040639974
0.046065652
0.051304348
0.056317048
0.061143477
0.065753936
0.070185261
0.074434477
0.078516121
0.082443341
0.086213043
0.089848229
0.093369836
0.096758834
0.1000385
0.10319222
0.1062476
0.1091949
0.11203313
0.11477832
0.11743329
0.11999949
0.12247721
0.12488103
0.12720483
0.12945726
0.13161916
0.13363541
0.13523414
0.1375954
0.13609381
0.13420164
0.13217502
0.13006755
0.12789742
0.12565743
0.12335374
0.12097356
0.11851729
0.11598437
0.11337294
0.11066925
0.10787524
0.10500091
0.10202253
0.098956568
0.09578372
0.092522747
0.089156659
0.085667009
0.082058715
0.078322589
0.074448713
0.07044285
0.066277119
0.061981453
0.057527184
0.052952787
0.048250828
0.043434261
0.038484982
0.03341233
0.028229006
0.022947069
0.017557739
0.012120933
0.0068751023
0.0030810335
0.0018300156
0.0010627331
0.00057623083
0.0004365727
0.00035035207
0.00027775593
0.00021169482
0.00015435998
0.00012181109
0.00010906656
0.00010172239
9.6390248e-05
9.2380032e-05
8.9371312e-05
8.710939e-05
8.5611234e-05
8.5027556e-05
8.5167051e-05
8.6337301e-05
8.8860976e-05
9.3150914e-05
0.00010014851
0.00011110533
0.00012718449
0.00014970475
0.0001787878
0.00021343717
0.00025202568
0.00029340645
0.00033749908
0.00038511987
0.00043718388
0.00049326007
0.00055451162
0.00062313596
0.00069174874
0.0007537861
0.0008089655
0.00085831907
0.0009015126
0.0009368864
0.00096459095
0.00098378142
0.00099498877
0.0010007524
0.0010132094
0.001070405
0.0012607406
0.0015999464
0.001918288
0.0021807518
0.0023952938
0.0025730717
0.0027328454
0.0029331409
0.0033529773
0.004516028
0.0062135017
0.010171556
0.023962309
0.03996415
0.05723822
0.075542364
0.093699135
0.11178351
0.12683906
0.13667575
0.14093316
0.1405864
0.13588122
0.11958683
0.13693229
0.13540363
0.13347694
0.13141269
0.12926495
0.12705216
0.12476674
0.12241482
0.11998314
0.11747191
0.11488033
0.1122063
0.10943546
0.10656954
0.10361847
0.10055749
0.097403153
0.094135065
0.090772073
0.08729613
0.083687579
0.079950902
0.076075936
0.072051657
0.067883263
0.063540706
0.059054116
0.054392185
0.049593843
0.044649878
0.03957266
0.034341946
0.028966769
0.023460092
0.017835101
0.012104662
0.0065098159
0.0026062844
0.0011709212
0.00070044289
0.00041968356
0.00024457153
0.00018883884
0.00015381415
0.00012390875
9.6562748e-05
7.3307414e-05
6.0045351e-05
5.4617524e-05
5.1497548e-05
4.9277573e-05
4.767487e-05
4.6582576e-05
4.5954721e-05
4.589712e-05
4.662846e-05
4.8383884e-05
5.1740065e-05
5.757253e-05
6.7215336e-05
8.2819815e-05
0.00010738426
0.00014469921
0.00019895152
0.0002728229
0.00036538857
0.00047287774
0.00059237876
0.00072374313
0.00086978653
0.001033133
0.0012084632
0.0013882998
0.0015671553
0.0017388753
0.0019040514
0.002063035
0.0022187887
0.0023691426
0.0025104901
0.0026408479
0.0027544206
0.002846547
0.0029152629
0.0029626694
0.0029948439
0.0030242329
0.0030462925
0.0030319712
0.0029766552
0.0028855039
0.0027629004
0.0026148398
0.0024560895
0.0023193788
0.002259713
0.0022704684
0.0025614641
0.0036204957
0.0046656933
0.0056977938
0.0074729986
0.016035518
0.036774949
0.058504479
0.076227348
0.08700553
0.08995719
0.085676121
0.073263923
0.13635066
0.13479813
0.13284094
0.13074346
0.12856013
0.1263096
0.12398397
0.12158934
0.11911202
0.11655203
0.1139084
0.11117876
0.10834823
0.10541829
0.10239885
0.0992642
0.096030912
0.092677633
0.089223263
0.085648779
0.081933415
0.078081223
0.074081109
0.069920988
0.065605455
0.061102382
0.056441943
0.051590252
0.046586471
0.04141956
0.036101165
0.03060891
0.024951616
0.019142818
0.013199222
0.007228368
0.0025813676
0.0010186429
0.00048005531
0.00029394625
0.0001827383
0.00011385871
8.9686408e-05
7.4114038e-05
6.0620659e-05
4.8283358e-05
3.8053416e-05
3.2236166e-05
2.9784617e-05
2.8409808e-05
2.7498006e-05
2.6946724e-05
2.6764677e-05
2.7040337e-05
2.8005564e-05
3.0074398e-05
3.3926334e-05
4.0722773e-05
5.2419995e-05
7.2065474e-05
0.00010472323
0.00015809804
0.00024331794
0.00037460948
0.00056519424
0.00081919753
0.0011301043
0.0014906879
0.0019005735
0.0023713236
0.0029181565
0.0035288721
0.0041774676
0.0048416202
0.0055016329
0.0061643562
0.0068310461
0.0075159803
0.0082148636
0.0089155227
0.009613592
0.010286475
0.010910647
0.0114651
0.011941901
0.012326799
0.012615929
0.012800835
0.01286808
0.012810693
0.012631972
0.012332005
0.011908192
0.011367423
0.010728021
0.010009618
0.0092181127
0.0083953449
0.0075983092
0.0067687275
0.0059570238
0.0052984629
0.0051931595
0.0056894669
0.0060319204
0.0074541031
0.021692876
0.044420582
0.057310005
0.058376293
0.13585293
0.13427986
0.13229642
0.13017033
0.12795631
0.12567327
0.12331295
0.12088147
0.11836473
0.11576263
0.11307399
0.11029624
0.10741403
0.10442861
0.10134984
0.098151187
0.094849237
0.091421779
0.087887752
0.084227273
0.080418588
0.076465346
0.072355594
0.068076246
0.063631289
0.058986654
0.054172427
0.049152297
0.043965469
0.038599099
0.03306401
0.027335779
0.021423078
0.015340913
0.0091256663
0.0032212364
0.0010495025
0.00043052358
0.00021491811
0.00013532501
8.7339176e-05
5.7774403e-05
4.6404578e-05
3.8866487e-05
3.2254483e-05
2.6249983e-05
2.1421415e-05
1.8708643e-05
1.7561781e-05
1.6972609e-05
1.6676307e-05
1.6671329e-05
1.7056876e-05
1.8050741e-05
2.0070497e-05
2.3852646e-05
3.0704306e-05
4.2834639e-05
6.4208999e-05
0.00010142128
0.00016626565
0.00027858797
0.00047062838
0.00078995191
0.0012920588
0.0020133793
0.0029518888
0.0040898822
0.0054210385
0.0069851307
0.0088529545
0.011004338
0.013352293
0.015806112
0.0182775
0.020782668
0.023320079
0.025944744
0.028654469
0.03141151
0.034213668
0.036996447
0.039688342
0.042210909
0.044549643
0.046661034
0.048538043
0.050168111
0.051533792
0.052616975
0.053404141
0.053879524
0.054002792
0.053738988
0.053057201
0.051918395
0.050250366
0.048010742
0.045226024
0.04197688
0.038413902
0.034669014
0.030844152
0.026929798
0.022985574
0.019141374
0.015728327
0.012594256
0.013735939
0.03841993
0.13544125
0.13385113
0.13184588
0.129696
0.12745647
0.12514636
0.12275716
0.12029498
0.1177454
0.1151082
0.11238201
0.10956411
0.10663872
0.10360691
0.10047849
0.097226195
0.09386664
0.090376889
0.086775917
0.083043121
0.079155909
0.075117568
0.070915381
0.066535356
0.06198088
0.057216134
0.052271023
0.04710704
0.041763305
0.036225295
0.030502976
0.024570017
0.018435029
0.012116521
0.0056981804
0.0013866506
0.0004593691
0.00019872072
0.00010506559
6.809899e-05
4.5597258e-05
3.1805637e-05
2.6024078e-05
2.2072577e-05
1.8579572e-05
1.54522e-05
1.3027893e-05
1.1700793e-05
1.1168104e-05
1.096883e-05
1.1009042e-05
1.1360368e-05
1.2211433e-05
1.3926243e-05
1.7171957e-05
2.3148116e-05
3.4087127e-05
5.3956258e-05
9.037299e-05
0.00015713713
0.0002811174
0.00051263624
0.0009438312
0.0017307825
0.0030908563
0.0052156215
0.0081486871
0.011814325
0.016096723
0.021017804
0.026736248
0.033113849
0.039758405
0.046262136
0.05228421
0.057826098
0.062879327
0.067570471
0.071938736
0.075979296
0.079765458
0.083300029
0.086582778
0.089591998
0.092378418
0.094944074
0.097316246
0.099507255
0.10152263
0.10336717
0.1050424
0.10656491
0.10793239
0.10915232
0.11024005
0.11121445
0.11209126
0.11287533
0.11360265
0.11431217
0.11503122
0.11573715
0.11637469
0.11687516
0.11712658
0.11682446
0.1152804
0.11108581
0.10124193
0.083236041
0.17569469
0.17785727
0.17587549
0.17353869
0.16895622
0.16022868
0.1468692
0.13093856
0.11455163
0.097423266
0.080239389
0.064296889
0.049790159
0.037357771
0.026079923
0.017326002
0.014076028
0.012105285
0.010454104
0.0088653759
0.0072674116
0.005617733
0.0038967786
0.0022840196
0.001512089
0.0013034988
0.0012367456
0.0011964614
0.0011544361
0.0011077663
0.0010531706
0.00099049202
0.00091749346
0.0008384769
0.00075214362
0.00065708598
0.00055519985
0.00046845495
0.00041253592
0.00037216034
0.00033829653
0.00030819955
0.00028033699
0.00025397437
0.00022913545
0.00020656976
0.00018715308
0.00017166318
0.00016062025
0.00015294445
0.00014829796
0.00014563646
0.00014416837
0.00014416194
0.00014529832
0.00014721493
0.00015075452
0.00015556618
0.00016173288
0.00016981111
0.00018047665
0.00019514411
0.00022070686
0.00028903998
0.00041071463
0.00054897779
0.00070156963
0.00088392081
0.0011801528
0.00230766
0.0040095996
0.0064608324
0.011078015
0.016234396
0.021434986
0.026577218
0.031622702
0.036583028
0.041446439
0.046200313
0.050835134
0.055367665
0.059784727
0.064092695
0.068253554
0.072294204
0.076184902
0.079952006
0.083589353
0.087106078
0.09051069
0.093797989
0.09698561
0.10008983
0.103092
0.10601071
0.10882955
0.11157151
0.11422659
0.11679266
0.11928305
0.12169943
0.12404218
0.12631079
0.1285177
0.13065675
0.13273489
0.13473406
0.13660109
0.13808289
0.23
0.23
0.23
0.23
0.23
0.23
0.23
0.23
0.23
0.23
0.23
0.23
0.23
0.23
0.23
0.23
0.23
0.23
0.23
0.23
0.23
0.23
0.23
0.23
0.23
0.23
0.23
0.23
0.23
0.23
0.23
0.23
0.23
0.23
0.22999999
0.22999994
0.22999962
0.22999531
0.2297744
0.2222206
0.23
0.23
0.23
0.23
0.23
0.23
0.23
0.23
0.23
0.23
0.23
0.23
0.23
0.23
0.23
0.23
0.23
0.23
0.23
0.23
0.23
0.23
0.23
0.23
0.23
0.23
0.23
0.23
0.23
0.23
0.23
0.23
0.23
0.22999999
0.22999995
0.2299998
0.22999893
0.22998763
0.22950854
0.21936453
0.23
0.23
0.23
0.23
0.23
0.23
0.23
0.23
0.23
0.23
0.23
0.23
0.23
0.23
0.23
0.23
0.23
0.23
0.23
0.23
0.23
0.23
0.23
0.23
0.23
0.23
0.23
0.23
0.23
0.23
0.23
0.23
0.22999999
0.22999997
0.2299999
0.22999961
0.22999792
0.22997667
0.22920505
0.21667656
0.23
0.23
0.23
0.23
0.23
0.23
0.23
0.23
0.23
0.23
0.23
0.23
0.23
0.23
0.23
0.23
0.23
0.23
0.23
0.23
0.23
0.23
0.23
0.23
0.23
0.23
0.23
0.23
0.23
0.23
0.23
0.22999999
0.22999998
0.22999994
0.22999982
0.22999934
0.2299966
0.22996251
0.22886334
0.21384635
0.23
0.23
0.23
0.23
0.23
0.23
0.23
0.23
0.23
0.23
0.23
0.23
0.23
0.23
0.23
0.23
0.23
0.23
0.23
0.23
0.23
0.23
0.23
0.23
0.23
0.23
0.23
0.23
0.23
0.23
0.23
0.22999999
0.22999997
0.22999991
0.22999971
0.229999
0.22999496
0.22994487
0.22844647
0.21045111
0.23
0.23
0.23
0.23
0.23
0.23
0.23
0.23
0.23
0.23
0.23
0.23
0.23
0.23
0.23
0.23
0.23
0.23
0.23
0.23
0.23
0.23
0.23
0.23
0.23
0.23
0.23
0.23
0.23
0.23
0.22999999
0.22999998
0.22999995
0.22999986
0.22999959
0.2299986
0.22999302
0.2299221
0.22784317
0.20583481
0.23
0.23
0.23
0.23
0.23
0.23
0.23
0.23
0.23
0.23
0.23
0.23
0.23
0.23
0.23
0.23
0.23
0.23
0.23
0.23
0.23
0.23
0.23
0.23
0.23
0.23
0.23
0.23
0.23
0.23
0.22999999
0.22999997
0.22999993
0.2299998
0.22999944
0.22999816
0.22999074
0.22988747
0.22679902
0.19925717
0.23
0.23
0.23
0.23
0.23
0.23
0.23
0.23
0.23
0.23
0.23
0.23
0.23
0.23
0.23
0.23
0.23
0.23
0.23
0.23
0.23
0.23
0.23
0.23
0.23
0.23
0.23
0.23
0.23
0.22999999
0.22999999
0.22999996
0.2299999
0.22999974
0.22999929
0.22999768
0.2299878
0.22982009
0.22496805
0.19068499
0.23
0.23
0.23
0.23
0.23
0.23
0.23
0.23
0.23
0.23
0.23
0.23
0.23
0.23
0.23
0.23
0.23
0.23
0.23
0.23
0.23
0.23
0.23
0.23
0.23
0.23
0.23
0.23
0.23
0.22999999
0.22999998
0.22999995
0.22999987
0.22999967
0.22999913
0.22999714
0.22998333
0.22966949
0.22207229
0.18069847
0.23
0.23
0.23
0.23
0.23
0.23
0.23
0.23
0.23
0.23
0.23
0.23
0.23
0.23
0.23
0.23
0.23
0.23
0.23
0.23
0.23
0.23
0.23
0.23
0.23
0.23
0.23
0.23
0.23
0.22999999
0.22999997
0.22999993
0.22999984
0.2299996
0.22999895
0.22999647
0.22997518
0.22932319
0.21789621
0.16939956
0.23
0.23
0.23
0.23
0.23
0.23
0.23
0.23
0.23
0.23
0.23
0.23
0.23
0.23
0.23
0.23
0.23
0.23
0.23
0.23
0.23
0.23
0.23
0.23
0.23
0.23
0.23
0.23
0.22999999
0.22999999
0.22999996
0.22999991
0.2299998
0.22999953
0.22999876
0.22999548
0.22995689
0.22857468
0.21237033
0.15689172
0.23
0.23
0.23
0.23
0.23
0.23
0.23
0.23
0.23
0.23
0.23
0.23
0.23
0.23
0.23
0.23
0.23
0.23
0.23
0.23
0.23
0.23
0.23
0.23
0.23
0.23
0.23
0.23
0.22999999
0.22999998
0.22999995
0.2299999
0.22999976
0.22999944
0.22999852
0.22999372
0.22990831
0.22713332
0.2055861
0.14353525
0.23
0.23
0.23
0.23
0.23
0.23
0.23
0.23
0.23
0.23
0.23
0.23
0.23
0.23
0.23
0.23
0.23
0.23
0.23
0.23
0.23
0.23
0.23
0.23
0.23
0.23
0.23
0.23
0.22999999
0.22999998
0.22999994
0.22999987
0.22999972
0.22999935
0.22999817
0.22999016
0.22977544
0.22472644
0.19784759
0.13040482
0.23
0.23
0.23
0.23
0.23
0.23
0.23
0.23
0.23
0.23
0.23
0.23
0.23
0.23
0.23
0.23
0.23
0.23
0.23
0.23
0.23
0.23
0.23
0.23
0.23
0.23
0.23
0.22999999
0.22999999
0.22999997
0.22999993
0.22999985
0.22999967
0.22999923
0.22999761
0.22998232
0.22944438
0.22126593
0.18944544
0.11764061
0.23
0.23
0.23
0.23
0.23
0.23
0.23
0.23
0.23
0.23
0.23
0.23
0.23
0.23
0.23
0.23
0.23
0.23
0.23
0.23
0.23
0.23
0.23
0.23
0.23
0.23
0.23
0.22999999
0.22999998
0.22999996
0.22999992
0.22999983
0.22999962
0.22999907
0.2299966
0.22996226
0.22872371
0.21681558
0.1805404
0.10491116
0.23
0.23
0.23
0.23
0.23
0.23
0.23
0.23
0.23
0.23
0.23
0.23
0.23
0.23
0.23
0.23
0.23
0.23
0.23
0.23
0.23
0.23
0.23
0.23
0.23
0.23
0.23
0.22999999
0.22999998
0.22999996
0.2299999
0.2299998
0.22999955
0.22999883
0.22999459
0.22990539
0.22738734
0.2115525
0.17133931
0.092422527
0.23
0.23
0.23
0.23
0.23
0.23
0.23
0.23
0.23
0.23
0.23
0.23
0.23
0.23
0.23
0.23
0.23
0.23
0.23
0.23
0.23
0.23
0.23
0.23
0.23
0.23
0.23
0.22999999
0.22999998
0.22999995
0.22999989
0.22999976
0.22999946
0.22999843
0.22999027
0.22974817
0.22523944
0.20557397
0.16171015
0.08013312
0.23
0.23
0.23
0.23
0.23
0.23
0.23
0.23
0.23
0.23
0.23
0.23
0.23
0.23
0.23
0.23
0.23
0.23
0.23
0.23
0.23
0.23
0.23
0.23
0.23
0.23
0.22999999
0.22999999
0.22999997
0.22999994
0.22999987
0.22999972
0.22999934
0.22999774
0.22997996
0.22936639
0.22222629
0.19897211
0.15158681
0.068118912
0.23
0.23
0.23
0.23
0.23
0.23
0.23
0.23
0.23
0.23
0.23
0.23
0.23
0.23
0.23
0.23
0.23
0.23
0.23
0.23
0.23
0.23
0.23
0.23
0.23
0.23
0.22999999
0.22999998
0.22999997
0.22999993
0.22999985
0.22999966
0.22999914
0.2299964
0.22995109
0.2285738
0.21842183
0.19189147
0.14126249
0.056822604
0.23
0.23
0.23
0.23
0.23
0.23
0.23
0.23
0.23
0.23
0.23
0.23
0.23
0.23
0.23
0.23
0.23
0.23
0.23
0.23
0.23
0.23
0.23
0.23
0.23
0.23
0.22999999
0.22999998
0.22999996
0.22999992
0.22999982
0.22999959
0.22999882
0.22999355
0.2298664
0.22717419
0.21394497
0.18444791
0.13090926
0.04609428
0.23
0.23
0.23
0.23
0.23
0.23
0.23
0.23
0.23
0.23
0.23
0.23
0.23
0.23
0.23
0.23
0.23
0.23
0.23
0.23
0.23
0.23
0.23
0.23
0.23
0.23
0.22999999
0.22999998
0.22999995
0.2299999
0.22999978
0.22999948
0.22999828
0.22998708
0.22964295
0.22506109
0.20892459
0.17673731
0.12062242
0.035846144
0.23
0.23
0.23
0.23
0.23
0.23
0.23
0.23
0.23
0.23
0.23
0.23
0.23
0.23
0.23
0.23
0.23
0.23
0.23
0.23
0.23
0.23
0.23
0.23
0.23
0.23
0.22999999
0.22999998
0.22999995
0.22999989
0.22999974
0.22999932
0.22999728
0.22996987
0.22913805
0.22224243
0.20345351
0.16872534
0.11065872
0.025920687
0.23
0.23
0.23
0.23
0.23
0.23
0.23
0.23
0.23
0.23
0.23
0.23
0.23
0.23
0.23
0.23
0.23
0.23
0.23
0.23
0.23
0.23
0.23
0.23
0.23
0.22999999
0.22999999
0.22999997
0.22999994
0.22999987
0.22999968
0.22999906
0.2299952
0.22991921
0.22818938
0.21885959
0.19771351
0.16068844
0.10116967
0.016281209
0.23
0.23
0.23
0.23
0.23
0.23
0.23
0.23
0.23
0.23
0.23
0.23
0.23
0.23
0.23
0.23
0.23
0.23
0.23
0.23
0.23
0.23
0.23
0.23
0.23
0.22999999
0.22999999
0.22999997
0.22999993
0.22999984
0.22999959
0.22999863
0.22999064
0.22977976
0.22668664
0.21505963
0.19185945
0.15293485
0.092468262
0.0079348977
0.23
0.23
0.23
0.23
0.23
0.23
0.23
0.23
0.23
0.23
0.23
0.23
0.23
0.23
0.23
0.23
0.23
0.23
0.23
0.23
0.23
0.23
0.23
0.23
0.23
0.22999999
0.22999998
0.22999997
0.22999992
0.22999981
0.22999947
0.22999786
0.22997949
0.22945335
0.22463344
0.21096877
0.18598133
0.14548964
0.084355908
0.0044923684
0.23
0.23
0.23
0.23
0.23
0.23
0.23
0.23
0.23
0.23
0.23
0.23
0.23
0.23
0.23
0.23
0.23
0.23
0.23
0.23
0.23
0.23
0.23
0.23
0.22999999
0.22999999
0.22999998
0.22999996
0.22999991
0.22999977
0.22999927
0.22999631
0.2299481
0.22881124
0.22210907
0.2066605
0.18007782
0.13816544
0.076429407
0.0036760795
0.23
0.23
0.23
0.23
0.23
0.23
0.23
0.23
0.23
0.23
0.23
0.23
0.23
0.23
0.23
0.23
0.23
0.23
0.23
0.23
0.23
0.23
0.23
0.23
0.22999999
0.22999998
0.22999997
0.22999994
0.22999988
0.22999969
0.22999892
0.22999291
0.22985959
0.22773739
0.21919636
0.20215851
0.17410129
0.13082663
0.068744829
0.0033338404
0.23
0.23
0.23
0.23
0.23
0.23
0.23
0.23
0.23
0.23
0.23
0.23
0.23
0.23
0.23
0.23
0.23
0.23
0.23
0.23
0.23
0.23
0.22999999
0.22999999
0.22999998
0.22999997
0.22999995
0.2299999
0.22999981
0.22999954
0.22999825
0.2299848
0.22964242
0.22619659
0.2159827
0.19749687
0.16805838
0.12349205
0.061238047
0.0030806783
0.23
0.23
0.23
0.23
0.23
0.23
0.23
0.23
0.23
0.23
0.23
0.23
0.23
0.23
0.23
0.23
0.23
0.23
0.23
0.23
0.23
0.22999999
0.22999999
0.22999998
0.22999996
0.22999994
0.2299999
0.22999982
0.22999967
0.22999923
0.22999677
0.22996243
0.22918541
0.22420628
0.21249216
0.19265012
0.16187887
0.11619695
0.053771121
0.0028365926
0.23
0.23
0.23
0.23
0.23
0.23
0.23
0.23
0.23
0.23
0.23
0.23
0.23
0.23
0.23
0.23
0.23
0.23
0.23
0.23
0.22999999
0.22999999
0.22999997
0.22999996
0.22999992
0.22999987
0.22999979
0.22999965
0.22999938
0.22999858
0.22999327
0.22989975
0.22838556
0.2218662
0.2088131
0.18769027
0.15562722
0.1091555
0.046845996
0.002602253
0.23
0.23
0.23
0.23
0.23
0.23
0.23
0.23
0.23
0.23
0.23
0.23
0.23
0.23
0.23
0.23
0.23
0.23
0.22999999
0.22999999
0.22999998
0.22999997
0.22999994
0.22999991
0.22999984
0.22999974
0.22999958
0.22999932
0.22999881
0.2299972
0.22998472
0.22974232
0.22718937
0.21925079
0.20498086
0.1826493
0.14937644
0.10233804
0.04024494
0.0023633945
0.23
0.23
0.23
0.23
0.23
0.23
0.23
0.23
0.23
0.23
0.23
0.23
0.23
0.23
0.23
0.23
0.23
0.22999999
0.22999999
0.22999998
0.22999996
0.22999993
0.22999988
0.2299998
0.22999968
0.22999949
0.22999918
0.22999868
0.22999767
0.22999424
0.22996314
0.22940694
0.22561713
0.21641956
0.20102553
0.1775628
0.14319201
0.095772146
0.034004747
0.0021183467
0.23
0.23
0.23
0.23
0.23
0.23
0.23
0.23
0.23
0.23
0.23
0.23
0.23
0.23
0.23
0.22999999
0.22999999
0.22999998
0.22999997
0.22999995
0.22999991
0.22999985
0.22999976
0.2299996
0.22999937
0.229999
0.22999843
0.22999746
0.22999542
0.22998761
0.22990742
0.22879421
0.22371117
0.2133891
0.19693974
0.17242132
0.13706901
0.089387822
0.027916891
0.001856896
0.23
0.23
0.23
0.23
0.23
0.23
0.23
0.23
0.23
0.23
0.23
0.23
0.23
0.23
0.22999999
0.22999999
0.22999998
0.22999996
0.22999994
0.22999989
0.22999982
0.2299997
0.22999952
0.22999924
0.2299988
0.22999813
0.22999707
0.22999524
0.22999106
0.22997298
0.22977581
0.22785145
0.22155885
0.2102271
0.19279294
0.16730277
0.13112904
0.083253882
0.022388736
0.0015967045
0.23
0.23
0.23
0.23
0.23
0.23
0.23
0.23
0.23
0.23
0.23
0.23
0.23
0.22999999
0.22999999
0.22999997
0.22999996
0.22999992
0.22999987
0.22999978
0.22999964
0.22999943
0.2299991
0.22999859
0.22999781
0.22999662
0.22999472
0.22999127
0.22998274
0.22994129
0.22950365
0.22658519
0.219219
0.20696315
0.18860759
0.16220865
0.12544649
0.077492633
0.017193743
0.0013293863
0.23
0.23
0.23
0.23
0.23
0.23
0.23
0.23
0.23
0.23
0.23
0.23
0.22999999
0.22999998
0.22999997
0.22999995
0.22999991
0.22999985
0.22999975
0.22999959
0.22999934
0.22999895
0.22999837
0.22999749
0.22999615
0.22999409
0.22999071
0.22998427
0.22996689
0.22987363
0.22901261
0.22502583
0.21671063
0.20359499
0.18437874
0.15715761
0.1199703
0.072008366
0.012294182
0.0010513927
0.23
0.23
0.23
0.23
0.23
0.23
0.23
0.23
0.23
0.23
0.22999999
0.22999999
0.22999998
0.22999997
0.22999994
0.2299999
0.22999983
0.22999971
0.22999953
0.22999925
0.22999882
0.22999817
0.22999719
0.22999571
0.22999348
0.22999001
0.22998415
0.22997237
0.22993772
0.22973804
0.22825408
0.2232469
0.21409171
0.20018214
0.18018395
0.15225967
0.11478218
0.066894003
0.0078327506
0.00077073065
0.23
0.23
0.23
0.23
0.23
0.23
0.23
0.23
0.23
0.22999999
0.22999999
0.22999998
0.22999996
0.22999994
0.22999989
0.22999981
0.22999969
0.22999949
0.22999918
0.22999871
0.229998
0.22999693
0.22999534
0.22999296
0.22998935
0.22998363
0.22997368
0.22995256
0.22988479
0.22948424
0.22721181
0.22128248
0.2113648
0.19671827
0.17601531
0.14750313
0.10983612
0.06209031
0.0050700304
0.0005661335
0.23
0.23
0.23
0.23
0.23
0.23
0.23
0.23
0.22999999
0.22999999
0.22999998
0.22999996
0.22999993
0.22999988
0.2299998
0.22999967
0.22999946
0.22999913
0.22999864
0.22999788
0.22999676
0.22999508
0.22999261
0.22998891
0.22998325
0.22997413
0.22995773
0.2299209
0.2297929
0.22906169
0.22592579
0.21918839
0.20857297
0.19324703
0.17191422
0.14290681
0.10511948
0.057560138
0.0041694673
0.00047833501
0.23
0.23
0.23
0.23
0.23
0.23
0.23
0.23
0.22999999
0.22999998
0.22999996
0.22999993
0.22999988
0.2299998
0.22999966
0.22999945
0.22999911
0.2299986
0.22999782
0.22999666
0.22999495
0.22999242
0.22998869
0.22998311
0.22997449
0.22996033
0.22993398
0.22987117
0.22963734
0.22842442
0.224429
0.21697262
0.20570642
0.18974707
0.16784218
0.13840217
0.10055265
0.053254043
0.0037541504
0.00043922366
0.23
0.23
0.23
0.23
0.23
0.23
0.23
0.22999999
0.22999998
0.22999997
0.22999994
0.22999989
0.22999981
0.22999967
0.22999946
0.22999912
0.22999861
0.22999783
0.22999666
0.22999495
0.22999243
0.22998874
0.2299833
0.22997513
0.22996238
0.22994099
0.2298997
0.22979494
0.22938632
0.22755886
0.22276516
0.21465741
0.20277875
0.18622635
0.16379587
0.13398517
0.096119532
0.049116775
0.0034746396
0.00041646299
0.23
0.23
0.23
0.23
0.23
0.23
0.22999999
0.22999998
0.22999997
0.22999994
0.2299999
0.22999982
0.22999969
0.22999948
0.22999916
0.22999866
0.2299979
0.22999676
0.22999509
0.22999264
0.22998907
0.22998386
0.22997618
0.22996459
0.22994629
0.22991492
0.22985194
0.22968191
0.22900904
0.22649134
0.22098587
0.21228152
0.19982788
0.1827209
0.15979665
0.12973133
0.091892742
0.045298247
0.0032544136
0.00039970041
0.23
0.23