/*--------------------------------*- C++ -*----------------------------------*\
| =========                 |                                                 |
| \\      /  F ield         | OpenFOAM: The Open Source CFD Toolbox           |
|  \\    /   O peration     | Version:  2.3.0                                 |
|   \\  /    A nd           | Web:      www.OpenFOAM.org                      |
|    \\/     M anipulation  |                                                 |
\*---------------------------------------------------------------------------*/
FoamFile
{
    version     2.0;
    format      ascii;
    class       volScalarField;
    location    "0.2";
    object      p;
}
// * * * * * * * * * * * * * * * * * * * * * * * * * * * * * * * * * * * * * //

dimensions      [1 -1 -2 0 0 0 0];

internalField   nonuniform List<scalar> 
5835
(
100065.18
100065.59
100067.23
100072.35
100098.67
100099.08
100100.03
100101.38
100123.14
100123.17
100007.26
100006.85
100006.64
100006.64
100006.88
100003.49
100003.58
100003.66
100003.64
100003.56
100000.98
100001
100001.02
100001.04
100001.01
99999.072
99999.092
99999.114
99999.122
99999.107
100123.24
100123.2
100144.34
100144.33
100144.31
100144.25
100165.45
100165.43
100165.41
100165.34
100186.66
100186.63
100186.63
100186.57
100208.08
100208.04
100208.05
100207.98
100229.66
100229.62
100229.63
100229.56
100251.42
100251.38
100251.4
100251.34
100273.39
100273.35
100273.38
100273.31
100295.6
100295.55
100295.59
100295.52
100318.02
100317.96
100318.01
100317.93
100340.64
100340.58
100340.64
100340.55
100363.47
100363.4
100363.47
100363.37
100386.55
100386.46
100386.56
100386.44
100409.87
100409.77
100409.89
100409.74
100433.26
100433.15
100433.28
100433.11
100456.55
100456.43
100456.6
100456.39
100480.59
100480.47
100480.67
100480.41
100506.54
100506.41
100506.62
100506.28
100531.59
100531.51
100531.8
100531.48
100549.17
100549.08
100549.25
100548.6
100563.73
100563.61
100563.5
100562.68
100608.02
100607.97
100607.79
100607.38
100691.05
100691.58
100692.96
100695.44
99997.207
99997.221
99997.239
99997.25
99997.243
99995.403
99995.41
99995.421
99995.429
99995.425
99993.684
99993.688
99993.695
99993.7
99993.698
99992.016
99992.019
99992.025
99992.029
99992.027
99990.38
99990.382
99990.386
99990.389
99990.389
99988.765
99988.767
99988.77
99988.772
99988.772
99987.167
99987.168
99987.17
99987.171
99987.171
99985.578
99985.579
99985.582
99985.582
99985.582
99983.998
99983.998
99984
99984
99984.001
99982.423
99982.423
99982.425
99982.424
99982.424
99980.852
99980.852
99980.853
99980.852
99980.853
99979.284
99979.284
99979.285
99979.284
99979.285
99977.719
99977.719
99977.72
99977.719
99977.72
99976.157
99976.157
99976.158
99976.157
99976.158
99974.598
99974.597
99974.598
99974.597
99974.598
99973.042
99973.042
99973.042
99973.041
99973.041
99971.488
99971.487
99971.485
99971.484
99971.483
99969.951
99969.947
99969.938
99969.924
99969.917
99968.419
99968.404
99968.366
99968.313
99968.279
99967.061
99967.024
99966.885
99966.644
99966.444
99965.888
99965.707
99965.26
99964.303
99962.875
99999.647
99999.657
99999.661
99999.661
99999.197
99999.208
99999.212
99999.212
99998.543
99998.554
99998.558
99998.558
99997.996
99998.008
99998.012
99998.012
99997.405
99997.416
99997.421
99997.421
99996.849
99996.861
99996.865
99996.865
99996.284
99996.296
99996.301
99996.301
99995.736
99995.748
99995.752
99995.753
99995.187
99995.2
99995.204
99995.204
99994.647
99994.66
99994.664
99994.665
99994.111
99994.125
99994.129
99994.13
99993.584
99993.598
99993.602
99993.603
99993.058
99993.072
99993.077
99993.078
99992.54
99992.555
99992.56
99992.56
99992.028
99992.043
99992.048
99992.048
99991.519
99991.535
99991.54
99991.541
99991.017
99991.033
99991.038
99991.038
99990.518
99990.534
99990.54
99990.54
99990.028
99990.045
99990.05
99990.051
99989.543
99989.56
99989.566
99989.566
99989.062
99989.079
99989.085
99989.086
99988.588
99988.606
99988.613
99988.613
99988.119
99988.138
99988.144
99988.144
99987.658
99987.677
99987.684
99987.684
99987.2
99987.221
99987.228
99987.228
99986.748
99986.769
99986.777
99986.777
99986.302
99986.323
99986.331
99986.331
99985.857
99985.879
99985.887
99985.887
99985.417
99985.44
99985.448
99985.448
99984.98
99985.003
99985.011
99985.011
99984.548
99984.571
99984.579
99984.578
99984.105
99984.129
99984.137
99984.137
99983.66
99983.687
99983.697
99983.698
99983.049
99983.106
99983.129
99983.141
99982.655
99982.721
99982.733
99982.717
99982.339
99982.428
99982.448
99982.424
99981.968
99982.06
99982.088
99982.081
99981.572
99981.666
99981.696
99981.691
99981.198
99981.294
99981.326
99981.324
99980.855
99980.954
99980.987
99980.987
99980.552
99980.653
99980.686
99980.683
99980.296
99980.399
99980.432
99980.427
99980.066
99980.172
99980.205
99980.2
99979.824
99979.933
99979.967
99979.962
99979.563
99979.676
99979.711
99979.704
99979.283
99979.399
99979.433
99979.424
99979.011
99979.13
99979.164
99979.153
99978.774
99978.897
99978.931
99978.92
99978.551
99978.677
99978.713
99978.701
99978.311
99978.442
99978.478
99978.465
99978.024
99978.158
99978.194
99978.179
99977.642
99977.779
99977.814
99977.795
99977.125
99977.264
99977.294
99977.266
99976.523
99976.661
99976.68
99976.635
99976.085
99976.221
99976.228
99976.163
99976.106
99976.249
99976.264
99976.212
99976.176
99976.324
99976.343
99976.298
99976.07
99976.219
99976.238
99976.192
99975.8
99975.95
99975.965
99975.915
99975.395
99975.545
99975.556
99975.505
99974.899
99975.052
99975.062
99975.013
99974.245
99974.427
99974.459
99974.437
99973.06
99973.347
99973.488
99973.582
99972.054
99972.401
99972.538
99972.695
99972.752
99973.025
99972.801
99972.615
99974.073
99974.356
99973.912
99973.28
99974.574
99974.929
99974.628
99973.939
99974.571
99974.937
99974.787
99974.272
99974.285
99974.642
99974.565
99974.211
99973.937
99974.28
99974.22
99973.954
99973.699
99974.024
99973.952
99973.724
99973.475
99973.788
99973.705
99973.5
99973.302
99973.602
99973.502
99973.304
99973.115
99973.407
99973.291
99973.093
99972.941
99973.219
99973.082
99972.873
99972.789
99973.055
99972.898
99972.676
99972.569
99972.833
99972.673
99972.456
99972.466
99972.72
99972.545
99972.318
99972.408
99972.65
99972.453
99972.214
99972.304
99972.54
99972.334
99972.093
99972.192
99972.428
99972.22
99971.982
99972.15
99972.377
99972.148
99971.896
99972.098
99972.318
99972.071
99971.806
99971.985
99972.203
99971.947
99971.677
99971.866
99972.078
99971.809
99971.526
99971.687
99971.897
99971.62
99971.325
99971.51
99971.721
99971.444
99971.143
99971.37
99971.58
99971.305
99970.999
99971.299
99971.497
99971.211
99970.882
99971.179
99971.369
99971.08
99970.734
99970.968
99971.161
99970.891
99970.548
99970.771
99970.961
99970.709
99970.365
99970.597
99970.773
99970.531
99970.175
99970.429
99970.585
99970.351
99969.975
99970.161
99970.31
99970.109
99969.733
99969.816
99969.965
99969.818
99969.457
99969.52
99969.648
99969.553
99969.192
99969.47
99969.484
99969.398
99969.014
99969.743
99969.557
99969.393
99968.931
99969.529
99969.471
99969.346
99968.816
99968.876
99969.148
99969.216
99968.646
99968.692
99968.993
99969.133
99968.455
99969.137
99969.41
99969.37
99968.382
99969.548
99969.63
99969.644
99968.265
99968.851
99968.704
99969.519
99968.009
99967.869
99967.674
99969.108
99967.75
99968.918
99968.838
99969.447
99967.663
99971.678
99972.763
99971.981
99969.942
99970.598
99973.523
99968.657
99977.033
99986.166
99986.627
99973.09
99986.283
99952.825
99975.535
99969.198
99967.762
99967.988
99968.122
99968.252
99968.303
99968.344
99968.484
99968.613
99968.709
99968.796
99968.974
99969.238
99969.505
99969.747
99969.961
99970.164
99970.353
99970.541
99970.701
99970.835
99970.987
99971.175
99971.382
99971.544
99971.678
99971.776
99971.868
99971.976
99972.096
99972.204
99972.341
99972.552
99972.745
99972.953
99973.135
99973.284
99973.441
99973.597
99973.779
99973.811
99973.559
99973.108
99972.685
99972.842
99973.644
99974.427
99974.984
99975.471
99975.881
99976.158
99976.265
99976.174
99976.114
99976.601
99977.245
99977.78
99978.166
99978.453
99978.69
99978.909
99979.142
99979.415
99979.697
99979.955
99980.194
99980.421
99980.677
99980.984
99981.319
99981.685
99982.073
99982.394
99982.709
99983.154
99983.697
99984.136
99984.577
99985.01
99985.447
99985.886
99986.33
99986.776
99987.227
99987.683
99988.144
99988.612
99989.085
99989.566
99990.05
99990.54
99991.038
99991.54
99992.048
99992.56
99993.077
99993.602
99994.129
99994.664
99995.204
99995.752
99996.301
99996.865
99997.421
99998.011
99998.558
99999.211
99999.661
99999.67
99999.201
99998.562
99998.008
99997.422
99996.864
99996.302
99995.753
99995.205
99994.665
99994.13
99993.603
99993.078
99992.561
99992.048
99991.54
99991.038
99990.539
99990.05
99989.564
99989.084
99988.61
99988.142
99987.681
99987.225
99986.773
99986.326
99985.882
99985.442
99985.005
99984.571
99984.134
99983.696
99983.239
99982.777
99982.296
99981.839
99981.437
99981.18
99980.931
99980.605
99980.348
99980.13
99979.885
99979.618
99979.313
99979.014
99978.788
99978.569
99978.325
99978.024
99977.61
99977.003
99976.181
99975.453
99975.725
99975.915
99975.831
99975.561
99975.167
99974.732
99974.301
99973.862
99973.474
99973.238
99973.095
99972.968
99972.82
99972.63
99972.414
99972.194
99971.96
99971.736
99971.53
99971.302
99971.119
99970.948
99970.834
99970.732
99970.632
99970.534
99970.43
99970.325
99970.215
99970.058
99969.844
99969.665
99969.523
99969.363
99969.187
99969.008
99968.822
99968.611
99968.377
99968.168
99967.968
99967.731
99967.654
99967.644
99967.573
99967.478
99967.342
99967.248
99967.167
99967.105
99967.071
99967.045
99967.069
99967.14
99966.753
99999.668
99999.203
99998.561
99998.009
99997.422
99996.864
99996.301
99995.753
99995.205
99994.665
99994.13
99993.603
99993.078
99992.561
99992.048
99991.54
99991.038
99990.539
99990.05
99989.565
99989.084
99988.611
99988.142
99987.682
99987.225
99986.774
99986.327
99985.883
99985.443
99985.006
99984.572
99984.134
99983.695
99983.228
99982.752
99982.262
99981.857
99981.529
99981.257
99980.967
99980.639
99980.375
99980.149
99979.905
99979.639
99979.341
99979.049
99978.819
99978.599
99978.356
99978.058
99977.65
99977.058
99976.284
99975.628
99975.83
99975.992
99975.901
99975.628
99975.231
99974.787
99974.336
99973.854
99973.42
99973.18
99973.071
99972.977
99972.848
99972.662
99972.44
99972.222
99971.997
99971.782
99971.579
99971.362
99971.182
99971.014
99970.898
99970.797
99970.699
99970.604
99970.508
99970.408
99970.297
99970.141
99969.934
99969.755
99969.612
99969.458
99969.288
99969.113
99968.928
99968.719
99968.488
99968.272
99968.059
99967.805
99967.661
99967.588
99967.506
99967.396
99967.28
99967.266
99967.318
99967.205
99967.113
99967.061
99967.132
99967.277
99966.449
99999.667
99999.204
99998.56
99998.009
99997.421
99996.864
99996.301
99995.752
99995.204
99994.664
99994.13
99993.602
99993.078
99992.56
99992.048
99991.54
99991.038
99990.539
99990.05
99989.565
99989.084
99988.611
99988.143
99987.682
99987.226
99986.774
99986.328
99985.883
99985.444
99985.007
99984.574
99984.135
99983.694
99983.214
99982.721
99982.256
99981.929
99981.618
99981.295
99980.976
99980.653
99980.39
99980.164
99979.921
99979.658
99979.365
99979.08
99978.848
99978.628
99978.386
99978.091
99977.689
99977.114
99976.383
99975.787
99975.934
99976.07
99975.973
99975.697
99975.295
99974.841
99974.366
99973.828
99973.329
99973.085
99973.025
99972.98
99972.883
99972.704
99972.481
99972.273
99972.069
99971.879
99971.696
99971.499
99971.332
99971.173
99971.067
99970.977
99970.888
99970.805
99970.724
99970.633
99970.523
99970.369
99970.169
99969.991
99969.847
99969.695
99969.525
99969.345
99969.155
99968.941
99968.707
99968.479
99968.249
99967.986
99967.813
99967.717
99967.629
99967.506
99967.355
99967.277
99967.247
99967.111
99967.06
99967.15
99967.543
99967.749
99966.225
99999.665
99999.206
99998.56
99998.01
99997.421
99996.864
99996.301
99995.752
99995.204
99994.664
99994.129
99993.602
99993.077
99992.56
99992.048
99991.54
99991.038
99990.539
99990.05
99989.565
99989.084
99988.611
99988.143
99987.682
99987.226
99986.775
99986.328
99985.884
99985.445
99985.008
99984.575
99984.135
99983.694
99983.195
99982.696
99982.295
99982.013
99981.662
99981.309
99980.979
99980.663
99980.403
99980.176
99979.935
99979.674
99979.386
99979.106
99978.874
99978.654
99978.414
99978.122
99977.726
99977.168
99976.475
99975.929
99976.033
99976.147
99976.045
99975.767
99975.361
99974.894
99974.39
99973.777
99973.188
99972.942
99972.959
99972.992
99972.957
99972.816
99972.625
99972.465
99972.32
99972.188
99972.048
99971.881
99971.732
99971.583
99971.487
99971.408
99971.324
99971.246
99971.172
99971.08
99970.96
99970.796
99970.587
99970.396
99970.238
99970.078
99969.898
99969.703
99969.499
99969.272
99969.026
99968.778
99968.519
99968.241
99968.048
99967.937
99967.842
99967.725
99967.592
99967.533
99967.517
99967.434
99967.345
99967.153
99967.49
99968.254
99965.722
99999.663
99999.209
99998.559
99998.011
99997.421
99996.864
99996.301
99995.752
99995.204
99994.664
99994.129
99993.602
99993.077
99992.56
99992.048
99991.54
99991.038
99990.539
99990.05
99989.565
99989.085
99988.612
99988.143
99987.683
99987.226
99986.775
99986.329
99985.885
99985.446
99985.009
99984.576
99984.135
99983.695
99983.171
99982.698
99982.355
99982.062
99981.68
99981.315
99980.981
99980.671
99980.414
99980.187
99979.948
99979.689
99979.405
99979.129
99978.897
99978.677
99978.439
99978.15
99977.761
99977.219
99976.558
99976.052
99976.125
99976.222
99976.116
99975.837
99975.427
99974.948
99974.411
99973.702
99972.992
99972.764
99972.938
99973.141
99973.248
99973.201
99973.078
99972.997
99972.92
99972.833
99972.698
99972.515
99972.338
99972.147
99972.017
99971.911
99971.796
99971.693
99971.598
99971.491
99971.352
99971.178
99970.963
99970.765
99970.602
99970.448
99970.273
99970.078
99969.877
99969.659
99969.426
99969.18
99968.918
99968.649
99968.464
99968.364
99968.274
99968.159
99968.032
99967.98
99967.942
99967.847
99967.723
99967.354
99967.85
99970.984
99962.934
99966.425
99967.155
99967.064
99967.049
99967.07
99967.102
99967.163
99967.248
99967.342
99967.467
99967.561
99967.632
99967.686
99967.798
99968.022
99968.194
99968.382
99968.609
99968.819
99969.007
99969.19
99969.373
99969.533
99969.653
99969.801
99970.005
99970.16
99970.268
99970.375
99970.483
99970.583
99970.684
99970.787
99970.899
99971.075
99971.261
99971.498
99971.702
99971.931
99972.171
99972.392
99972.606
99972.8
99972.958
99973.099
99973.256
99973.491
99973.857
99974.274
99974.696
99975.126
99975.518
99975.788
99975.868
99975.658
99975.334
99976.115
99976.969
99977.587
99978.004
99978.305
99978.55
99978.768
99978.99
99979.293
99979.601
99979.868
99980.109
99980.302
99980.531
99980.85
99981.128
99981.433
99981.862
99982.318
99982.789
99983.245
99983.696
99984.134
99984.57
99985.004
99985.441
99985.881
99986.325
99986.772
99987.224
99987.68
99988.141
99988.61
99989.083
99989.564
99990.049
99990.539
99991.038
99991.54
99992.048
99992.561
99993.078
99993.603
99994.131
99994.665
99995.205
99995.753
99996.302
99996.864
99997.423
99998.008
99998.563
99999.198
99999.673
99967.148
99967.116
99967.087
99967.064
99967.049
99967.042
99967.043
99967.049
99967.061
99967.076
99967.092
99967.108
99967.124
99967.138
99967.15
99967.16
99967.168
99967.174
99967.179
99967.181
99967.183
99967.183
99967.183
99967.182
99967.181
99967.18
99967.178
99967.176
99967.171
99967.174
99967.159
99967.167
99967.137
99967.16
99967.1
99967.159
99967.019
99967.169
99966.865
99967.247
99967.108
99967.073
99967.045
99967.022
99967.007
99967
99967.001
99967.007
99967.019
99967.033
99967.049
99967.065
99967.081
99967.094
99967.107
99967.117
99967.125
99967.131
99967.135
99967.138
99967.14
99967.14
99967.141
99967.14
99967.139
99967.138
99967.136
99967.134
99967.131
99967.13
99967.119
99967.124
99967.099
99967.119
99967.064
99967.118
99967.015
99967.114
99966.994
99967.088
99967.119
99967.085
99967.057
99967.035
99967.021
99967.014
99967.015
99967.022
99967.033
99967.047
99967.063
99967.079
99967.094
99967.107
99967.119
99967.129
99967.137
99967.144
99967.149
99967.152
99967.155
99967.156
99967.157
99967.157
99967.157
99967.156
99967.155
99967.153
99967.15
99967.148
99967.141
99967.142
99967.123
99967.134
99967.092
99967.122
99967.052
99967.097
99967.033
99967.057
99967.131
99967.098
99967.072
99967.052
99967.038
99967.033
99967.034
99967.041
99967.052
99967.065
99967.08
99967.095
99967.109
99967.122
99967.134
99967.144
99967.152
99967.159
99967.165
99967.169
99967.173
99967.175
99967.177
99967.178
99967.179
99967.179
99967.178
99967.176
99967.174
99967.171
99967.166
99967.164
99967.151
99967.153
99967.124
99967.135
99967.087
99967.105
99967.059
99967.071
99967.141
99967.11
99967.086
99967.067
99967.055
99967.051
99967.052
99967.059
99967.069
99967.082
99967.096
99967.11
99967.123
99967.136
99967.147
99967.157
99967.166
99967.173
99967.18
99967.185
99967.19
99967.194
99967.197
99967.199
99967.2
99967.201
99967.201
99967.199
99967.197
99967.195
99967.19
99967.187
99967.177
99967.174
99967.153
99967.153
99967.119
99967.12
99967.088
99967.087
99967.153
99967.125
99967.103
99967.087
99967.077
99967.073
99967.075
99967.081
99967.091
99967.103
99967.116
99967.129
99967.142
99967.154
99967.165
99967.175
99967.184
99967.192
99967.199
99967.206
99967.212
99967.217
99967.222
99967.225
99967.228
99967.229
99967.229
99967.228
99967.226
99967.224
99967.22
99967.216
99967.208
99967.202
99967.187
99967.18
99967.156
99967.146
99967.127
99967.113
99967.17
99967.145
99967.126
99967.112
99967.104
99967.101
99967.104
99967.11
99967.12
99967.13
99967.142
99967.154
99967.166
99967.177
99967.188
99967.198
99967.207
99967.217
99967.225
99967.234
99967.241
99967.248
99967.254
99967.258
99967.261
99967.263
99967.264
99967.264
99967.262
99967.26
99967.256
99967.252
99967.246
99967.24
99967.228
99967.22
99967.202
99967.191
99967.179
99967.162
99967.191
99967.17
99967.153
99967.142
99967.136
99967.135
99967.138
99967.145
99967.153
99967.163
99967.173
99967.184
99967.195
99967.206
99967.216
99967.227
99967.237
99967.247
99967.257
99967.267
99967.276
99967.284
99967.291
99967.297
99967.301
99967.303
99967.304
99967.304
99967.303
99967.301
99967.299
99967.296
99967.291
99967.286
99967.278
99967.272
99967.26
99967.256
99967.247
99967.234
99967.216
99967.198
99967.186
99967.177
99967.173
99967.174
99967.177
99967.184
99967.191
99967.2
99967.21
99967.219
99967.229
99967.24
99967.25
99967.261
99967.272
99967.283
99967.295
99967.305
99967.316
99967.325
99967.333
99967.34
99967.344
99967.348
99967.349
99967.35
99967.349
99967.348
99967.347
99967.345
99967.344
99967.342
99967.337
99967.34
99967.329
99967.341
99967.32
99967.318
99967.246
99967.232
99967.222
99967.217
99967.215
99967.217
99967.221
99967.227
99967.234
99967.242
99967.251
99967.26
99967.269
99967.279
99967.29
99967.301
99967.313
99967.325
99967.338
99967.35
99967.361
99967.372
99967.38
99967.388
99967.393
99967.397
99967.399
99967.4
99967.401
99967.401
99967.402
99967.403
99967.404
99967.408
99967.406
99967.42
99967.406
99967.44
99967.398
99967.424
99967.28
99967.27
99967.264
99967.261
99967.262
99967.265
99967.27
99967.276
99967.282
99967.29
99967.297
99967.305
99967.314
99967.324
99967.336
99967.348
99967.36
99967.374
99967.387
99967.401
99967.413
99967.424
99967.433
99967.441
99967.446
99967.45
99967.453
99967.456
99967.458
99967.461
99967.464
99967.469
99967.474
99967.483
99967.483
99967.506
99967.487
99967.528
99967.467
99967.521
99967.32
99967.313
99967.31
99967.31
99967.313
99967.318
99967.323
99967.329
99967.335
99967.342
99967.349
99967.357
99967.366
99967.376
99967.388
99967.401
99967.415
99967.429
99967.443
99967.457
99967.47
99967.481
99967.491
99967.499
99967.504
99967.509
99967.513
99967.517
99967.522
99967.527
99967.534
99967.542
99967.551
99967.563
99967.564
99967.587
99967.568
99967.597
99967.538
99967.61
99967.365
99967.362
99967.362
99967.365
99967.369
99967.375
99967.381
99967.387
99967.393
99967.399
99967.406
99967.414
99967.424
99967.435
99967.447
99967.461
99967.476
99967.491
99967.506
99967.52
99967.533
99967.545
99967.554
99967.562
99967.568
99967.573
99967.578
99967.584
99967.591
99967.6
99967.611
99967.622
99967.633
99967.646
99967.646
99967.662
99967.65
99967.665
99967.632
99967.726
99967.417
99967.417
99967.419
99967.424
99967.43
99967.436
99967.443
99967.449
99967.455
99967.462
99967.469
99967.478
99967.488
99967.499
99967.513
99967.528
99967.543
99967.559
99967.575
99967.589
99967.602
99967.613
99967.623
99967.63
99967.636
99967.642
99967.648
99967.656
99967.666
99967.678
99967.692
99967.707
99967.719
99967.73
99967.731
99967.737
99967.742
99967.747
99967.753
99967.865
99967.474
99967.477
99967.481
99967.488
99967.495
99967.502
99967.509
99967.516
99967.523
99967.53
99967.538
99967.547
99967.558
99967.571
99967.586
99967.601
99967.618
99967.634
99967.65
99967.665
99967.677
99967.688
99967.697
99967.704
99967.71
99967.716
99967.723
99967.733
99967.746
99967.761
99967.779
99967.796
99967.81
99967.82
99967.825
99967.83
99967.859
99967.876
99967.929
99968.067
99967.538
99967.542
99967.548
99967.556
99967.564
99967.572
99967.58
99967.587
99967.594
99967.602
99967.611
99967.622
99967.635
99967.649
99967.665
99967.682
99967.699
99967.716
99967.732
99967.746
99967.758
99967.768
99967.776
99967.782
99967.788
99967.794
99967.802
99967.814
99967.829
99967.848
99967.87
99967.891
99967.91
99967.924
99967.938
99967.957
99968.009
99968.056
99968.132
99968.255
99967.607
99967.613
99967.621
99967.629
99967.638
99967.646
99967.654
99967.662
99967.67
99967.68
99967.69
99967.703
99967.717
99967.733
99967.75
99967.768
99967.786
99967.803
99967.819
99967.833
99967.844
99967.853
99967.86
99967.866
99967.871
99967.877
99967.886
99967.899
99967.917
99967.941
99967.968
99967.997
99968.024
99968.048
99968.077
99968.119
99968.189
99968.269
99968.365
99968.466
99967.683
99967.691
99967.699
99967.707
99967.716
99967.725
99967.733
99967.742
99967.752
99967.762
99967.775
99967.789
99967.805
99967.823
99967.841
99967.86
99967.879
99967.896
99967.912
99967.925
99967.936
99967.944
99967.95
99967.955
99967.959
99967.965
99967.974
99967.989
99968.011
99968.04
99968.076
99968.116
99968.156
99968.197
99968.24
99968.309
99968.384
99968.487
99968.588
99968.68
99967.766
99967.774
99967.782
99967.79
99967.799
99967.808
99967.817
99967.827
99967.837
99967.85
99967.865
99967.881
99967.899
99967.918
99967.938
99967.958
99967.977
99967.995
99968.01
99968.023
99968.033
99968.041
99968.046
99968.049
99968.053
99968.058
99968.068
99968.086
99968.112
99968.149
99968.196
99968.249
99968.307
99968.369
99968.429
99968.517
99968.592
99968.703
99968.783
99968.886
99967.855
99967.863
99967.871
99967.879
99967.887
99967.896
99967.905
99967.916
99967.928
99967.943
99967.959
99967.978
99967.998
99968.019
99968.04
99968.061
99968.081
99968.099
99968.114
99968.127
99968.137
99968.143
99968.147
99968.15
99968.153
99968.159
99968.171
99968.191
99968.223
99968.268
99968.325
99968.394
99968.47
99968.553
99968.635
99968.734
99968.816
99968.919
99968.963
99969.078
99967.951
99967.958
99967.965
99967.972
99967.98
99967.988
99967.998
99968.01
99968.024
99968.041
99968.06
99968.08
99968.102
99968.125
99968.148
99968.17
99968.19
99968.208
99968.224
99968.236
99968.245
99968.252
99968.255
99968.258
99968.261
99968.268
99968.282
99968.306
99968.343
99968.396
99968.463
99968.545
99968.637
99968.739
99968.845
99968.951
99969.041
99969.131
99969.133
99969.268
99968.054
99968.06
99968.066
99968.072
99968.079
99968.087
99968.097
99968.11
99968.126
99968.144
99968.165
99968.188
99968.212
99968.236
99968.26
99968.283
99968.304
99968.323
99968.338
99968.351
99968.36
99968.367
99968.371
99968.374
99968.379
99968.388
99968.405
99968.433
99968.475
99968.534
99968.609
99968.699
99968.803
99968.917
99969.043
99969.154
99969.255
99969.333
99969.321
99969.459
99968.163
99968.168
99968.172
99968.177
99968.183
99968.191
99968.202
99968.216
99968.233
99968.253
99968.276
99968.301
99968.326
99968.352
99968.377
99968.401
99968.423
99968.442
99968.459
99968.472
99968.481
99968.489
99968.494
99968.499
99968.506
99968.518
99968.539
99968.571
99968.618
99968.681
99968.76
99968.855
99968.964
99969.083
99969.218
99969.332
99969.436
99969.504
99969.495
99969.605
99968.278
99968.281
99968.285
99968.288
99968.293
99968.301
99968.312
99968.327
99968.346
99968.367
99968.392
99968.418
99968.446
99968.473
99968.499
99968.524
99968.547
99968.567
99968.584
99968.598
99968.609
99968.617
99968.625
99968.633
99968.643
99968.66
99968.685
99968.722
99968.772
99968.838
99968.918
99969.013
99969.123
99969.243
99969.374
99969.49
99969.591
99969.65
99969.641
99969.65
99968.399
99968.401
99968.403
99968.405
99968.41
99968.417
99968.428
99968.444
99968.464
99968.487
99968.513
99968.541
99968.57
99968.598
99968.626
99968.651
99968.675
99968.696
99968.714
99968.73
99968.743
99968.754
99968.764
99968.775
99968.791
99968.812
99968.842
99968.883
99968.937
99969.004
99969.084
99969.177
99969.283
99969.405
99969.525
99969.639
99969.731
99969.789
99969.793
99969.699
99968.526
99968.527
99968.527
99968.528
99968.532
99968.539
99968.55
99968.567
99968.587
99968.612
99968.639
99968.668
99968.698
99968.728
99968.756
99968.783
99968.808
99968.83
99968.85
99968.868
99968.883
99968.897
99968.911
99968.927
99968.947
99968.974
99969.009
99969.055
99969.112
99969.179
99969.257
99969.346
99969.445
99969.563
99969.672
99969.784
99969.869
99969.936
99969.979
99969.86
99968.659
99968.658
99968.657
99968.657
99968.66
99968.667
99968.679
99968.695
99968.717
99968.742
99968.771
99968.801
99968.832
99968.863
99968.892
99968.92
99968.946
99968.97
99968.992
99969.012
99969.031
99969.049
99969.067
99969.088
99969.114
99969.146
99969.186
99969.236
99969.294
99969.362
99969.437
99969.521
99969.612
99969.717
99969.817
99969.918
99969.988
99970.044
99970.094
99970.005
99968.798
99968.796
99968.794
99968.793
99968.795
99968.801
99968.813
99968.83
99968.852
99968.878
99968.908
99968.939
99968.971
99969.002
99969.033
99969.062
99969.09
99969.116
99969.14
99969.163
99969.186
99969.208
99969.232
99969.259
99969.29
99969.327
99969.371
99969.424
99969.483
99969.55
99969.621
99969.698
99969.782
99969.871
99969.96
99970.042
99970.088
99970.09
99970.179
99970.11
99968.943
99968.94
99968.937
99968.935
99968.936
99968.943
99968.954
99968.972
99968.994
99969.021
99969.051
99969.083
99969.115
99969.148
99969.18
99969.211
99969.24
99969.268
99969.296
99969.322
99969.349
99969.377
99969.406
99969.438
99969.475
99969.516
99969.564
99969.618
99969.678
99969.742
99969.808
99969.876
99969.952
99970.023
99970.099
99970.167
99970.218
99970.25
99970.306
99970.226
99969.094
99969.09
99969.086
99969.084
99969.085
99969.091
99969.103
99969.12
99969.143
99969.17
99969.2
99969.233
99969.266
99969.3
99969.333
99969.366
99969.397
99969.428
99969.459
99969.49
99969.521
99969.554
99969.589
99969.627
99969.668
99969.714
99969.764
99969.819
99969.876
99969.935
99969.994
99970.052
99970.113
99970.166
99970.229
99970.284
99970.337
99970.391
99970.427
99970.345
99969.25
99969.246
99969.242
99969.239
99969.24
99969.245
99969.257
99969.275
99969.297
99969.325
99969.356
99969.389
99969.423
99969.458
99969.492
99969.527
99969.561
99969.594
99969.629
99969.664
99969.7
99969.739
99969.779
99969.823
99969.869
99969.918
99969.969
99970.022
99970.075
99970.126
99970.175
99970.219
99970.261
99970.301
99970.349
99970.389
99970.43
99970.464
99970.522
99970.451
99969.412
99969.407
99969.403
99969.4
99969.4
99969.406
99969.417
99969.435
99969.458
99969.485
99969.516
99969.55
99969.585
99969.621
99969.657
99969.694
99969.73
99969.767
99969.805
99969.845
99969.886
99969.93
99969.976
99970.024
99970.074
99970.125
99970.176
99970.225
99970.271
99970.312
99970.346
99970.377
99970.402
99970.432
99970.467
99970.497
99970.529
99970.558
99970.625
99970.559
99969.579
99969.575
99969.57
99969.567
99969.567
99969.573
99969.584
99969.602
99969.625
99969.653
99969.684
99969.718
99969.755
99969.792
99969.83
99969.869
99969.908
99969.948
99969.99
99970.033
99970.079
99970.128
99970.179
99970.231
99970.284
99970.335
99970.384
99970.427
99970.463
99970.491
99970.511
99970.528
99970.54
99970.566
99970.593
99970.614
99970.628
99970.641
99970.723
99970.668
99969.753
99969.749
99969.744
99969.741
99969.741
99969.746
99969.758
99969.775
99969.798
99969.827
99969.859
99969.894
99969.931
99969.97
99970.01
99970.051
99970.093
99970.136
99970.181
99970.228
99970.278
99970.331
99970.386
99970.441
99970.495
99970.546
99970.59
99970.624
99970.649
99970.663
99970.668
99970.673
99970.683
99970.711
99970.736
99970.746
99970.722
99970.646
99970.783
99970.778
99969.932
99969.928
99969.923
99969.92
99969.92
99969.925
99969.937
99969.955
99969.978
99970.007
99970.04
99970.076
99970.114
99970.155
99970.197
99970.24
99970.284
99970.33
99970.378
99970.428
99970.481
99970.537
99970.594
99970.651
99970.705
99970.752
99970.789
99970.814
99970.825
99970.826
99970.824
99970.823
99970.841
99970.877
99970.909
99970.93
99970.925
99970.922
99970.994
99970.968
99970.116
99970.112
99970.108
99970.105
99970.105
99970.111
99970.123
99970.141
99970.165
99970.194
99970.228
99970.265
99970.305
99970.347
99970.391
99970.436
99970.482
99970.53
99970.58
99970.633
99970.688
99970.745
99970.804
99970.86
99970.911
99970.953
99970.981
99970.995
99970.995
99970.987
99970.983
99970.988
99971.019
99971.063
99971.1
99971.123
99971.117
99971.116
99971.185
99971.166
99970.306
99970.303
99970.299
99970.297
99970.297
99970.303
99970.315
99970.334
99970.358
99970.388
99970.423
99970.462
99970.503
99970.546
99970.592
99970.638
99970.686
99970.736
99970.787
99970.841
99970.897
99970.955
99971.012
99971.067
99971.113
99971.148
99971.168
99971.172
99971.165
99971.155
99971.157
99971.175
99971.221
99971.271
99971.313
99971.343
99971.35
99971.365
99971.449
99971.423
99970.503
99970.5
99970.496
99970.494
99970.495
99970.502
99970.514
99970.533
99970.559
99970.59
99970.626
99970.665
99970.708
99970.753
99970.799
99970.847
99970.896
99970.947
99970.999
99971.053
99971.108
99971.165
99971.22
99971.27
99971.311
99971.338
99971.35
99971.349
99971.34
99971.338
99971.351
99971.387