/*--------------------------------*- C++ -*----------------------------------*\
| =========                 |                                                 |
| \\      /  F ield         | OpenFOAM: The Open Source CFD Toolbox           |
|  \\    /   O peration     | Version:  2.3.0                                 |
|   \\  /    A nd           | Web:      www.OpenFOAM.org                      |
|    \\/     M anipulation  |                                                 |
\*---------------------------------------------------------------------------*/
FoamFile
{
    version     2.0;
    format      ascii;
    class       volScalarField;
    location    "0.2";
    object      T;
}
// * * * * * * * * * * * * * * * * * * * * * * * * * * * * * * * * * * * * * //

dimensions      [0 0 0 1 0 0 0];

internalField   nonuniform List<scalar> 
5835
(
300
300
300
300
300
300
300
300
300
300
1879.3588
1879.3477
1879.344
1879.3461
1879.356
1878.6299
1878.6963
1878.7163
1878.7072
1878.6572
1877.8659
1878.0388
1878.1109
1878.0843
1877.9603
1877.0922
1877.3731
1877.515
1877.4717
1877.2776
300
300
300
300
300
300
300
300
300
300
300
300
300
300
300
300
300
300
300
300
300
300
300
300
300
300
300
300
300
300
300
300
300
300
300
300
300
300
300
300
300
300
300
300
300
300
300
300
300
300
300
300
300
300
300
300
300
300
300
300
300
300
300
300
300
300
300
300
300
300
300
300
300
300
300
300
300
300
300
300
300
300
300
300
300
300
300
300
300
300
1876.3243
1876.7013
1876.9197
1876.864
1876.6139
1875.5687
1876.0246
1876.3188
1876.2571
1875.9657
1874.8207
1875.3417
1875.7081
1875.6466
1875.3254
1874.071
1874.6488
1875.0829
1875.027
1874.684
1873.3087
1873.9397
1874.4382
1874.3923
1874.0321
1872.5233
1873.207
1873.7684
1873.7357
1873.3603
1871.7054
1872.4434
1873.0675
1873.0503
1872.6597
1870.8471
1871.6418
1872.3293
1872.3291
1871.9223
1869.942
1870.796
1871.548
1871.5657
1871.1409
1868.9851
1869.9006
1870.7184
1870.754
1870.3092
1867.972
1868.951
1869.8357
1869.8889
1869.4219
1866.8993
1867.9433
1868.8955
1868.9659
1868.4745
1865.7632
1866.874
1867.8943
1867.9809
1867.4632
1864.56
1865.7394
1866.8287
1866.9306
1866.3845
1863.2856
1864.536
1865.6955
1865.8116
1865.2353
1861.935
1863.2597
1864.4911
1864.6207
1864.012
1860.5021
1861.9049
1863.2112
1863.354
1862.7111
1858.9797
1860.4658
1861.8504
1862.0075
1861.3292
1857.349
1858.9231
1860.3901
1860.5761
1859.8764
1855.3172
1857.1466
1858.789
1859.1242
1858.6819
1842.0536
1850.6555
1855.724
1860.2754
1874.0825
1209.0785
1208.6059
1207.562
1205.9764
1222.6707
1222.1803
1221.0972
1219.4521
1239.7576
1239.2446
1238.1116
1236.3907
1258.0035
1257.4661
1256.279
1254.4762
1276.9327
1276.3691
1275.1244
1273.2342
1296.3756
1295.7846
1294.4792
1292.4969
1316.3991
1315.7788
1314.409
1312.3291
1336.9458
1336.2947
1334.8569
1332.6738
1358.1304
1357.4465
1355.9364
1353.6437
1379.9475
1379.2289
1377.642
1375.2328
1402.401
1401.6454
1399.9768
1397.4439
1425.5047
1424.7098
1422.9544
1420.2899
1449.3781
1448.5412
1446.6929
1443.8878
1474.0015
1473.1195
1471.172
1468.2168
1499.2855
1498.3555
1496.3025
1493.1876
1525.4405
1524.4588
1522.2925
1519.0062
1552.3238
1551.2869
1548.9995
1545.5304
1580.1106
1579.0145
1576.5971
1572.9314
1608.6428
1607.4835
1604.9271
1601.0516
1638.0771
1636.8502
1634.1447
1630.0437
1668.583
1667.2833
1664.4169
1660.0725
1700.1255
1698.7474
1695.7075
1691.1007
1732.7945
1731.3318
1728.1045
1723.214
1766.6892
1765.1346
1761.7037
1756.5054
1801.7748
1800.1203
1796.4684
1790.9364
1838.32
1836.5555
1832.6615
1826.7644
1876.0918
1874.207
1870.0489
1863.7543
1915.3855
1913.3675
1908.9185
1902.1869
1955.9106
1953.7462
1948.9784
1941.7693
1997.7919
1995.4659
1990.3471
1982.613
2040.9755
2038.4709
2032.9652
2024.6538
2085.6878
2082.9846
2077.0492
2068.0982
2131.8802
2128.9568
2122.5521
2112.8966
2178.9763
2175.861
2169.0998
2158.8431
2213.6117
2212.866
2210.3479
2203.7242
2209.9066
2210.4827
2211.5802
2212.6531
2202.02
2202.842
2204.5983
2207.0792
2193.6636
2194.5706
2196.5457
2199.4685
2185.2543
2186.2101
2188.3037
2191.4426
2176.777
2177.7727
2179.958
2183.2476
2168.2242
2169.2612
2171.5393
2174.9754
2159.5757
2160.6571
2163.0339
2166.6217
2150.8148
2151.9443
2154.4262
2158.1719
2141.934
2143.117
2145.7154
2149.6346
2132.8837
2134.1268
2136.8557
2140.9686
2123.6556
2124.9665
2127.8418
2132.1715
2114.2426
2115.6294
2118.6687
2123.2402
2104.6335
2106.1051
2109.327
2114.1666
2094.7668
2096.3334
2099.7591
2104.8968
2084.6902
2086.3626
2090.0145
2095.4819
2074.3433
2076.1341
2080.0391
2085.8733
2063.7205
2065.6445
2069.8328
2076.0753
2052.8201
2054.8942
2059.4002
2066.0978
2041.6416
2043.8853
2048.7488
2055.9541
2030.1838
2032.6201
2037.8872
2045.6596
2018.438
2021.0946
2026.8195
2035.2271
2006.3009
2009.2146
2015.4677
2024.5952
1993.788
1997.0078
2003.8788
2013.827
1980.6351
1984.2438
1991.877
2002.7965
1966.4451
1970.6104
1979.2776
1991.4248
1949.748
1954.9122
1965.2823
1979.2288
1926.626
1934.1277
1948.0752
1965.2613
1886.1186
1900.1515
1923.1802
1947.4268
1801.7541
1833.6057
1880.4815
1921.4726
1642.2875
1706.4558
1803.0081
1880.4597
1457.8138
1538.9405
1684.5372
1818.2382
1317.9993
1397.643
1556.1123
1737.1104
1211.0477
1287.618
1444.0968
1646.7473
1122.1006
1197.1465
1350.3413
1559.0048
1044.2924
1119.0886
1270.3839
1479.8129
973.81104
1049.1149
1199.6825
1408.3798
909.73625
986.04925
1136.6357
1344.2004
851.12779
928.65979
1079.7976
1286.3721
796.8536
875.65456
1027.7013
1233.7356
747.08652
827.08111
980.16847
1186.1232
701.00481
782.03841
936.09478
1142.311
658.84748
740.68147
895.5062
1102.1253
619.91954
702.26594
857.60572
1064.632
584.06691
666.5913
822.18204
1029.5908
551.49848
633.81569
789.35858
997.08621
521.64717
603.33081
758.49806
966.46035
494.38112
574.97772
729.42555
937.56043
469.57173
548.61529
701.98253
910.26494
447.35185
524.39626
676.29149
884.67523
427.27423
501.87573
651.86339
860.29004
409.2654
481.02342
628.65371
837.0475
393.12531
461.67561
606.47161
814.71547
378.72274
443.754
585.23481
793.1844
365.92918
427.18672
564.88082
772.37823
354.61966
411.9033
545.35177
752.21894
344.73989
397.92567
526.70363
732.70974
336.09265
385.08053
508.75754
713.63183
328.57277
373.3111
491.49193
694.94778
322.08062
362.56033
474.87623
676.58918
316.5217
352.77325
458.8769
658.47297
311.80631
343.89961
443.46437
640.52177
307.81965
335.83708
428.5186
622.59877
304.52014
328.61871
414.14957
604.84964
301.8283
322.20717
400.33875
587.22058
300
316.56297
387.0625
569.61262
300
311.644
374.30339
551.87127
300
307.43224
362.13262
533.95127
300
303.905
350.64315
515.77582
300
300.99076
339.80517
496.92753
300
300
329.7553
477.05212
300
300
320.62568
455.83533
300
300
312.61415
433.19795
300
300
305.83651
408.69739
300
300
300.33198
380.69232
300
300
300
347.04076
712.70393
698.45068
683.98172
683.0248
690.85747
702.49569
715.28723
728.49581
742.12528
756.07007
770.04155
783.91176
797.86938
812.04417
826.52831
841.18495
856.15591
871.60082
887.63519
904.32457
921.66997
939.87146
958.95445
978.96281
999.94906
1022.0291
1045.4502
1070.2507
1096.9006
1125.2933
1155.4859
1187.5796
1222.2113
1259.3251
1299.1643
1342.7272
1390.1604
1442.332
1498.4784
1558.1308
1620.3911
1684.4334
1750.3571
1814.2813
1869.6482
1912.2118
1941.7462
1961.9816
1976.9955
1989.4143
2000.601
2011.2029
2021.5812
2031.7749
2041.8888
2051.8548
2061.7251
2071.4841
2081.1131
2090.5955
2099.9186
2109.0751
2118.1101
2126.9712
2135.7096
2144.333
2152.8432
2161.2404
2169.5612
2177.7854
2185.9268
2193.9784
2201.765
2208.8235
2212.5494
2195.4405
2150.3704
2104.9963
2060.7658
2017.8389
1976.267
1935.8506
1896.6578
1858.5817
1821.9162
1786.3864
1752.2278
1719.1877
1687.3063
1656.4926
1626.6633
1597.8561
1569.9084
1542.669
1516.2953
1490.6178
1465.7785
1441.573
1418.0908
1395.353
1373.2438
1351.7506
1330.871
1310.6112
1290.8594
1271.6727
1252.9867
1234.9688
1218.0926
1204.6661
1185.3934
1198.1033
1214.0707
1231.1052
1248.7446
1266.8295
1285.4143
1304.4428
1324.0149
1344.1206
1364.7573
1385.9324
1407.7478
1430.1777
1453.133
1476.7937
1501.0207
1525.9589
1551.4545
1577.6343
1604.6332
1632.4039
1661.0068
1690.5063
1720.847
1752.2277
1784.4133
1817.6099
1851.5255
1886.2125
1921.573
1957.7348
1994.6213
2032.1291
2070.1582
2108.7521
2147.4313
2184.2153
2208.6714
2211.915
2211.2222
2208.305
2202.6292
2196.6067
2190.5403
2184.5084
2178.5133
2172.4338
2166.2723
2160.1793
2154.1566
2148.2241
2142.402
2136.7111
2131.1691
2125.7871
2120.5451
2115.4817
2110.5575
2105.7987
2101.1642
2096.6656
2092.3493
2088.3102
2084.7308
2081.7948
2079.5134
2077.7596
2076.4162
2075.4128
2074.7529
2074.482
2074.5925
2075.0421
2075.8212
2076.9602
2078.4439
2080.2923
2082.543
2085.2029
2088.3347
2091.9963
2096.227
2100.9919
2106.3148
2111.9665
2117.2857
2122.0859
2127.6694
2134.2907
2141.881
2150.5236
2160.2731
2170.9562
2181.4335
2187.8578
2192.1782
2180.7888
2090.0769
1981.0898
1860.4312
1727.9814
1590.9596
1447.2271
1320.8033
1232.6016
1189.2395
1185.8025
1221.1712
1352.8302
1190.8193
1203.7297
1219.951
1237.2602
1255.1916
1273.5839
1292.494
1311.8655
1331.8015
1352.2932
1373.3392
1394.9482
1417.226
1440.1476
1463.6238
1487.8413
1512.6599
1538.2314
1564.401
1591.3021
1619.0771
1647.681
1677.18
1707.6445
1739.0223
1771.5253
1804.9166
1839.4188
1874.7375
1910.937
1947.9245
1985.8431
2024.6208
2064.1562
2104.3437
2145.0459
2184.2726
2209.1295
2213.4535
2209.8653
2204.7988
2198.9463
2192.1844
2185.3112
2178.4254
2171.563
2164.727
2157.8736
2150.98
2144.1314
2137.3122
2130.5402
2123.8363
2117.2234
2110.7222
2104.3491
2098.0788
2091.9598
2085.9469
2080.0706
2074.2719
2068.5452
2062.9148
2057.4592
2052.3637
2047.8364
2043.9033
2040.4333
2037.2955
2034.393
2031.6953
2029.2877
2027.2228
2025.5054
2024.1342
2023.0744
2022.3147
2021.8416
2021.7023
2021.9259
2022.5596
2023.6832
2025.3587
2027.5854
2030.4057
2033.7996
2037.6802
2042.0559
2047.1457
2053.0138
2059.6415
2067.1307
2075.5888
2085.0818
2095.5171
2106.6614
2118.8529
2130.6872
2138.3142
2147.9915
2160.0924
2169.5006
2127.4727
1985.9445
1831.8334
1699.9004
1612.5092
1582.464
1611.6597
1706.9217
1195.5699
1208.6566
1225.1015
1242.6526
1260.8413
1279.5044
1298.7014
1318.3755
1338.6328
1359.4655
1380.8732
1402.866
1425.5529
1448.9101
1472.8482
1497.5597
1522.904
1549.0387
1575.8085
1603.3526
1631.8205
1661.1691
1691.4701
1722.8
1755.1099
1788.624
1823.1047
1858.7909
1895.3868
1932.9693
1971.4517
2010.9932
2051.5269
2092.9539
2135.1473
2177.1867
2207.8536
2212.8026
2209.4087
2203.201
2196.4441
2189.3917
2182.0071
2174.5739
2167.1121
2159.6397
2152.16
2144.6551
2137.0906
2129.5307
2121.95
2114.3651
2106.7972
2099.2703
2091.8082
2084.4306
2077.1085
2069.9009
2062.7561
2055.7069
2048.6682
2041.5982
2034.4629
2027.2687
2020.1419
2013.282
2006.7403
2000.4047
1994.1374
1987.7685
1981.1529
1974.428
1967.7789
1961.326
1955.185
1949.2654
1943.5568
1937.9425
1932.4757
1927.2479
1922.2907
1917.7864
1913.9175
1910.8228
1908.5754
1907.2859
1906.9764
1907.6953
1909.5506
1912.6293
1916.931
1922.54
1929.5723
1938.0754
1947.9985
1959.2966
1972.109
1986.2616
2001.4391
2018.2823
2036.7692
2056.4795
2074.9779
2092.7075
2117.1967
2142.2218
2070.9867
1918.4071
1829.4777
1822.092
1199.6288
1212.8668
1229.5037
1247.2624
1265.6723
1284.5682
1304.0117
1323.9462
1344.48
1365.6062
1387.3255
1409.649
1432.6888
1456.422
1480.7591
1505.898
1531.6973
1558.3201
1585.6104
1613.7127
1642.7825
1672.7787
1703.778
1735.8628
1768.9871
1803.3871
1838.8252
1875.5553
1913.2818
1952.0939
1991.9119
2032.9109
2075.0305
2118.17
2162.0539
2202.9664
2212.6119
2209.5061
2203.2383
2195.9269
2188.3931
2180.7252
2172.9063
2165.0418
2157.1181
2149.1436
2141.1206
2133.0396
2124.859
2116.6356
2108.3367
2099.9764
2091.5748
2083.1551
2074.7421
2066.3575
2057.9671
2049.639
2041.3119
2033.0138
2024.6126
2015.9824
2006.9355
1997.2381
1986.7284
1975.4043
1963.2994
1950.376
1936.546
1921.4423
1904.5041
1885.9182
1866.292
1846.2218
1826.3263
1806.4409
1786.5785
1766.3125
1745.6609
1724.8871
1703.9731
1683.3723
1663.5887
1645.1698
1628.2063
1613.0089
1599.6179
1588.1213
1578.658
1571.3829
1566.4086
1563.8833
1564.1426
1567.4762
1574.1388
1584.4519
1599.0306
1618.2782
1642.1145
1670.128
1701.4901
1735.6695
1772.5267
1813.1262
1858.4625
1910.155
1969.9077
2047.4021
2111.0712
1961.9329
1202.9813
1216.3446
1233.1407
1251.0718
1269.6651
1288.7543
1308.4026
1328.5532
1349.3168
1370.6869
1392.6653
1415.264
1438.5975
1462.644
1487.3141
1512.8098
1538.9894
1566.0205
1593.7463
1622.3159
1651.8896
1682.4284
1714.0133
1746.732
1780.5417
1815.6892
1851.9376
1889.5543
1928.2448
1968.1097
2009.0766
2051.3362
2094.8349
2139.4571
2184.5501
2211.776
2210.8846
2204.6635
2197.2262
2189.3726
2181.4078
2173.3558
2165.203
2156.9881
2148.6805
2140.2827
2131.7948
2123.2092
2114.4784
2105.6562
2096.7025
2087.6277
2078.4483
2069.1846
2059.859
2050.4924
2041.0414
2031.5782
2022.0229
2012.3797
2002.421
1991.8202
1979.9748
1965.8928
1948.2889
1926.0988
1899.0637
1867.5681
1832.3133
1793.0658
1748.602
1699.8579
1649.501
1600.3108
1554.6964
1512.6084
1474.1293
1438.3253
1404.9212
1373.9658
1344.9027
1317.7139
1292.406
1269.1503
1247.562
1227.6345
1209.1647
1192.0686
1176.3192
1161.8964
1148.8027
1136.9263
1126.3083
1116.9119
1108.6395
1101.371
1095.0309
1089.6367
1084.9652
1080.7784
1076.9384
1073.7403
1071.7818
1071.8594
1075.143
1084.6053
1106.8927
1155.8293
1261.6351
1462.1168
873.96596
860.97938
882.99827
908.0212
954.5846
1037.799
1158.551
1295.8002
1430.5746
1565.7018
1696.1918
1813.9702
1918.3363
2003.4761
2078.5576
2133.0973
2143.6083
2145.0422
2145.0383
2145.4237
2146.6055
2148.7711
2152.1131
2155.3197
2152.6265
2146.4001
2139.9222
2133.973
2128.6006
2123.8462
2119.6814
2116.0487
2112.8819
2110.165
2107.8713
2105.9732
2104.482
2103.2428
2102.2122
2101.5211
2101.2299
2101.3191
2101.7772
2102.6675
2104.0972
2106.1848
2108.9198
2112.134
2115.6567
2119.3983
2123.3056
2127.3614
2131.597
2135.9885
2140.5709
2145.3125
2150.2254
2155.3044
2160.5338
2165.893
2171.3609
2176.9127
2182.5184
2187.891
2192.9802
2198.0695
2203.1538
2208.0819
2212.1795
2209.501
2202.1159
2188.5054
2156.6497
2120.04
2082.7867
2045.7384
2009.1951
1973.0877
1937.5145
1902.579
1868.36
1834.739
1801.816
1769.5457
1738.2171
1707.6354
1678.0341
1649.2238
1621.2618
1594.0886
1567.6478
1541.9881
1516.9797
1492.5002
1468.7024
1445.446
1422.8693
1400.7968
1379.3175
1358.4581
1338.1193
1318.2948
1298.9881
1280.2099
1261.8625
1244.0022
1226.5763
1209.7427
1193.9607
1181.3979
300
300
300
300
300
300
300
300
300
300
300
300
300
300
300
300
300
300
300
300
300
300
300
300
300
300
300
300
300
300
300
300
300
300
300
300
300
300
300
385.28745
300
300
300
300
300
300
300
300
300
300
300
300
300
300
300
300
300
300
300
300
300
300
300
300
300
300
300
300
300
300
300
300
300
300
300
300
300
300
300
423.34631
300
300
300
300
300
300
300
300
300
300
300
300
300
300
300
300
300
300
300
300
300
300
300
300
300
300
300
300
300
300
300
300
300
300
300
300
300
300
303.31218
458.89667
300
300
300
300
300
300
300
300
300
300
300
300
300
300
300
300
300
300
300
300
300
300
300
300
300
300
300
300
300
300
300
300
300
300
300
300
300
300
308.79284
494.92754
300
300
300
300
300
300
300
300
300
300
300
300
300
300
300
300
300
300
300
300
300
300
300
300
300
300
300
300
300
300
300
300
300
300
300
300
300
300
315.32287
536.17536
300
300
300
300
300
300
300
300
300
300
300
300
300
300
300
300
300
300
300
300
300
300
300
300
300
300
300
300
300
300
300
300
300
300
300
300
300
300
324.27794
589.54874
300
300
300
300
300
300
300
300
300
300
300
300
300
300
300
300
300
300
300
300
300
300
300
300
300
300
300
300
300
300
300
300
300
300
300
300
300
300
338.7386
662.03666
300
300
300
300
300
300
300
300
300
300
300
300
300
300
300
300
300
300
300
300
300
300
300
300
300
300
300
300
300
300
300
300
300
300
300
300
300
300
362.60177
752.26944
300
300
300
300
300
300
300
300
300
300
300
300
300
300
300
300
300
300
300
300
300
300
300
300
300
300
300
300
300
300
300
300
300
300
300
300
300
300
398.5752
852.62313
300
300
300
300
300
300
300
300
300
300
300
300
300
300
300
300
300
300
300
300
300
300
300
300
300
300
300
300
300
300
300
300
300
300
300
300
300
302.90396
448.44498
961.12604
300
300
300
300
300
300
300
300
300
300
300
300
300
300
300
300
300
300
300
300
300
300
300
300
300
300
300
300
300
300
300
300
300
300
300
300
300
313.21289
512.18078
1076.192
300
300
300
300
300
300
300
300
300
300
300
300
300
300
300
300
300
300
300
300
300
300
300
300
300
300
300
300
300
300
300
300
300
300
300
300
300
332.01853
587.8304
1194.33
300
300
300
300
300
300
300
300
300
300
300
300
300
300
300
300
300
300
300
300
300
300
300
300
300
300
300
300
300
300
300
300
300
300
300
300
300
362.1369
671.15525
1306.3757
300
300
300
300
300
300
300
300
300
300
300
300
300
300
300
300
300
300
300
300
300
300
300
300
300
300
300
300
300
300
300
300
300
300
300
300
300.6628
403.96563
758.36215
1411.6288
300
300
300
300
300
300
300
300
300
300
300
300
300
300
300
300
300
300
300
300
300
300
300
300
300
300
300
300
300
300
300
300
300
300
300
300
310.28097
456.16375
847.42222
1513.5066
300
300
300
300
300
300
300
300
300
300
300
300
300
300
300
300
300
300
300
300
300
300
300
300
300
300
300
300
300
300
300
300
300
300
300
300
327.34889
516.21319
936.21436
1610.7452
300
300
300
300
300
300
300
300
300
300
300
300
300
300
300
300
300
300
300
300
300
300
300
300
300
300
300
300
300
300
300
300
300
300
300
300
353.8802
582.59853
1026.1471
1704.0867
300
300
300
300
300
300
300
300
300
300
300
300
300
300
300
300
300
300
300
300
300
300
300
300
300
300
300
300
300
300
300
300
300
300
300
301.47134
390.10166
653.87026
1117.9905
1793.4697
300
300
300
300
300
300
300
300
300
300
300
300
300
300
300
300
300
300
300
300
300
300
300
300
300
300
300
300
300
300
300
300
300
300
300
311.72154
434.76228
728.06944
1208.9462
1875.48
300
300
300
300
300
300
300
300
300
300
300
300
300
300
300
300
300
300
300
300
300
300
300
300
300
300
300
300
300
300
300
300
300
300
300
329.2143
486.16003
803.724
1297.669
1951.8153
300
300
300
300
300
300
300
300
300
300
300
300
300
300
300
300
300
300
300
300
300
300
300
300
300
300
300
300
300
300
300
300
300
300
300
354.93994
542.52953
879.75154
1383.6063
2023.4564
300
300
300
300
300
300
300
300
300
300
300
300
300
300
300
300
300
300
300
300
300
300
300
300
300
300
300
300
300
300
300
300
300
300
304.31019
388.51552
602.55425
956.46662
1464.95
2091.8402
300
300
300
300
300
300
300
300
300
300
300
300
300
300
300
300
300
300
300
300
300
300
300
300
300
300
300
300
300
300
300
300
300
300
316.24122
428.0418
664.02613
1031.3738
1540.8281
2157.529
300
300
300
300
300
300
300
300
300
300
300
300
300
300
300
300
300
300
300
300
300
300
300
300
300
300
300
300
300
300
300
300
300
300
334.65598
471.64102
725.19006
1101.9224
1608.9426
2212.7188
300
300
300
300
300
300
300
300
300
300
300
300
300
300
300
300
300
300
300
300
300
300
300
300
300
300
300
300
300
300
300
300
300
300.21499
359.31204
517.73936
785.11149
1168.1808
1671.1698
2227.8674
300
300
300
300
300
300
300
300
300
300
300
300
300
300
300
300
300
300
300
300
300
300
300
300
300
300
300
300
300
300
300
300
300
308.33391
389.11697
565.40841
843.86536
1232.0537
1730.9815
2222.6348
300
300
300
300
300
300
300
300
300
300
300
300
300
300
300
300
300
300
300
300
300
300
300
300
300
300
300
300
300
300
300
300
300
321.55772
422.98721
614.29659
901.98851
1294.8081
1787.9394
2214.7597
300
300
300
300
300
300
300
300
300
300
300
300
300
300
300
300
300
300
300
300
300
300
300
300
300
300
300
300
300
300
300
300
300
340.16201
459.81413
663.95528
959.49148
1356.4093
1842.8418
2207.151
300
300
300
300
300
300
300
300
300
300
300
300
300
300
300
300
300
300
300
300
300
300
300
300
300
300
300
300
300
300
300
300
303.61527
363.81419
499.22626
714.57365
1017.1136
1416.6419
1896.9366
2200.1702
300
300
300
300
300
300
300
300
300
300
300
300
300
300
300
300
300
300
300
300
300
300
300
300
300
300
300
300
300
300
300
300
313.49781
391.24404
540.14097
765.33776
1074.3123
1473.7925
1946.1831
2193.8498
300
300
300
300
300
300
300
300
300
300
300
300
300
300
300
300
300
300
300
300
300
300
300
300
300
300
300
300
300
300
300
300
327.98693
421.51466
582.09801
815.90039
1130.4829
1528.2912
1992.6269
2188.2265
300
300
300
300
300
300
300
300
300
300
300
300
300
300
300
300
300
300
300
300
300
300
300
300
300
300
300
300
300
300
300
300.8514
346.74325
453.87863
624.71048
865.9159
1185.1006
1580.0066
2036.0437
2183.2455
300
300
300
300
300
300
300
300
300
300
300
300
300
300
300
300
300
300
300
300
300
300
300
300
300
300
300
300
300
300
300
308.43393
369.19317
488.08589
668.00244
915.50778
1238.2953
1629.6273
2078.1465
2178.8644
300
300
300
300
300
300
300
300
300
300
300
300
300
300
300
300
300
300
300
300
300
300
300
300
300
300
300
300
300
300
300
319.87082
394.25914
523.32141
711.20254
963.98517
1289.105
1676.732
2115.7209
2174.9965
300
300
300
300
300
300
300
300
300
300
300
300
300
300
300
300
300
300
300
300
300
300
300
300
300
300
300
300
300
300
300
335.00732
421.21686
559.21601
754.06629
1011.4163
1336.9845
1720.3027
2150.7299
2171.6712
300
300
300
300
300
300
300
300
300
300
300
300
300
300
300
300
300
300
300
300
300
300
300
300
300
300
300
300
300
300
305.71194
353.42615
449.80808
595.75532
796.64158
1057.7147
1382.4756
1761.2846
2183.4789
2168.8514
300
300
300
300
300
300
300
300
300
300
300
300
300
300
300
300
300
300
300
300
300
300
300
300
300
300
300
300
300
300
314.9063
374.22332
479.33872
632.26693
838.16919
1101.95
1425.0128
1799.0799
2212.9389
2166.5227
300
300
300
300
300
300
300
300
300
300
300
300
300
300
300
300
300
300
300
300
300
300
300
300
300
300
300
300
300
300
327.36582
396.9693
509.74933
668.80145
878.76886
1144.3059
1465.0603
1834.1677
2228.6278
2164.0612
300
300
300
300
300
300
300
300
300
300
300
300
300
300
300
300
300
300
300
300
300
300
300
300
300
300
300
300
300
305.03397
342.57057
420.99215
540.5351
704.89331
918.09222
1184.6916
1502.8033
1866.9061
2229.4975
2161.2406
300
300
300
300
300
300
300
300
300
300
300
300
300
300
300
300
300
300
300
300
300
300
300
300
300
300
300
300
300
312.72509
360.10012
446.17501
571.78167
740.76432
956.56492
1223.7719
1538.9408
1897.7202
2227.03
2158.5789
300
300
300
300
300
300
300
300
300
300
300
300
300
300
300
300
300
300
300
300
300
300
300
300
300
300
300
300
300.97805
323.04757
379.41753
472.24044
603.31817
776.33358
994.26825
1261.6315
1573.6729
1927.16
2224.0519
2156.3092
300
300
300
300
300
300
300
300
300
300
300
300
300
300
300
300
300
300
300
300
300
300
300
300
300
300
300
300
305.5508
335.65548
399.90512
498.73317
634.72317
811.2489
1031.0562
1297.6757
1606.4536
1954.0548
2221.1748
2154.4822
300
300
300
300
300
300
300
300
300
300
300
300
300
300
300
300
300
300
300
300
300
300
300
300
300
300
300
300
311.95316
350.24564
421.41542
525.68096
666.09003
845.63815
1066.9394
1332.2087
1637.4755
1978.6439
2218.5494
2153.0763
300
300
300
300
300
300
300
300
300
300
300
300
300
300
300
300
300
300
300
300
300
300
300
300
300
300
300
302.16908
320.33428
366.40855
443.70339
552.91416
697.25622
879.32319
1101.6614
1365.1126
1666.6122
2001.2146
2216.2837
2152.1295
300
300
300
300
300
300
300
300
300
300
300
300
300
300
300
300
300
300
300
300
300
300
300
300
300
300
300
306.14797
330.63583
383.79233
466.56423
580.26291
728.04822
912.12041
1134.9872
1396.1798
1693.465
2021.4234
2214.4506
2151.7172
300
300
300
300
300
300
300
300
300
300
300
300
300
300
300
300
300
300
300
300
300
300
300
300
300
300
300.45869
311.47423
342.65425
402.12937
489.83604
607.5805
758.31603
943.88125
1166.7552
1425.3066
1718.0059
2038.9411
2213.1135
2151.9309
300
300
300
300
300
300
300
300
300
300
300
300
300
300
300
300
300
300
300
300
300
300
300
300
300
300
303.08263
318.3177
356.12218
421.21153
513.38332
634.74235
787.94224
974.5011
1196.8387
1452.4785
1740.6063
2054.4996
2212.305
2152.7813
300
300
300
300
300
300
300
300
300
300
300
300
300
300
300
300
300
300
300
300
300
300
300
300
300
300
306.54949
326.73335
370.78572
440.88189
537.09675
661.65259
816.86157
1003.9886
1225.1648
1477.4418
1760.5312
2067.8243
2211.9318
2154.1661
300
300
300
300
300
300
300
300
300
300
300
300
300
300
300
300
300
300
300
300
300
300
300
300
300
301.32859
311.05676
336.66072
386.42802
461.0169
560.88668
688.24025
845.05496
1032.4504
1251.7437
1500.2417
1777.5676
2076.7211
2211.7794
2155.9514
300
300
300
300
300
300
300
300
300
300
300
300
300
300
300
300
300
300
300
300
300
300
300
300
300
303.72746
316.76969
347.95193
402.8662
481.50898
584.67196
714.4427
872.48586
1059.8315
1276.8026
1521.2476
1792.6805
2084.465
2211.923
2158.0513
300
300
300
300
300
300
300
300
300
300
300
300
300
300
300
300
300
300
300
300
300
300
300
300
300.19646
306.80309
323.78643
360.42142
419.94909
502.26222
608.37697
740.20329
899.12334
1086.1132
1300.4653
1540.6499
1805.8857
2089.3895
2212.1929
2160.3894
300
300
300
300
300
300
300
300
300
300
300
300
300
300
300
300
300
300
300
300
300
300
300
300
301.95751
310.71363
332.11825
373.88267
437.55224
523.19362
631.93685
765.47917
924.95416
1111.2955
1322.8003
1558.6025
1817.7413
2093.2185
2212.6447
2162.9345
300
300
300
300
300
300
300
300
300
300
300
300
300
300
300
300
300
300
300
300
300
300
300
300
304.18058
315.64
341.76269
388.26129
455.68428
544.35955
655.44053
790.40519
950.20076
1135.4378
1343.9528
1575.2719
1828.3748
2096.9109
2213.3277
2165.6961
300
300
300
300
300
300
300
300
300
300
300
300
300
300
300
300
300
300
300
300
300
300
300
300.7404
306.97267
321.66295
352.52671
403.30377
474.11292
565.52046
678.63417
814.72817
974.6295
1158.2375
1363.6722
1590.4631
1837.4673
2097.9356
2214.0589
2168.6452
300
300
300
300
300
300
300
300
300
300
300
300
300
300
300
300
300
300
300
300
300
300
300
302.42066
310.47999
328.86444
364.32416
418.97051
492.85885
586.72798
701.58742
838.51856
998.25695
1179.9126
1382.1052
1604.25
1845.0953
2097.9006
2214.9438
2171.8093
300
300
300
300
300
300
300
300
300
300
300
300
300
300
300
300
300
300
300
300
300
300
300
304.48861
314.80732
337.17415
376.92074
435.04421
511.71726
607.77484
724.09129
861.56476
1020.8578
1200.3329
1399.1538
1616.6215
1851.5327
2098.4561
2216.0735
2175.1718
300
300
300
300
300
300
300
300
300
300
300
300
300
300
300
300
300
300
300
300
300
300
301.12518
307.0546
320.08169
346.55576
390.24159
451.50888
530.7054
628.69741
746.20961
883.98901
1042.4095
1219.5414
1414.84
1627.4697
1855.9659
2093.9356
2217.088
2178.7301
300
300
300
300
300
300
300
300
300
300
300
300
300
300
300
300
300
300
300
300
300
300
302.72313
310.22797
326.36341
356.89009
404.15345
468.26575
549.7369
649.41132
767.86345
905.72256
1062.8263
1237.4813
1429.1283
1636.8113
1858.921
2089.1464
2218.2311
2182.486
300
300
300
300
300
300
300
300
300
300
300
300
300
300
300
300
300
300
300
300
300
300.10601
304.67307
314.11406
333.64979
368.03479
418.52775
485.21148
568.71398
669.81488
788.93617
926.5986
1082.1022
1254.1195
1441.9884
1644.6379
1860.3772
2083.2078
2219.4278
2186.4262
300
300
300
300
300
300
300
300
300
300
300
300
300
300
300
300
300
300
300
300
300
301.37597
307.05592
318.79877
341.8803
379.84535
433.24676
502.24752
587.54205
689.81305
809.32936
946.51065
1100.1949
1269.4153
1453.3829
1650.9128
1860.2004
2075.6482
2220.5753
2190.5297
300
300
300
300
300
300
300
300
300
300
300
300
300
300
300
300
300
300
300
300
300
302.9004
309.95716
324.333
350.95537
392.18724
448.20421
519.2813
606.13267
709.32643
828.99128
965.35043
1117.0508
1283.3228
1463.2725
1655.6203
1858.4837
2066.5359
2221.5443
2194.771
300
300
300
300
300
300
300
300
300
300
300
300
300
300
300
300
300
300
300
300
300.28546
304.73648
313.46021
330.72213
360.75586
404.94058
463.30602
536.22847
624.40416
728.28191
847.87506
983.0271
1132.6079
1295.7888
1471.604
1658.7069
1855.1567
2056.3417
2222.0617
2199.1091
300
300
300
300
300
300
300
300
300
300
300
300
300
300
300
300
300
300
300
300
301.51416
306.96081
317.65586
337.96255
371.20858
418.06033
478.53735
553.0881
642.35994
746.67744
865.93944
999.6323
1146.9029
1306.8247
1478.3595
1660.0913
1850.0002
2043.9736
2220.8875
2203.4274
300
300
300
300
300
300
300
300
300
300
300
300
300
300
300
300
300
300
300
300
302.97426
309.63212
322.56842
345.94289
382.13981
431.38124
493.73884
569.69857
659.83536
764.34858
883.02955
1015.0739
1159.8593
1316.3799
1483.5293
1659.842
1843.2517
2030.0491
2210.5111
2206.9862
300
300
300
300
300
300
300
300
300
300
300
300
300
300
300
300
300
300
300
300.39045
304.72023
312.82964
328.231
354.60374
393.48846
444.87362
508.9002
586.06055
676.84148
781.3197
899.19084
1029.4257
1171.5712
1324.5711
1487.2608
1658.152
1835.1803
2014.7858
2188.7958
2209.5739
300
300
300
300
300
300
300
300
300
300
300
300
300
300
300
300
300
300
300
301.58455
306.80736
316.6121
334.61982
363.83995
405.15257
458.45432
523.9479
602.10658
693.32103
797.55253
914.40073
1042.695
1182.082
1331.4839
1489.6881
1655.1984
1825.9697
1998.5515
2165.8355
2212.0227
300
300
300
300
300
300
300
300
300
300
300
300
300
300
300
300
300
300
300
302.99454
309.29028
321.01556
341.67632
373.54145
417.03395
472.0397
538.80501
617.76598
709.21897
813.03122
928.5965
1054.8623
1191.4064
1337.1611
1490.877
1651.0561
1815.6647
1981.3332
2141.9947
2214.3118
300
300
300
300
300
300
300
300
300
300
300
300
300
300
300
300
300
300
300.45005
304.66013
312.22111
326.04914
349.32094
383.60514
429.04584
485.55537
553.40286
632.97433
724.47428
827.68027
941.79058
1065.9238
1199.5529
1341.6243
1490.8567
1645.7524
1804.2938
1963.185
2117.4052
2216.0769
300
300
300
300
300
300
300
300
300
300
300
300
300
300
300
300
300
300
301.61742
306.63257
315.65807
331.71856
357.49894
393.98048
441.16086
498.98926
567.73804
647.73426
739.09388
841.51119
954.02559
1075.9169
1206.5535
1344.8947
1489.6283
1639.2564
1791.7723
1943.9667
2091.8828
2215.5177
300
300
300
300
300
300
300
300
300
300
300
300
300
300
300
300
300
300
302.98664
308.9568
319.63241
337.98228
366.11778
404.57875
453.30322
512.27274
581.7461
661.98611
753.02537
854.48462
965.28198
1084.8328
1212.414
1346.9934
1487.2326
1631.6324
1778.205
1923.8233
2065.0905
2194.8467
300
300
300
300
300
300
300
300
300
300
300
300
300
300
300
300
300
300.49317
304.59041
311.67315
324.15138
344.77461
375.08189
415.31362
465.39751