/*--------------------------------*- C++ -*----------------------------------*\
| =========                 |                                                 |
| \\      /  F ield         | OpenFOAM: The Open Source CFD Toolbox           |
|  \\    /   O peration     | Version:  2.3.0                                 |
|   \\  /    A nd           | Web:      www.OpenFOAM.org                      |
|    \\/     M anipulation  |                                                 |
\*---------------------------------------------------------------------------*/
FoamFile
{
    version     2.0;
    format      ascii;
    class       volVectorField;
    location    "0.2";
    object      U;
}
// * * * * * * * * * * * * * * * * * * * * * * * * * * * * * * * * * * * * * //

dimensions      [0 1 -1 0 0 0 0];

internalField   nonuniform List<vector> 
5835
(
(59.866889 -0.078766323 2.2440206e-08)
(58.54597 -0.28109732 3.9471169e-08)
(54.13577 -0.34379152 2.6518864e-08)
(45.126231 -0.39942797 2.0864187e-08)
(59.2128 -0.0314945 1.9904776e-08)
(58.017946 -0.044146949 3.1586336e-08)
(53.765515 -0.056672739 2.2793067e-08)
(44.787283 0.023411066 1.3786358e-08)
(58.927085 -0.020884114 2.0101504e-08)
(57.829882 -0.043814235 3.3335718e-08)
(10.096437 -0.28546977 1.6265979e-09)
(11.533251 -0.33977096 1.2934608e-09)
(11.662315 -0.14355399 6.3920171e-10)
(11.571328 0.11354767 -1.1908732e-09)
(10.382687 0.20395798 -4.6805303e-09)
(9.4965286 -0.23440896 3.1712501e-09)
(12.26344 -0.31402438 3.9564182e-09)
(12.714066 -0.16301841 1.9918299e-09)
(12.406462 0.067689694 -2.7846072e-09)
(10.210981 0.14792491 -7.3046953e-09)
(8.783849 -0.14476551 4.1652558e-09)
(12.559879 -0.22020053 5.6300418e-09)
(13.620011 -0.13532918 3.0798007e-09)
(13.065335 0.035360108 -3.6761447e-09)
(9.9933593 0.092601564 -8.6713341e-09)
(8.1528528 -0.069294713 4.1738048e-09)
(12.521964 -0.1713454 6.065834e-09)
(14.062198 -0.10854271 3.6138276e-09)
(13.333862 0.01462726 -3.6504005e-09)
(9.7554344 0.040886068 -7.7780617e-09)
(53.7499 -0.033622881 2.3071341e-08)
(44.8417 -0.016581508 1.5614952e-08)
(58.644915 -0.020671567 1.9985546e-08)
(57.645841 -0.041598162 3.2960633e-08)
(53.745827 -0.036538019 2.2738455e-08)
(44.898792 -0.010602102 1.5113125e-08)
(58.380815 -0.021062481 1.9949305e-08)
(57.472108 -0.045114064 3.3087087e-08)
(53.752551 -0.039702262 2.2314856e-08)
(44.996242 -0.015936284 1.5157121e-08)
(58.09295 -0.021308793 1.9822972e-08)
(57.268449 -0.047694505 3.2986174e-08)
(53.751156 -0.041915411 2.2017626e-08)
(45.08958 -0.01981298 1.507995e-08)
(57.806912 -0.021634013 1.9684272e-08)
(57.064107 -0.050235266 3.2839973e-08)
(53.74217 -0.044619644 2.1474839e-08)
(45.210987 -0.024661972 1.4996452e-08)
(57.499606 -0.022113464 1.948781e-08)
(56.831228 -0.053185648 3.2605855e-08)
(53.723065 -0.047185913 2.0898802e-08)
(45.333697 -0.029598842 1.4892391e-08)
(57.193189 -0.022500089 1.9226763e-08)
(56.597293 -0.055978787 3.2284345e-08)
(53.69671 -0.049373564 2.0310005e-08)
(45.482943 -0.035536722 1.4747793e-08)
(56.865906 -0.022639594 1.8919343e-08)
(56.336049 -0.058617467 3.1852246e-08)
(53.65638 -0.05128221 1.9605294e-08)
(45.635918 -0.041572624 1.4567972e-08)
(56.538601 -0.022744001 1.8573298e-08)
(56.072201 -0.061150466 3.1345936e-08)
(53.607262 -0.052795003 1.8893809e-08)
(45.813756 -0.048651717 1.4327866e-08)
(56.190278 -0.022919823 1.8167454e-08)
(55.782366 -0.063881279 3.0700916e-08)
(53.541091 -0.05421712 1.8074887e-08)
(45.997908 -0.056153003 1.4033479e-08)
(55.842245 -0.023247894 1.771072e-08)
(55.489889 -0.066721457 2.9956712e-08)
(53.465456 -0.05543471 1.7253949e-08)
(46.207347 -0.064858197 1.3650506e-08)
(55.473756 -0.02367224 1.7152552e-08)
(55.172816 -0.069701682 2.9025523e-08)
(53.370287 -0.056551164 1.6332873e-08)
(46.426316 -0.074177882 1.3186409e-08)
(55.104722 -0.024222895 1.6547896e-08)
(54.851933 -0.072639275 2.7948815e-08)
(53.263267 -0.057500145 1.5400827e-08)
(46.670519 -0.084742524 1.2601012e-08)
(54.714965 -0.024909136 1.5827874e-08)
(54.506485 -0.075542936 2.6633748e-08)
(53.132938 -0.05847212 1.4381464e-08)
(46.926535 -0.095991277 1.1906266e-08)
(54.326211 -0.02575482 1.5010365e-08)
(54.159788 -0.078136391 2.5113928e-08)
(52.991524 -0.059504062 1.3366412e-08)
(47.212975 -0.10845441 1.1050667e-08)
(53.923785 -0.026890968 1.4078209e-08)
(53.794779 -0.080270451 2.3295478e-08)
(52.828861 -0.060881427 1.2294336e-08)
(47.521591 -0.12151441 1.0041211e-08)
(53.509736 -0.028273176 1.3014626e-08)
(53.415337 -0.081348968 2.1199413e-08)
(52.638742 -0.062749302 1.120764e-08)
(47.846424 -0.13461815 8.8687644e-09)
(53.057054 -0.030169444 1.1748391e-08)
(52.991614 -0.081155411 1.8699451e-08)
(52.391299 -0.065769009 9.9959056e-09)
(48.165504 -0.14623567 7.5898054e-09)
(52.627732 -0.032432601 1.028067e-08)
(52.588547 -0.079316621 1.5985364e-08)
(52.15412 -0.071486753 8.8499798e-09)
(48.521718 -0.15668745 6.2075303e-09)
(52.279885 -0.033276879 8.5926132e-09)
(52.262378 -0.072667067 1.3110157e-08)
(51.980819 -0.076538737 7.6634531e-09)
(49.062533 -0.16321622 4.5156392e-09)
(52.002782 -0.035583963 6.9803601e-09)
(52.003444 -0.073022097 1.0617269e-08)
(51.859558 -0.096913398 6.669448e-09)
(49.57932 -0.17154861 3.0810292e-09)
(51.182566 -0.038033724 4.0486493e-09)
(51.190152 -0.081096873 6.2593335e-09)
(51.156852 -0.13722511 4.2562998e-09)
(49.771827 -0.17114707 2.0503403e-09)
(49.916002 -0.024179156 9.5195633e-10)
(49.917677 -0.059371157 1.6180069e-09)
(49.911586 -0.10622197 1.1681732e-09)
(49.455272 -0.073559727 5.8500163e-11)
(7.8164523 -0.030936665 3.8108357e-09)
(12.468287 -0.11175603 6.1912364e-09)
(14.383854 -0.07877018 3.821938e-09)
(13.538145 0.005426715 -3.1894461e-09)
(9.6702515 0.018381743 -6.1238738e-09)
(7.622037 -0.014344738 3.3949479e-09)
(12.421317 -0.073689525 5.9614987e-09)
(14.60881 -0.055696843 3.8563698e-09)
(13.692402 0.001128774 -2.4766488e-09)
(9.6514254 0.0090914205 -4.8086927e-09)
(7.4914642 -0.006913346 2.9974357e-09)
(12.372164 -0.048342033 5.5064757e-09)
(14.747143 -0.039901592 3.7707489e-09)
(13.790602 -0.0012675266 -1.7019324e-09)
(9.6417516 0.0027011605 -3.2734188e-09)
(7.4061777 -0.0032004133 2.6432298e-09)
(12.328791 -0.031276458 4.964902e-09)
(14.830493 -0.028086876 3.6144023e-09)
(13.854234 -0.0022314839 -9.9803e-10)
(9.6408881 0.00066458665 -2.4423327e-09)
(7.3516346 -0.0012303324 2.3196575e-09)
(12.294913 -0.019930522 4.3709492e-09)
(14.878596 -0.019291182 3.4032114e-09)
(13.895429 -0.0022850653 -4.5352574e-10)
(9.6436535 -0.00024673588 -1.694231e-09)
(7.3158165 -0.00022219601 2.0336104e-09)
(12.268308 -0.012399342 3.8914329e-09)
(14.903555 -0.012909465 3.1728874e-09)
(13.922113 -0.0021693963 3.2063891e-11)
(9.6483254 -0.00061575973 -8.9597107e-10)
(7.2922748 0.00032818933 1.8358361e-09)
(12.247452 -0.0074189422 3.4366681e-09)
(14.912267 -0.0081996208 2.9110425e-09)
(13.936483 -0.0020277601 4.014461e-10)
(9.6519474 -0.00062390897 -3.9311352e-10)
(7.2764304 0.00040555792 1.6012855e-09)
(12.230303 -0.0040421105 2.9869447e-09)
(14.910792 -0.0056991177 2.7645116e-09)
(13.944037 -0.0015772274 7.3954442e-10)
(9.6547969 -0.00064615259 -7.9610463e-11)
(7.265204 0.00042287216 1.3927617e-09)
(12.215597 -0.0019486439 2.6658686e-09)
(14.903987 -0.0032610278 2.5669864e-09)
(13.944675 -0.0012447215 9.0280753e-10)
(9.6557657 -0.00048026913 3.0643821e-10)
(7.2573426 0.00040429952 1.2777647e-09)
(12.203238 -0.00068856294 2.3776929e-09)
(14.893362 -0.0017548653 2.3769798e-09)
(13.94252 -0.0010730728 1.0646519e-09)
(9.6552653 -0.00029040177 4.2410042e-10)
(7.2511618 0.00035562312 1.1110442e-09)
(12.191742 0.00018946176 2.0640815e-09)
(14.88042 -0.00074536768 2.1931921e-09)
(13.937679 -0.0009679133 1.1621399e-09)
(9.6537191 -8.974328e-05 4.4784797e-10)
(7.2463836 0.00041830591 9.8001697e-10)
(12.1816 0.00065700576 1.8755802e-09)
(14.866333 -0.0001531708 2.0279472e-09)
(13.930869 -0.0007510345 1.2224399e-09)
(9.6511923 7.6091331e-05 6.2150713e-10)
(7.2415456 0.00044985005 8.6583848e-10)
(12.171316 0.00086199634 1.6877255e-09)
(14.851338 0.00018825946 1.8892412e-09)
(13.922433 -0.00047396611 1.2561757e-09)
(9.6475547 0.00023350809 6.98945e-10)
(7.2373643 0.00049981738 7.6356846e-10)
(12.162001 0.0009941882 1.4686066e-09)
(14.836667 0.00038078556 1.7100554e-09)
(13.913104 -0.00030945942 1.2424856e-09)
(9.6431604 0.00029764072 6.2998094e-10)
(7.2316041 0.00042757369 6.7365892e-10)
(12.150681 0.00089648161 1.3421431e-09)
(14.820098 0.00056271347 1.5742047e-09)
(13.901926 -2.203322e-05 1.2154645e-09)
(9.6373849 0.00032154808 7.1755094e-10)
(7.2278851 0.0006075061 6.1091236e-10)
(12.142536 0.00089816112 1.2268973e-09)
(14.807099 0.00045781031 1.4814689e-09)
(13.892067 -0.00010808952 1.1827664e-09)
(9.6320689 0.00016065951 7.1848524e-10)
(7.2158931 -0.00020270355 5.4588238e-10)
(12.124197 -0.00098519885 1.0931182e-09)
(14.785348 -0.0015329351 1.3319299e-09)
(13.877806 -0.002035525 1.1531795e-09)
(9.6261497 -0.00065431191 7.6386808e-10)
(7.2113975 -0.00075980553 4.9967263e-10)
(12.119283 -0.0044869061 1.028826e-09)
(14.781303 -0.0065660006 1.209555e-09)
(13.881962 -0.0052547577 9.6928314e-10)
(9.641272 -0.0017109102 5.2537022e-10)
(7.1458175 -0.012584892 5.8608176e-10)
(12.049699 -0.035337606 1.2292638e-09)
(14.735424 -0.052489542 1.6793535e-09)
(13.882642 -0.05764356 2.0963323e-09)
(9.6532182 -0.039234525 2.7065545e-09)
(7.0487082 -0.035216027 8.3584072e-10)
(11.985688 -0.096900543 1.3828993e-09)
(14.759862 -0.13823677 1.5854694e-09)
(14.095921 -0.10708127 1.0335513e-09)
(10.269167 0.031691332 -2.7409462e-09)
(6.3869821 -0.072265744 1.3636147e-09)
(11.357402 -0.49818286 4.298508e-09)
(14.405104 -0.94135709 7.3684668e-09)
(14.23758 -1.3043058 1.0628203e-08)
(9.4125826 -1.7153467 2.5280927e-08)
(8.640239 0.0024003077 -1.3178011e-08)
(8.6360406 0.0046221736 -2.6505867e-08)
(8.6267365 0.007419422 -3.6523806e-08)
(8.6127666 0.010373639 -4.5394734e-08)
(8.8164806 0.0030666377 -1.4419704e-08)
(8.8118685 0.0058956967 -2.8878331e-08)
(8.8018481 0.0094360482 -3.9450496e-08)
(8.7869145 0.013239365 -4.8646747e-08)
(8.9738188 0.0027095222 -1.4248201e-08)
(8.9689689 0.0052247224 -2.8627788e-08)
(8.9584438 0.0083986666 -3.9351602e-08)
(8.9427587 0.011757803 -4.8812648e-08)
(9.1665204 0.0029779115 -1.4940959e-08)
(9.1613612 0.00573216 -2.9980877e-08)
(9.1501477 0.0091911602 -4.1106834e-08)
(9.1334161 0.012886922 -5.0874206e-08)
(9.3514168 0.0029319651 -1.5251223e-08)
(9.3459753 0.0056484626 -3.063437e-08)
(9.334146 0.0090679696 -4.208961e-08)
(9.3164868 0.012705503 -5.2161302e-08)
(9.5503753 0.0030928438 -1.5860021e-08)
(9.5446027 0.0059553635 -3.1844309e-08)
(9.5320433 0.0095528776 -4.3712625e-08)
(9.5132797 0.013388097 -5.4133808e-08)
(9.7510484 0.0031591679 -1.6370976e-08)
(9.7449443 0.0060845615 -3.2879415e-08)
(9.7316591 0.0097633561 -4.5140398e-08)
(9.7118002 0.013679718 -5.5925132e-08)
(9.9610665 0.0033014596 -1.6982059e-08)
(9.954595 0.0063573797 -3.4097706e-08)
(9.940503 0.010197521 -4.6818587e-08)
(9.9194261 0.014287536 -5.7988298e-08)
(10.176972 0.0034100858 -1.7590438e-08)
(10.170115 0.0065668673 -3.532175e-08)
(10.155179 0.010533851 -4.849001e-08)
(10.132829 0.014756138 -6.0051567e-08)
(10.401426 0.0035467101 -1.825534e-08)
(10.394151 0.0068293982 -3.6654151e-08)
(10.3783 0.0109529 -5.0309677e-08)
(10.354567 0.015341037 -6.2280488e-08)
(10.632935 0.0036763101 -1.8941615e-08)
(10.625216 0.0070790203 -3.8032983e-08)
(10.60839 0.011352743 -5.2185973e-08)
(10.583188 0.015898127 -6.4591067e-08)
(10.872828 0.0038261272 -1.9678574e-08)
(10.864632 0.0073669456 -3.9509302e-08)
(10.846758 0.011812487 -5.4200921e-08)
(10.819974 0.01653966 -6.7093916e-08)
(11.122096 0.003976538 -2.0471708e-08)
(11.113385 0.0076564016 -4.1097185e-08)
(11.094382 0.012275548 -5.6385581e-08)
(11.065896 0.017184345 -6.9784141e-08)
(11.380461 0.0041481457 -2.1325353e-08)
(11.371195 0.0079863456 -4.2812084e-08)
(11.350976 0.01280253 -5.8738663e-08)
(11.320654 0.017918471 -7.2695531e-08)
(11.648392 0.0043279125 -2.2245671e-08)
(11.638528 0.0083320634 -4.4659322e-08)
(11.616999 0.01335486 -6.1270368e-08)
(11.584703 0.018687248 -7.5797846e-08)
(11.927182 0.0045169715 -2.3198251e-08)
(11.916669 0.0086958157 -4.6569257e-08)
(11.893721 0.013936131 -6.3880045e-08)
(11.859284 0.019496024 -7.9025308e-08)
(12.216774 0.004711918 -2.4184476e-08)
(12.205562 0.0090705878 -4.8548631e-08)
(12.181081 0.014534321 -6.6590728e-08)
(12.144336 0.020328648 -8.2368828e-08)
(12.517965 0.0049041596 -2.5176775e-08)
(12.505994 0.0094405653 -5.0570427e-08)
(12.479853 0.015125479 -6.9388612e-08)
(12.440607 0.021150191 -8.5833375e-08)
(12.829762 0.0051073401 -2.6282601e-08)
(12.816973 0.0098311157 -5.2761768e-08)
(12.789041 0.015748503 -7.2369829e-08)
(12.747099 0.022016355 -8.9509561e-08)
(13.153718 0.0053150758 -2.7430739e-08)
(13.140044 0.010230375 -5.5070915e-08)
(13.110174 0.01638515 -7.5549802e-08)
(13.065314 0.022899817 -9.3453106e-08)
(13.491245 0.0055354874 -2.870281e-08)
(13.476607 0.010654218 -5.7625838e-08)
(13.444626 0.017061379 -7.9094154e-08)
(13.396588 0.023836823 -9.7860205e-08)
(13.841934 0.0057879767 -3.0174658e-08)
(13.826249 0.01113913 -6.0594692e-08)
(13.791975 0.0178338 -8.3172863e-08)
(13.740483 0.024907502 -1.0291149e-07)
(14.207523 0.0060693777 -3.1847336e-08)
(14.190694 0.011679971 -6.3962782e-08)
(14.153911 0.018695974 -8.7822021e-08)
(14.098644 0.026100679 -1.0869858e-07)
(14.588596 0.0063966911 -3.3771627e-08)
(14.570512 0.012309192 -6.7837027e-08)
(14.530982 0.019698844 -9.3165766e-08)
(14.47158 0.027490813 -1.1534572e-07)
(14.987218 0.0067528386 -3.594054e-08)
(14.967752 0.012993869 -7.2208462e-08)
(14.925198 0.020790012 -9.9209422e-08)
(14.86125 0.029002918 -1.2284551e-07)
(15.405014 0.0071337335 -3.835252e-08)
(15.38402 0.013726136 -7.7033886e-08)
(15.338127 0.02195593 -1.0588272e-07)
(15.269163 0.030617106 -1.311516e-07)
(15.842444 0.0075175756 -4.0909596e-08)
(15.819764 0.014463858 -8.2242138e-08)
(15.770192 0.023129199 -1.1313206e-07)
(15.695708 0.032241411 -1.4021784e-07)
(16.301126 0.0078777674 -4.3695691e-08)
(16.276583 0.015156531 -8.7850792e-08)
(16.222946 0.024230798 -1.2098958e-07)
(16.142373 0.033765611 -1.5009137e-07)
(16.779626 0.0082151248 -4.6710576e-08)
(16.753036 0.01580443 -9.4016922e-08)
(16.694938 0.025258762 -1.2967146e-07)
(16.607694 0.035187479 -1.6104055e-07)
(17.278312 0.0085172319 -5.0194618e-08)
(17.249472 0.016386374 -1.0112234e-07)
(17.186477 0.026184938 -1.3969469e-07)
(17.091919 0.036466294 -1.7373665e-07)
(17.797488 0.0088392388 -5.4561709e-08)
(17.766191 0.017007883 -1.1003188e-07)
(17.697843 0.0271768 -1.5229243e-07)
(17.595297 0.037841888 -1.8962055e-07)
(18.341184 0.0092723413 -6.0784769e-08)
(18.307202 0.017849078 -1.2267519e-07)
(18.23294 0.028530115 -1.699324e-07)
(18.121535 0.039703318 -2.1141797e-07)
(18.909495 0.010744866 -7.1150242e-08)
(18.872571 0.020617024 -1.4333867e-07)
(18.791672 0.032703548 -1.9746743e-07)
(18.670416 0.045091001 -2.4374193e-07)
(19.533096 0.016072251 -8.9869842e-08)
(19.491902 0.031002814 -1.7932882e-07)
(19.40121 0.047438398 -2.4194933e-07)
(19.265253 0.061927014 -2.9212993e-07)
(20.178612 0.030726283 -1.1569166e-07)
(20.134382 0.05843516 -2.284251e-07)
(20.036526 0.090157284 -3.0022293e-07)
(19.888817 0.11829617 -3.5288523e-07)
(20.778233 0.040685199 -1.3241871e-07)
(20.732611 0.07819737 -2.603592e-07)
(20.632186 0.12404359 -3.3926282e-07)
(20.480468 0.16925122 -3.9563756e-07)
(21.347338 0.041426842 -1.3710297e-07)
(21.300099 0.079820568 -2.6995014e-07)
(21.196662 0.12775022 -3.5311864e-07)
(21.04077 0.17770585 -4.1382377e-07)
(21.918689 0.042192742 -1.4095103e-07)
(21.869016 0.081321345 -2.7769029e-07)
(21.760307 0.13026648 -3.6382157e-07)
(21.596708 0.18156476 -4.2723776e-07)
(22.495349 0.0429575 -1.448435e-07)
(22.442991 0.082798289 -2.8546873e-07)
(22.328382 0.13264676 -3.743651e-07)
(22.155915 0.18491829 -4.4005389e-07)
(23.081185 0.044364607 -1.494072e-07)
(23.025756 0.08550746 -2.9443975e-07)
(22.904369 0.13697519 -3.8606046e-07)
(22.721629 0.19087827 -4.5373124e-07)
(23.691871 0.04603846 -1.5412284e-07)
(23.633101 0.088742761 -3.0369236e-07)
(23.504413 0.14211356 -3.9800535e-07)
(23.310667 0.19793753 -4.6754545e-07)
(24.315406 0.047316039 -1.5865228e-07)
(24.252824 0.091200682 -3.1259024e-07)
(24.115847 0.14596922 -4.096112e-07)
(23.909753 0.20309898 -4.8105201e-07)
(24.949668 0.048877065 -1.6371074e-07)
(24.882731 0.094200574 -3.2251075e-07)
(24.736253 0.15069395 -4.2237645e-07)
(24.516026 0.20946636 -4.9567886e-07)
(25.604825 0.050882232 -1.6925188e-07)
(25.533099 0.098061748 -3.3329541e-07)
(25.376185 0.15681211 -4.3603358e-07)
(25.140455 0.21779652 -5.1107784e-07)
(26.283988 0.053043765 -1.7484824e-07)
(26.20697 0.10222023 -3.4415213e-07)
(26.038571 0.16337778 -4.4968062e-07)
(25.785857 0.22670061 -5.2633279e-07)
(26.988103 0.055268087 -1.8038063e-07)
(26.905145 0.10650251 -3.5486917e-07)
(26.723894 0.17012216 -4.6307181e-07)
(26.452221 0.23578693 -5.4121201e-07)
(27.714619 0.057344075 -1.8577062e-07)
(27.624998 0.11049597 -3.6531649e-07)
(27.429347 0.17637429 -4.7619517e-07)
(27.136476 0.24411625 -5.5578061e-07)
(28.461797 0.059449651 -1.913701e-07)
(28.364607 0.11453588 -3.7616189e-07)
(28.15261 0.18266224 -4.8973842e-07)
(27.835744 0.2524365 -5.7073538e-07)
(29.232013 0.061832 -1.9739688e-07)
(29.126264 0.11911189 -3.8779766e-07)
(28.89581 0.18979778 -5.0416369e-07)
(28.551948 0.26189717 -5.865056e-07)
(30.027881 0.064495317 -2.0381134e-07)
(29.912494 0.1242238 -4.0014602e-07)
(29.661318 0.19776139 -5.1935308e-07)
(29.287301 0.27242977 -6.0299222e-07)
(30.854076 0.067403753 -2.1062012e-07)
(30.727733 0.1298005 -4.1323e-07)
(30.453089 0.2064182 -5.3537958e-07)
(30.045148 0.28379894 -6.2025399e-07)
(31.71168 0.070533939 -2.1782356e-07)
(31.572807 0.13579587 -4.2705834e-07)
(31.271443 0.21568786 -5.5225616e-07)
(30.825175 0.29585761 -6.3837943e-07)
(32.602086 0.073904503 -2.2548551e-07)
(32.448823 0.14225059 -4.417678e-07)
(32.116921 0.22564018 -5.7020388e-07)
(31.627169 0.30864099 -6.5758369e-07)
(33.526274 0.077530825 -2.3373464e-07)
(33.356418 0.14920213 -4.5761295e-07)
(32.989482 0.23633168 -5.8951601e-07)
(32.450139 0.32218235 -6.7821234e-07)
(34.486418 0.081433607 -2.4278518e-07)
(34.297334 0.15667746 -4.7501044e-07)
(33.890024 0.24776546 -6.1069238e-07)
(33.293892 0.33651305 -7.0077724e-07)
(35.489832 0.085510549 -2.5306819e-07)
(35.278165 0.16440614 -4.9470848e-07)
(34.823774 0.25922906 -6.3462722e-07)
(34.16231 0.35078171 -7.262244e-07)
(36.540063 0.089931358 -2.6488595e-07)
(36.301614 0.17279281 -5.1739954e-07)
(35.791926 0.27157401 -6.6227556e-07)
(35.055154 0.36592366 -7.5554421e-07)
(37.63816 0.094862105 -2.7911376e-07)
(37.367872 0.18211887 -5.4476168e-07)
(36.793226 0.28517451 -6.9558977e-07)
(35.969721 0.38219672 -7.9057653e-07)
(38.786138 0.10053212 -2.9733501e-07)
(38.477909 0.1927866 -5.7976762e-07)
(37.827062 0.30048263 -7.3779432e-07)
(36.904166 0.40005568 -8.3404836e-07)
(39.984314 0.10796461 -3.2223085e-07)
(39.63106 0.20662975 -6.2721096e-07)
(38.891449 0.31995957 -7.9339575e-07)
(37.855971 0.4222414 -8.8898635e-07)
(41.235115 0.12011506 -3.5809364e-07)
(40.8293 0.22884519 -6.9426292e-07)
(39.987888 0.35015023 -8.6775635e-07)
(38.82688 0.45555711 -9.5776366e-07)
(42.534508 0.1449041 -4.0989994e-07)
(42.068532 0.27283903 -7.8789189e-07)
(41.112854 0.40689246 -9.6318936e-07)
(39.815306 0.51540959 -1.0386139e-06)
(43.859548 0.20507416 -4.7788043e-07)
(43.337617 0.37706136 -9.0552502e-07)
(42.268564 0.534511 -1.0723817e-06)
(40.828483 0.64049009 -1.1227614e-06)
(45.074807 0.32616695 -5.4153106e-07)
(44.521605 0.59153987 -1.0114359e-06)
(43.370686 0.80229293 -1.1642891e-06)
(41.804784 0.89756517 -1.1887557e-06)
(45.995153 0.43783065 -5.6104739e-07)
(45.450281 0.81552883 -1.0446459e-06)
(44.284542 1.1349701 -1.1961342e-06)
(42.645694 1.254532 -1.2130419e-06)
(46.655787 0.43692267 -5.3077393e-07)
(46.119452 0.85030067 -9.9613109e-07)
(44.9667 1.2804501 -1.1597487e-06)
(43.303874 1.504698 -1.19134e-06)
(47.269225 0.38194809 -4.90293e-07)
(46.716022 0.76155944 -9.2663887e-07)
(45.544178 1.2230596 -1.0973525e-06)
(43.854608 1.5611515 -1.1470309e-06)
(47.924843 0.34519763 -4.592881e-07)
(47.335456 0.68871896 -8.7041705e-07)
(46.107298 1.1284401 -1.0396005e-06)
(44.366522 1.5201872 -1.099666e-06)
(48.567884 0.326533 -4.3579957e-07)
(47.944318 0.64791705 -8.2616939e-07)
(46.657214 1.0585479 -9.8963083e-07)
(44.855731 1.4555095 -1.0540449e-06)
(49.193337 0.31814647 -4.1587482e-07)
(48.533719 0.62808257 -7.8805973e-07)
(47.185301 1.0163245 -9.4465846e-07)
(45.319859 1.3992995 -1.0104295e-06)
(49.787698 0.31413188 -3.9739296e-07)
(49.089454 0.61796054 -7.5259973e-07)
(47.676322 0.99007296 -9.0227461e-07)
(45.743524 1.3552271 -9.6804539e-07)
(50.350241 0.31161131 -3.7962997e-07)
(49.610691 0.61166266 -7.1862963e-07)
(48.12874 0.97163353 -8.6169044e-07)
(46.123564 1.3189403 -9.2675233e-07)
(50.887719 0.31047485 -3.6213591e-07)
(50.104732 0.60888505 -6.8535408e-07)
(48.550972 0.96069658 -8.2220181e-07)
(46.469254 1.2927538 -8.863192e-07)
(51.401395 0.30941697 -3.4452867e-07)
(50.573267 0.60698299 -6.5212444e-07)
(48.945927 0.95328317 -7.8326505e-07)
(46.785447 1.2730626 -8.4652108e-07)
(51.892522 0.30823507 -3.2673869e-07)
(51.017766 0.60530907 -6.1880086e-07)
(49.315656 0.94809337 -7.4472808e-07)
(47.075542 1.258837 -8.0739916e-07)
(52.361652 0.30587894 -3.0872331e-07)
(51.438685 0.60199501 -5.8531331e-07)
(49.66034 0.94215426 -7.0647196e-07)
(47.339693 1.2460742 -7.6892348e-07)
(52.810985 0.30262979 -2.9061671e-07)
(51.838243 0.59739198 -5.51867e-07)
(49.981793 0.93553715 -6.6862436e-07)
(47.578874 1.2342993 -7.3103857e-07)
(53.241662 0.29928518 -2.7232133e-07)
(52.217475 0.5933668 -5.1829677e-07)
(50.280467 0.93096371 -6.3095535e-07)
(47.792472 1.2264648 -6.9336607e-07)
(53.651252 0.29409877 -2.5388918e-07)
(52.57437 0.58669314 -4.8471206e-07)
(50.554665 0.92388705 -5.9367449e-07)
(47.978618 1.2166925 -6.5615837e-07)
(54.043773 0.28719822 -2.3551696e-07)
(52.913515 0.5775256 -4.5139547e-07)
(50.809492 0.91465535 -5.5705665e-07)
(48.142496 1.2055561 -6.2011711e-07)
(54.422148 0.27932936 -2.1720561e-07)
(53.237825 0.5675352 -4.1835238e-07)
(51.047692 0.90588354 -5.2088463e-07)
(48.286357 1.1961832 -5.8481362e-07)
(54.7855 0.27047111 -1.9898829e-07)
(53.546485 0.55667984 -3.8555311e-07)
(51.268673 0.89760971 -4.8511122e-07)
(48.40956 1.188838 -5.4987642e-07)
(55.133466 0.25960696 -1.8107715e-07)
(53.839522 0.54267519 -3.5335458e-07)
(51.473323 0.88638244 -4.5007228e-07)
(48.513521 1.179635 -5.1512612e-07)
(55.468604 0.24738093 -1.6365383e-07)
(54.119655 0.52638771 -3.2203555e-07)
(51.664965 0.87326888 -4.1606866e-07)
(48.602911 1.1699653 -4.8202067e-07)
(55.792894 0.23409655 -1.4673587e-07)
(54.388466 0.50835772 -2.9158893e-07)
(51.844861 0.85887557 -3.8289592e-07)
(48.67872 1.1603386 -4.4969998e-07)
(56.107024 0.21963151 -1.3043178e-07)
(54.64635 0.48793744 -2.6213369e-07)
(52.013152 0.84188 -3.5067061e-07)
(48.741391 1.148932 -4.1821853e-07)
(56.412095 0.20459893 -1.1478544e-07)
(54.894096 0.46601819 -2.3382522e-07)
(52.169913 0.82326334 -3.1951024e-07)
(48.789945 1.1372082 -3.8732333e-07)
(56.707779 0.18933953 -9.9876276e-08)
(55.131202 0.44310068 -2.0676678e-07)
(52.313904 0.80352408 -2.8953074e-07)
(48.822819 1.1254533 -3.5743546e-07)
(56.99472 0.17376344 -8.5752941e-08)
(55.358517 0.41896553 -1.810276e-07)
(52.445508 0.78224224 -2.6082407e-07)
(48.840258 1.1129723 -3.2852349e-07)
(57.274238 0.15762463 -7.2537306e-08)
(55.57818 0.39273911 -1.5681026e-07)
(52.566966 0.75762807 -2.3356276e-07)
(48.845033 1.0974396 -3.0101278e-07)
(57.54816 0.14180997 -6.0301131e-08)
(55.792964 0.36580127 -1.3423259e-07)
(52.680798 0.73138286 -2.0778944e-07)
(48.840133 1.0818528 -2.7619375e-07)
(57.816448 0.12693258 -4.8998039e-08)
(56.003533 0.33937643 -1.1323017e-07)
(52.786475 0.70536372 -1.8323714e-07)
(48.823359 1.0673918 -2.5167707e-07)
(58.077979 0.11267306 -3.8625076e-08)
(56.209895 0.31284989 -9.3807213e-08)
(52.883276 0.67845613 -1.5999663e-07)
(48.79036 1.0520198 -2.2710169e-07)
(58.332758 0.098702045 -2.912146e-08)
(56.413446 0.28574919 -7.6037241e-08)
(52.972792 0.64975908 -1.3811186e-07)
(48.741875 1.0352596 -2.0408274e-07)
(58.581168 0.085117528 -2.0492634e-08)
(56.616633 0.25828284 -5.9932485e-08)
(53.057414 0.61918417 -1.1747453e-07)
(48.677457 1.016715 -1.8217033e-07)
(58.823512 0.072559119 -1.2657016e-08)
(56.821996 0.23211214 -4.5445766e-08)
(53.139309 0.58910283 -9.7947764e-08)
(48.598073 1.0005942 -1.6190765e-07)
(59.057516 0.060688623 -5.5335531e-09)
(57.027986 0.20796919 -3.2650225e-08)
(53.218528 0.56004031 -7.9374104e-08)
(48.497428 0.98747877 -1.4250807e-07)
(59.279621 0.04707455 8.9455988e-10)
(57.232976 0.18404833 -2.1602422e-08)
(53.295152 0.52995828 -6.1873719e-08)
(48.372408 0.97499977 -1.2425373e-07)
(59.48932 0.026781433 6.5119663e-09)
(57.436252 0.15577873 -1.2431377e-08)
(53.371443 0.49516815 -4.5511395e-08)
(48.22201 0.96198875 -1.0712032e-07)
(59.693206 -3.0901961e-05 1.1095054e-08)
(57.647538 0.12157416 -5.15611e-09)
(53.459562 0.44825375 -2.9191608e-08)
(48.05349 0.94772875 -9.1444652e-08)
(59.893326 -0.015877559 1.4567151e-08)
(57.866222 0.10046651 -3.1487766e-11)
(53.559677 0.39823868 -1.4095167e-08)
(47.87147 0.94051689 -7.7404932e-08)
(60.078394 -0.017760033 1.7669002e-08)
(58.083027 0.098438693 3.6562715e-09)
(53.668663 0.34712623 -1.7643493e-10)
(47.672211 0.94496208 -6.4579928e-08)
(60.243489 -0.021669136 2.0976551e-08)
(58.293426 0.099643762 6.5765911e-09)
(53.783357 0.28108928 1.2428764e-08)
(47.455981 0.95746749 -5.2763169e-08)
(60.396406 -0.029587497 2.4302153e-08)
(58.501548 0.099948448 8.7673341e-09)
(53.92011 0.17829218 2.4061127e-08)
(47.242438 0.96892039 -4.2213335e-08)
(60.547395 -0.050071243 2.7444095e-08)
(58.73313 0.11434791 1.0553708e-08)
(54.088177 0.054415252 3.3087913e-08)
(47.045141 0.99053446 -3.2663491e-08)
(60.688271 -0.084759246 2.9745659e-08)
(58.955991 0.16677722 1.2618788e-08)
(54.27336 -0.051633689 3.8778467e-08)
(46.86797 1.0435005 -2.3788601e-08)
(60.796482 -0.12699057 3.0491663e-08)
(59.147123 0.23952866 1.6298967e-08)
(54.452985 -0.15626442 4.1790127e-08)
(46.691456 1.1247649 -1.484315e-08)
(60.869281 -0.16267374 2.9365983e-08)
(59.292834 0.28543893 2.1819428e-08)
(54.633165 -0.32492849 4.2032378e-08)
(46.493997 1.1726864 -5.933047e-09)
(60.930778 -0.14946296 2.7087259e-08)
(59.421903 0.30951942 2.806998e-08)
(54.863873 -0.49227342 3.8685511e-08)
(46.324433 1.1818526 1.1447492e-09)
(60.884294 -0.074916474 2.4592917e-08)
(59.450907 0.26218451 3.2884191e-08)
(55.024244 -0.41745704 3.4711532e-08)
(46.2405 1.5367339 8.4242304e-09)
(35.202483 1.2182809 2.1464305e-08)
(36.863284 1.3837273 1.532712e-08)
(38.870146 1.3902373 -8.955748e-11)
(40.115591 1.2924393 -1.6156475e-08)
(41.000549 1.2037703 -3.1605901e-08)
(41.732998 1.1577221 -4.6420763e-08)
(42.372475 1.1470097 -6.0790146e-08)
(42.949305 1.1494853 -7.5206667e-08)
(43.459612 1.1490282 -8.9903789e-08)
(43.902842 1.151216 -1.0499631e-07)
(44.290576 1.1591849 -1.2075992e-07)
(44.635447 1.1711642 -1.3763034e-07)
(44.938992 1.1802559 -1.5566856e-07)
(45.199628 1.1874017 -1.746202e-07)
(45.422653 1.1941139 -1.9448768e-07)
(45.615037 1.2042339 -2.1511593e-07)
(45.785064 1.2172913 -2.3705432e-07)
(45.933256 1.2289753 -2.60015e-07)
(46.060842 1.2395833 -2.8423625e-07)
(46.168535 1.2499692 -3.0897999e-07)
(46.2599 1.2621272 -3.3403231e-07)
(46.338949 1.2744049 -3.6086666e-07)
(46.402278 1.2841625 -3.8900848e-07)
(46.44683 1.2939181 -4.1813839e-07)
(46.472463 1.3043458 -4.4836752e-07)
(46.480374 1.3147385 -4.7783238e-07)
(46.473821 1.3241095 -5.0931477e-07)
(46.450386 1.3342676 -5.4160766e-07)
(46.410533 1.3447054 -5.7654614e-07)
(46.346908 1.353246 -6.0873938e-07)
(46.260343 1.3642154 -6.4259807e-07)
(46.151105 1.3773095 -6.7770223e-07)
(46.017078 1.3892809 -7.1427694e-07)
(45.853473 1.3994749 -7.5040438e-07)
(45.662731 1.4144782 -7.8664857e-07)
(45.44614 1.4310343 -8.2367388e-07)
(45.203237 1.4492165 -8.614493e-07)
(44.933588 1.4716164 -8.9964338e-07)
(44.632882 1.496799 -9.3806711e-07)
(44.295509 1.526909 -9.7678138e-07)
(43.912797 1.5588924 -1.0158478e-06)
(43.489314 1.5962249 -1.0552974e-06)
(43.040143 1.6286063 -1.0955304e-06)
(42.567022 1.6186268 -1.1357275e-06)
(42.055063 1.5107763 -1.1716549e-06)
(41.446346 1.2482423 -1.1886889e-06)
(40.678231 0.91668411 -1.1697369e-06)
(39.791397 0.6817903 -1.1173644e-06)
(38.870314 0.56395926 -1.0481684e-06)
(37.967905 0.50536012 -9.7863759e-07)
(37.077912 0.47226463 -9.1685821e-07)
(36.200707 0.45000767 -8.6560792e-07)
(35.334099 0.43197824 -8.2390145e-07)
(34.480397 0.41539627 -7.8968671e-07)
(33.641721 0.39985621 -7.6077887e-07)
(32.821473 0.38497672 -7.3557762e-07)
(32.02048 0.36945616 -7.1317083e-07)
(31.235224 0.35466713 -6.9265228e-07)
(30.466553 0.34061778 -6.7349886e-07)
(29.716089 0.32730085 -6.5537455e-07)
(28.984574 0.31468321 -6.3806244e-07)
(28.272765 0.30294545 -6.2145389e-07)
(27.577741 0.29240398 -6.0548285e-07)
(26.897382 0.28316003 -5.9024017e-07)
(26.229902 0.27383075 -5.7532077e-07)
(25.578563 0.26353935 -5.6004624e-07)
(24.946668 0.25338781 -5.4431986e-07)
(24.334649 0.24385678 -5.2835029e-07)
(23.739706 0.2366386 -5.1304281e-07)
(23.150478 0.23082371 -4.9874996e-07)
(22.570181 0.22269688 -4.8413208e-07)
(22.012628 0.21580193 -4.6955432e-07)
(21.460523 0.21192268 -4.5556361e-07)
(20.91057 0.20687197 -4.4055152e-07)
(20.353607 0.19154565 -4.1972186e-07)
(19.766218 0.1302911 -3.7607213e-07)
(19.15313 0.069323536 -3.1635039e-07)
(18.569812 0.052202184 -2.6751313e-07)
(18.028804 0.046205286 -2.3341891e-07)
(17.509789 0.044075411 -2.0967984e-07)
(17.012925 0.042480293 -1.9210693e-07)
(16.534674 0.041006998 -1.7798757e-07)
(16.074803 0.039364771 -1.658165e-07)
(15.633112 0.037603689 -1.5485781e-07)
(15.211078 0.035722416 -1.4481697e-07)
(14.807264 0.033852621 -1.3563687e-07)
(14.421314 0.032099448 -1.2735493e-07)
(14.051766 0.03048549 -1.2001005e-07)
(13.696706 0.029103 -1.1361103e-07)
(13.355652 0.02785954 -1.0803064e-07)
(13.026999 0.026772578 -1.0315762e-07)
(12.711194 0.025746002 -9.8802067e-08)
(12.40693 0.024738108 -9.4751162e-08)
(12.112726 0.023783455 -9.0932911e-08)
(11.829585 0.022813267 -8.7252496e-08)
(11.556773 0.021871531 -8.3697762e-08)