/*--------------------------------*- C++ -*----------------------------------*\
| =========                 |                                                 |
| \\      /  F ield         | OpenFOAM: The Open Source CFD Toolbox           |
|  \\    /   O peration     | Version:  2.3.0                                 |
|   \\  /    A nd           | Web:      www.OpenFOAM.org                      |
|    \\/     M anipulation  |                                                 |
\*---------------------------------------------------------------------------*/
FoamFile
{
    version     2.0;
    format      ascii;
    class       volScalarField;
    location    "0.08";
    object      alphat;
}
// * * * * * * * * * * * * * * * * * * * * * * * * * * * * * * * * * * * * * //

dimensions      [1 -1 -1 0 0 0 0];

internalField   nonuniform List<scalar> 
12225
(
1.84397e-05
4.85748e-05
5.21181e-05
5.20126e-05
5.31784e-05
5.3899e-05
5.26211e-05
5.1806e-05
5.11403e-05
5.01884e-05
4.90399e-05
4.80752e-05
4.739e-05
4.67355e-05
4.6112e-05
4.55608e-05
4.48727e-05
4.33434e-05
3.30057e-06
1.12651e-05
1.6409e-05
1.89534e-05
2.09374e-05
2.32657e-05
2.44773e-05
2.58666e-05
2.68696e-05
2.75268e-05
2.81869e-05
2.85482e-05
2.87445e-05
2.91032e-05
2.94454e-05
2.96099e-05
3.00354e-05
3.01314e-05
2.37994e-06
2.10776e-06
4.44073e-06
6.35323e-06
8.0076e-06
9.5801e-06
1.0975e-05
1.21917e-05
1.30933e-05
1.40957e-05
1.50939e-05
1.60369e-05
1.69386e-05
1.78054e-05
1.86457e-05
1.95558e-05
2.04912e-05
2.11217e-05
2.13621e-05
7.94113e-06
6.46514e-06
7.60023e-06
9.4085e-06
1.02877e-05
1.01376e-05
9.82832e-06
9.70426e-06
9.6301e-06
9.73009e-06
9.87729e-06
1.01184e-05
1.06501e-05
1.13949e-05
1.19609e-05
1.27113e-05
1.35802e-05
0.000214489
0.000102097
5.73955e-05
3.69487e-05
3.66315e-05
3.50389e-05
3.01365e-05
2.62689e-05
2.18851e-05
1.79053e-05
1.50571e-05
1.30927e-05
1.18238e-05
1.12385e-05
1.10022e-05
1.08643e-05
1.09309e-05
1.11816e-05
0.000335905
0.000156242
0.000125302
9.99974e-05
8.82216e-05
8.862e-05
8.06479e-05
7.33875e-05
6.12948e-05
4.8395e-05
3.94381e-05
3.31382e-05
2.85565e-05
2.51254e-05
2.27872e-05
2.08121e-05
1.95931e-05
1.85795e-05
0.000158085
0.000152837
0.000148013
0.00014963
0.000128808
0.000135121
0.000132508
0.000127692
0.00011291
9.52128e-05
8.16943e-05
7.14626e-05
6.40338e-05
5.79768e-05
5.29999e-05
4.79666e-05
4.46186e-05
4.09928e-05
0.0001087
0.000128875
0.000154836
0.000177558
0.000167056
0.000156884
0.000157824
0.000155165
0.000143443
0.000125881
0.000112642
0.000102725
9.54211e-05
8.95542e-05
8.4571e-05
7.86954e-05
7.41168e-05
6.88334e-05
0.000107917
0.000137256
0.000169392
0.000197839
0.000195235
0.000167909
0.00016866
0.000167432
0.000157742
0.000142301
0.000131243
0.000123489
0.000118024
0.000113492
0.000109428
0.000104446
9.95614e-05
9.40686e-05
0.00013144
0.000185648
0.000201032
0.000213376
0.000211059
0.000172811
0.000171185
0.000169162
0.000159707
0.000148276
0.000140761
0.000136113
0.000133258
0.000130877
0.00012838
0.000124631
0.000120205
0.000114883
0.000350397
0.000267218
0.000236081
0.000227631
0.000210314
0.000192508
0.00016899
0.000163098
0.000154098
0.000147527
0.000143933
0.000142472
0.000142032
0.000141469
0.00014076
0.000138645
0.000135074
0.000129968
0.000548713
0.000327107
0.000270417
0.000229619
0.000209159
0.000192119
0.000153192
0.000149798
0.000147275
0.0001433
0.000142819
0.000143776
0.000145114
0.000145847
0.000146345
0.00014617
0.000144626
0.000139842
0.000661983
0.000365767
0.000285489
0.000222618
0.000197654
0.000181215
0.000147685
0.000134777
0.000134392
0.000134683
0.000136551
0.000138931
0.000140762
0.000143064
0.000144366
0.000145051
0.00014545
0.000143892
0.000595405
0.000410157
0.00032993
0.000254675
0.000210941
0.000190349
0.000161793
0.000126155
0.000122525
0.000123123
0.000124039
0.000125005
0.000127134
0.00013189
0.000135746
0.000138052
0.000138752
0.000139131
0.000310561
0.000410213
0.000365775
0.000326469
0.000262813
0.000208554
0.000172011
0.000128866
0.000115598
0.000108369
0.000105956
0.000104864
0.00010527
0.000113411
0.000121695
0.000127885
0.000131903
0.000133876
0.000206474
0.000390238
0.000359754
0.000338837
0.000284974
0.000227274
0.000166952
0.000123073
0.000106624
9.76198e-05
9.36574e-05
8.96146e-05
9.07186e-05
0.000101868
0.000112348
0.000120614
0.000126497
0.000130011
0.000180882
0.000374571
0.000356854
0.000343954
0.000291668
0.000237168
0.000170617
0.000127722
0.000106978
9.76362e-05
9.32466e-05
8.93174e-05
8.80457e-05
9.77592e-05
0.000108881
0.000117438
0.000123439
0.000126954
0.000259572
0.000433674
0.000398564
0.000363456
0.000297815
0.000230413
0.00016992
0.00013968
0.000114746
0.000106201
0.000102047
9.87041e-05
0.000100583
0.000109758
0.000117586
0.000123357
0.000127083
0.000128818
0.000317211
0.000443721
0.000410537
0.000360075
0.000294442
0.000235184
0.000186869
0.000160169
0.000134369
0.000127224
0.000122786
0.000121015
0.000121269
0.00012574
0.00013001
0.000132468
0.000133331
0.000133969
0.000408504
0.000399957
0.000345923
0.00031292
0.000275017
0.000247344
0.000215044
0.000173473
0.00016529
0.000160409
0.000152452
0.000148971
0.000147303
0.000146375
0.000145965
0.000145768
0.000145121
0.000143344
0.000255364
0.000312873
0.00026652
0.000242786
0.000216898
0.000206447
0.000198498
0.000169729
0.000171097
0.000172054
0.000174032
0.000173899
0.000170075
0.000165693
0.000160836
0.000155631
0.000149961
0.000143884
0.00049253
0.000230022
0.000162313
0.000135603
0.000129205
0.000157942
0.000170049
0.000162191
0.000172525
0.00017759
0.000182526
0.000189391
0.00018655
0.000178126
0.000168375
0.000158271
0.000148232
0.000138802
0.000454372
0.000251443
0.00013284
0.000101408
8.93638e-05
0.000124339
0.000131982
0.000153432
0.000168405
0.000175872
0.000180315
0.00018735
0.000189192
0.000180276
0.000166757
0.000153127
0.000139913
0.000128146
0.000440248
0.000270704
0.00013925
9.95164e-05
7.93641e-05
8.74266e-05
0.000114046
0.00013776
0.000154168
0.000162602
0.000165688
0.00016766
0.000168399
0.000162691
0.000146639
0.000130423
0.000115395
0.000102817
0.000446719
0.000266804
0.000149595
0.000105279
8.08077e-05
7.2559e-05
9.50635e-05
0.000112486
0.000123366
0.000128092
0.000127271
0.000122979
0.000117921
0.000111244
9.79158e-05
8.22199e-05
6.9833e-05
6.02808e-05
0.000445057
0.000228992
0.000140628
9.19937e-05
5.72928e-05
4.92611e-05
5.79586e-05
6.47651e-05
6.86992e-05
6.9507e-05
6.58935e-05
6.00727e-05
5.47191e-05
4.98777e-05
4.36655e-05
3.62056e-05
3.01995e-05
2.59936e-05
0.000316792
0.000132256
5.85565e-05
2.44393e-05
1.75674e-05
1.60232e-05
1.78463e-05
1.99368e-05
2.19192e-05
2.29711e-05
2.24283e-05
2.11063e-05
1.98539e-05
1.90423e-05
1.81042e-05
1.64248e-05
1.52281e-05
1.44634e-05
5.29257e-05
7.09486e-06
4.10922e-06
5.28108e-06
6.47139e-06
7.81315e-06
9.48192e-06
1.07712e-05
1.21215e-05
1.37472e-05
1.50382e-05
1.61257e-05
1.72911e-05
1.80408e-05
1.86993e-05
1.93968e-05
1.99134e-05
2.01516e-05
4.78866e-06
6.59227e-06
1.1798e-05
1.62651e-05
1.96225e-05
2.21675e-05
2.43494e-05
2.57898e-05
2.76269e-05
3.00431e-05
3.17092e-05
3.29076e-05
3.41557e-05
3.54683e-05
3.62522e-05
3.66801e-05
3.68021e-05
3.67071e-05
1.56597e-05
4.84961e-05
6.13412e-05
6.47675e-05
6.67118e-05
6.76613e-05
6.78024e-05
6.80714e-05
6.80668e-05
6.77122e-05
6.6928e-05
6.6477e-05
6.52822e-05
6.46578e-05
6.38636e-05
6.30786e-05
6.24709e-05
6.19596e-05
4.07256e-06
9.18417e-06
9.96742e-06
1.09297e-05
1.19177e-05
1.28579e-05
1.37209e-05
1.45068e-05
1.52355e-05
1.59107e-05
1.65507e-05
1.71677e-05
1.77654e-05
1.83542e-05
1.89374e-05
1.95189e-05
2.01e-05
2.06807e-05
2.12601e-05
2.18369e-05
2.24129e-05
2.29883e-05
2.35636e-05
2.41422e-05
2.47295e-05
2.53176e-05
2.59118e-05
2.65156e-05
2.71269e-05
2.77497e-05
2.83789e-05
2.90215e-05
2.96819e-05
3.03567e-05
3.10434e-05
3.17483e-05
3.24784e-05
3.32462e-05
3.40334e-05
3.48319e-05
3.56475e-05
3.64754e-05
3.72967e-05
3.8111e-05
3.89142e-05
3.97052e-05
4.0481e-05
4.12309e-05
4.19638e-05
4.2682e-05
4.33815e-05
4.40616e-05
4.47229e-05
4.53685e-05
4.60008e-05
4.66223e-05
4.72354e-05
4.78375e-05
4.84224e-05
4.89985e-05
4.9575e-05
5.01417e-05
5.07027e-05
5.1263e-05
5.18328e-05
5.24282e-05
5.30192e-05
5.35976e-05
5.41962e-05
5.48107e-05
5.54237e-05
5.60549e-05
5.66977e-05
5.73471e-05
5.80012e-05
5.86566e-05
5.93109e-05
5.99618e-05
6.06059e-05
6.1239e-05
6.18575e-05
6.24576e-05
6.30353e-05
6.35875e-05
6.4111e-05
6.46039e-05
6.50644e-05
6.54854e-05
6.58607e-05
6.6193e-05
6.64637e-05
6.66988e-05
6.68756e-05
6.70176e-05
6.71152e-05
6.71678e-05
6.718e-05
6.7154e-05
6.7093e-05
6.70032e-05
6.68839e-05
6.67372e-05
6.6568e-05
6.638e-05
6.61817e-05
6.59712e-05
6.57517e-05
6.55248e-05
6.52959e-05
6.50731e-05
6.48533e-05
6.46312e-05
6.44247e-05
6.42122e-05
6.40081e-05
6.37959e-05
6.35903e-05
6.33831e-05
6.3172e-05
6.29541e-05
6.27265e-05
6.24874e-05
6.22339e-05
6.19635e-05
6.16732e-05
6.13603e-05
6.10216e-05
6.06568e-05
6.02663e-05
5.98482e-05
5.94046e-05
5.89362e-05
5.84472e-05
5.79325e-05
5.73987e-05
5.68547e-05
5.63118e-05
5.57867e-05
5.52846e-05
5.48043e-05
5.43292e-05
5.38597e-05
5.33971e-05
5.29443e-05
5.25249e-05
5.21825e-05
5.18937e-05
5.16415e-05
5.14163e-05
5.12107e-05
5.10211e-05
5.08423e-05
5.06724e-05
5.05091e-05
5.03511e-05
5.01992e-05
5.00519e-05
4.99157e-05
4.97895e-05
4.96815e-05
4.95901e-05
4.95125e-05
4.94518e-05
4.94133e-05
4.94087e-05
4.94604e-05
4.95264e-05
4.95975e-05
4.96714e-05
4.97544e-05
4.98456e-05
4.99453e-05
5.00521e-05
5.01637e-05
5.02773e-05
5.03858e-05
5.0495e-05
5.05288e-05
5.06235e-05
5.0071e-05
5.27828e-06
7.58718e-06
1.37096e-05
2.18592e-05
2.93612e-05
3.50386e-05
3.91967e-05
4.22229e-05
4.45198e-05
4.63122e-05
4.78076e-05
4.91304e-05
5.03516e-05
5.14997e-05
5.2607e-05
5.36984e-05
5.47758e-05
5.5835e-05
5.68854e-05
5.79317e-05
5.89781e-05
6.00288e-05
6.1087e-05
6.21554e-05
6.3238e-05
6.4318e-05
6.53744e-05
6.64302e-05
6.74937e-05
6.85941e-05
6.96986e-05
7.08257e-05
7.19882e-05
7.31921e-05
7.44371e-05
7.57218e-05
7.70576e-05
7.8449e-05
7.99014e-05
8.14176e-05
8.29904e-05
8.4617e-05
8.63014e-05
8.80285e-05
8.98053e-05
9.16615e-05
9.35988e-05
9.55608e-05
9.75175e-05
9.95197e-05
0.000101538
0.000103571
0.00010563
0.000107683
0.000109721
0.000111734
0.000113713
0.00011566
0.000117583
0.000119487
0.000121361
0.000123201
0.000125007
0.000126797
0.000128593
0.000130398
0.000132176
0.000133935
0.00013573
0.000137619
0.000139461
0.000141435
0.000143511
0.000145682
0.00014796
0.000150359
0.00015289
0.000155561
0.000158388
0.000161393
0.000164583
0.00016795
0.000171504
0.000175251
0.000179193
0.00018334
0.00018769
0.000192212
0.00019687
0.000201639
0.000206527
0.000211428
0.000216328
0.000221084
0.00022582
0.000230386
0.000234716
0.000238756
0.000242538
0.000246198
0.00024971
0.000253027
0.000256171
0.00025913
0.000261953
0.00026464
0.000267208
0.000269678
0.000272107
0.000274536
0.000276961
0.000279418
0.000281945
0.000284552
0.000287271
0.000290045
0.000292977
0.000296045
0.000299245
0.000302574
0.000306025
0.000309583
0.000313235
0.000316959
0.000320717
0.000324492
0.000328238
0.000331906
0.000335487
0.000338896
0.000342082
0.000345124
0.000347936
0.00035047
0.000352675
0.000354564
0.00035603
0.000356942
0.000357293
0.000357159
0.000356799
0.000356314
0.000355764
0.000355194
0.000354578
0.000353693
0.0003526
0.000351385
0.000350106
0.000348792
0.000347447
0.000346061
0.000344617
0.000343082
0.00034142
0.000339589
0.000337543
0.000335242
0.000332625
0.000329648
0.000326313
0.000322661
0.0003187
0.000314432
0.000309838
0.000304927
0.000299897
0.00029485
0.000289823
0.000284873
0.000280038
0.000275368
0.00027088
0.000266591
0.000262485
0.000258626
0.000254861
0.00025144
0.000247387
0.000243004
6.63111e-06
9.54527e-06
2.00737e-05
3.71531e-05
5.47454e-05
6.94475e-05
8.03713e-05
8.83e-05
9.40824e-05
9.83503e-05
0.000101651
0.000104356
0.000106686
0.000108764
0.000110672
0.000112491
0.000114266
0.000116028
0.000117748
0.000119478
0.000121221
0.000122988
0.000124794
0.000126648
0.00012856
0.000130518
0.000132492
0.000134496
0.000136571
0.000138749
0.000141039
0.000143345
0.000145775
0.000148328
0.000151012
0.000153828
0.000156779
0.00015986
0.00016309
0.000166469
0.000169995
0.000173668
0.000177484
0.000181427
0.000185517
0.00018978
0.000194208
0.000198733
0.000203331
0.000207993
0.000212807
0.000217491
0.000222301
0.000227144
0.000231977
0.000236782
0.000241553
0.000246289
0.000250987
0.000255642
0.00026025
0.000264804
0.000269317
0.000273816
0.000278333
0.000282878
0.000287442
0.000292036
0.000296705
0.000301643
0.000306499
0.000311692
0.000317152
0.000322869
0.00032886
0.000335155
0.00034178
0.000348758
0.000356107
0.000363849
0.000371988
0.000380513
0.000389419
0.000398699
0.000408336
0.000418308
0.000428573
0.000439067
0.000449714
0.000460433
0.000471125
0.000481702
0.000492093
0.000501992
0.000511638
0.000520879
0.000529596
0.000537747
0.00054539
0.000552584
0.000559266
0.000565348
0.000570887
0.000575899
0.000580449
0.000584585
0.000588368
0.000591883
0.000595233
0.000598511
0.00060178
0.000605129
0.000608635
0.000612354
0.00061637
0.000620569
0.000625152
0.000630091
0.000635374
0.000640988
0.000646904
0.000653084
0.000659482
0.000666028
0.000672648
0.000679262
0.000685826
0.00069211
0.000698145
0.000703778
0.000708921
0.000713428
0.000717355
0.000720667
0.000723156
0.000724856
0.000725695
0.000725572
0.000724507
0.000722628
0.000720237
0.000717522
0.000714625
0.000711658
0.000708676
0.000705603
0.000702487
0.000699399
0.000696399
0.000693514
0.000690737
0.000688047
0.000685399
0.000682728
0.000679963
0.000677021
0.000673815
0.000670263
0.000666272
0.000661749
0.00065668
0.000651068
0.000644907
0.000638193
0.000630921
0.000623145
0.000615029
0.00060671
0.000598283
0.000589819
0.000581414
0.000573178
0.000565193
0.000557508
0.00055013
0.000543118
0.000536307
0.000529802
0.000522139
0.000513937
7.81933e-06
1.18696e-05
2.70218e-05
5.1917e-05
7.78595e-05
0.000100005
0.000117225
0.000130108
0.000139721
0.000146913
0.000152434
0.000156813
0.000160453
0.000163611
0.000166449
0.000169102
0.000171677
0.000174255
0.00017677
0.000179317
0.000181906
0.000184552
0.000187274
0.000190091
0.000193015
0.000196038
0.000199142
0.000202338
0.000205678
0.000209189
0.000212948
0.000216697
0.000220658
0.000224842
0.000229277
0.00023398
0.000239017
0.000244393
0.000250011
0.00025585
0.000261905
0.000268165
0.000274615
0.000281246
0.000288066
0.000295085
0.000302289
0.000309634
0.000317093
0.000324623
0.000332309
0.000339932
0.000347561
0.000355314
0.000363072
0.000370814
0.000378529
0.000386206
0.000393835
0.000401408
0.000408919
0.000416368
0.000423772
0.000431163
0.000438571
0.000446017
0.00045351
0.000461064
0.000468713
0.000476737
0.000484616
0.000492935
0.000501608
0.000510608
0.000519947
0.000529658
0.00053977
0.000550305
0.000561275
0.000572685
0.000584531
0.000596797
0.000609465
0.000622516
0.000635917
0.000649621
0.000663575
0.000677707
0.000691937
0.000706161
0.000720267
0.00073416
0.000747767
0.00076083
0.000773454
0.000785652
0.000797211
0.000808091
0.0008182
0.000827618
0.000836261
0.000844044
0.000851019
0.000857204
0.00086265
0.000867421
0.000871608
0.000875322
0.000878696
0.000881857
0.000884929
0.000888041
0.000891312
0.000894838
0.000898765
0.000902945
0.000907659
0.000912892
0.000918635
0.000924875
0.00093158
0.0009387
0.000946173
0.00095391
0.000961812
0.000969766
0.00097765
0.00098529
0.000992643
0.000999526
0.00100577
0.00101126
0.00101586
0.00101965
0.0010224
0.00102408
0.00102465
0.00102407
0.00102238
0.00101969
0.00101625
0.00101226
0.0010079
0.00100335
0.000998726
0.000994112
0.000989585
0.000985222
0.000981089
0.000977215
0.0009736
0.000970221
0.000967018
0.000963924
0.000960843
0.000957669
0.000954289
0.000950589
0.00094647
0.000941782
0.000936498
0.000930571
0.000923964
0.000916654
0.000908636
0.000899966
0.000890805
0.000881244
0.000871425
0.000861386
0.000851259
0.000841197
0.000831351
0.000821799
0.000812597
0.000803802
0.000795302
0.000787005
0.000777591
0.00076806
8.83598e-06
1.42249e-05
3.40911e-05
6.5944e-05
9.85634e-05
0.000126248
0.000147867
0.000164184
0.000176459
0.000185715
0.000192878
0.000198601
0.000203368
0.000207505
0.00021124
0.000214743
0.000218157
0.000221593
0.000225039
0.00022851
0.000232108
0.000235831
0.000239702
0.000243745
0.000247973
0.000252384
0.000256967
0.000261734
0.000266733
0.000272
0.000277676
0.000283531
0.000289665
0.000296125
0.000302897
0.000309933
0.00031719
0.000324652
0.000332361
0.000340295
0.000348477
0.0003569
0.000365551
0.000374424
0.000383523
0.000392852
0.000402383
0.000412092
0.000421948
0.000431903
0.000442
0.000452156
0.000462135
0.000472345
0.000482585
0.000492814
0.00050301
0.000513153
0.000523227
0.000533217
0.000543111
0.000552909
0.000562628
0.000572292
0.000581931
0.000591565
0.000601213
0.000610893
0.000620633
0.000630756
0.000640648
0.000650968
0.000661643
0.000672641
0.000683969
0.000695657
0.000707734
0.000720219
0.000733122
0.000746443
0.000760175
0.000774306
0.000788822
0.000803706
0.000818947
0.000834513
0.000850318
0.00086629
0.000882351
0.000898405
0.00091435
0.000930087
0.000945551
0.00096057
0.000975083
0.000989258
0.00100285
0.00101579
0.00102801
0.00103935
0.00104969
0.00105909
0.00106753
0.001075
0.00108152
0.00108714
0.00109194
0.00109604
0.00109956
0.00110265
0.00110545
0.00110813
0.00111084
0.0011137
0.00111694
0.00112038
0.00112441
0.00112902
0.00113424
0.00114007
0.00114651
0.00115352
0.00116104
0.00116899
0.00117726
0.00118573
0.00119426
0.00120269
0.00121091
0.00121873
0.00122606
0.00123263
0.0012383
0.00124301
0.0012467
0.00124921
0.0012505
0.00125053
0.00124932
0.00124697
0.00124364
0.00123952
0.00123479
0.00122966
0.00122431
0.0012189
0.00121356
0.00120841
0.00120355
0.00119902
0.00119486
0.00119105
0.00118752
0.00118425
0.00118112
0.00117802
0.00117484
0.00117142
0.00116769
0.00116343
0.00115861
0.00115315
0.00114697
0.00114003
0.00113231
0.00112383
0.00111466
0.00110491
0.00109476
0.00108419
0.00107334
0.00106241
0.00105159
0.001041
0.00103073
0.00102086
0.00101139
0.00100214
0.000992219
0.000982697
9.74259e-06
1.64995e-05
4.0892e-05
7.89726e-05
0.000117377
0.000149817
0.000175181
0.000194441
0.000209023
0.000220071
0.000228674
0.00023558
0.000241354
0.000246383
0.000250948
0.000255254
0.000259468
0.000263728
0.00026808
0.000272461
0.000277059
0.000281855
0.000286874
0.00029214
0.000297665
0.000303447
0.000309481
0.000315771
0.00032235
0.000329246
0.000336604
0.000344204
0.000352028
0.000360227
0.000368768
0.000377591
0.000386681
0.000396041
0.000405685
0.000415629
0.00042582
0.000436234
0.000446859
0.000457686
0.000468718
0.000479952
0.000491377
0.000502967
0.000514699
0.000526533
0.000538479
0.000550572
0.000562354
0.000574407
0.000586506
0.000598592
0.000610635
0.000622609
0.00063449
0.000646254
0.000657883
0.000669372
0.000680728
0.000691969
0.000703118
0.000714196
0.000725224
0.000736226
0.000747232
0.000758578
0.000769633
0.000781052
0.000792782
0.000804779
0.000817039
0.000829602
0.000842499
0.000855751
0.000869368
0.000883354
0.000897704
0.00091241
0.00092746
0.000942836
0.00095851
0.000974441
0.00099061
0.00100698
0.00102349
0.0010401
0.00105671
0.00107327
0.00108971
0.00110595
0.00112176
0.00113744
0.00115269
0.00116735
0.00118135
0.00119437
0.00120648
0.00121762
0.00122772
0.00123674
0.00124467
0.00125151
0.00125732
0.00126219
0.00126622
0.00126954
0.0012723
0.00127468
0.00127684
0.00127894
0.00128124
0.00128363
0.00128651
0.00128995
0.00129403
0.00129879
0.00130427
0.00131046
0.00131734
0.00132484
0.00133287
0.00134133
0.00135008
0.00135896
0.00136784
0.00137653
0.00138488
0.00139271
0.00139976
0.00140588
0.001411
0.00141501
0.00141777
0.00141918
0.00141925
0.00141801
0.00141557
0.00141208
0.00140772
0.0014027
0.00139724
0.00139153
0.00138577
0.00138013
0.00137475
0.00136973
0.00136512
0.00136094
0.00135713
0.0013537
0.00135057
0.00134762
0.00134472
0.00134174
0.00133858
0.001335
0.00133094
0.0013263
0.00132099
0.00131493
0.00130806
0.00130037
0.00129191
0.00128271
0.00127297
0.00126263
0.0012518
0.0012407
0.00122957
0.00121853
0.00120773
0.00119728
0.00118724
0.00117754
0.00116758
0.00115862
1.06181e-05
1.85467e-05
4.69963e-05
9.05937e-05
0.00013422
0.000170957
0.000199802
0.000221814
0.000238576
0.000251329
0.000261306
0.000269344
0.000276078
0.000281955
0.000287305
0.00029237
0.000297337
0.000302365
0.000307567
0.000312797
0.000318324
0.000324117
0.000330196
0.000336582
0.000343286
0.000350304
0.000357629
0.000365258
0.000373207
0.000381492
0.000390245
0.000399292
0.000408514
0.000418127
0.000428097
0.000438338
0.000448842
0.000459609
0.000470634
0.000481905
0.000493408
0.000505122
0.000517036
0.000529147
0.000541462
0.00055398
0.000566693
0.000579587
0.000592646
0.000605843
0.000619165
0.000632735
0.000645925
0.000659419
0.000672998
0.000686577
0.000700112
0.000713561
0.000726882
0.000740035
0.000752988
0.000765721
0.000778228
0.000790514
0.000802592
0.00081448
0.000826198
0.000837775
0.00084924
0.000860928
0.000872249
0.000883804
0.000895579
0.000907541
0.000919696
0.000932083
0.000944741
0.000957697
0.000970968
0.000984568
0.000998504
0.00101278
0.0010274
0.00104236
0.00105767
0.00107332
0.00108929
0.00110557
0.00112212
0.00113891
0.00115588
0.00117297
0.00119013
0.00120731
0.0012242
0.00124112
0.0012578
0.00127401
0.00128955
0.00130437
0.00131835
0.00133137
0.00134336
0.00135422
0.00136388
0.00137233
0.00137957
0.00138564
0.00139061
0.00139459
0.00139769
0.00140008
0.00140193
0.00140342
0.00140481
0.00140607
0.00140761
0.00140957
0.0014121
0.00141531
0.00141929
0.0014241
0.00142975
0.00143623
0.00144349
0.00145143
0.00145996
0.00146892
0.00147817
0.00148753
0.00149681
0.00150584
0.00151436
0.00152213
0.00152895
0.00153479
0.00153945
0.00154276
0.00154463
0.00154504
0.00154405
0.00154176
0.00153831
0.00153392
0.0015288
0.00152319
0.00151733
0.00151144
0.00150572
0.00150029
0.00149531
0.00149078
0.00148668
0.00148309
0.00147992
0.00147709
0.00147448
0.00147195
0.00146941
0.0014666
0.00146343
0.00145979
0.00145557
0.00145064
0.00144494
0.0014384
0.00143102
0.00142279
0.00141391
0.00140425
0.0013939
0.00138307
0.00137203
0.00136093
0.00134992
0.00133917
0.0013288
0.00131887
0.00130902
0.00130067
1.15017e-05
2.02537e-05
5.21109e-05
0.00010053
0.000148928
0.000189694
0.000221918
0.000246645
0.000265584
0.000280055
0.000291421
0.000300602
0.000308299
0.000315014
0.000321124
0.000326907
0.000332576
0.000338304
0.000344264
0.000350242
0.000356575
0.000363223
0.0003702
0.000377523
0.000385199
0.000393221
0.000401575
0.000410255
0.000419263
0.000428606
0.0004384
0.000448515
0.000458742
0.000469344
0.000480276
0.000491464
0.00050289
0.000514547
0.000526429
0.000538521
0.000550815
0.000563297
0.000575968
0.000588828
0.000601893
0.000615168
0.000628654
0.000642354
0.000656261
0.000670362
0.000684635
0.000699269
0.000713535
0.000728151
0.000742923
0.000757751
0.000772566
0.000787305
0.000801903
0.000816291
0.00083041
0.00084421
0.000857656
0.000870735
0.000883447
0.000895796
0.000907797
0.000919485
0.000930898
0.000942354
0.000953351
0.000964427
0.000975598
0.000986853
0.000998216
0.00100973
0.00102146
0.00103342
0.00104566
0.0010582
0.00107106
0.00108426
0.00109783
0.00111179
0.00112616
0.00114095
0.00115619
0.00117186
0.00118795
0.00120446
0.00122136
0.00123858
0.00125609
0.00127387
0.00129155
0.00130946
0.00132734
0.00134496
0.00136216
0.00137878
0.00139469
0.00140974
0.00142379
0.00143671
0.00144841
0.0014588
0.00146784
0.00147554
0.00148193
0.00148704
0.00149094
0.00149381
0.00149577
0.00149701
0.00149773
0.00149803
0.00149828
0.00149869
0.00149948
0.00150084
0.00150293
0.00150589
0.0015098
0.00151472
0.00152065
0.00152754
0.00153534
0.00154392
0.00155314
0.00156283
0.0015728
0.00158283
0.0015927
0.0016021
0.00161077
0.00161857
0.00162527
0.00163083
0.00163485
0.00163731
0.0016382
0.00163754
0.00163545
0.00163211
0.00162773
0.00162257
0.00161689
0.00161097
0.00160506
0.00159934
0.00159404
0.00158919
0.00158477
0.00158096
0.00157771
0.00157494
0.00157256
0.00157043
0.00156848
0.00156644
0.00156417
0.00156158
0.00155852
0.00155486
0.00155048
0.00154528
0.00153922
0.00153223
0.00152449
0.00151583
0.00150627
0.00149604
0.00148541
0.00147451
0.00146354
0.0014527
0.00144216
0.0014321
0.00142237
0.00141428
1.2391e-05
2.15757e-05
5.60971e-05
0.000108652
0.000161433
0.000206047
0.000241606
0.00026907
0.000290232
0.000306479
0.000319282
0.000329643
0.000338321
0.000345869
0.00035271
0.000359158
0.000365448
0.00037177
0.000378309
0.000384944
0.000391853
0.000399127
0.000406743
0.000414719
0.000423054
0.000431741
0.000440767
0.000450105
0.00045975
0.000469705
0.000480061
0.000490759
0.000501505
0.000512593
0.000523979
0.000535579
0.000547376
0.000559362
0.000571532
0.000583876
0.000596388
0.000609067
0.000621919
0.000634957
0.000648206
0.000661685
0.000675412
0.00068941
0.000703689
0.000718256
0.000733094
0.000748363
0.00076362
0.000779106
0.000794962
0.000811011
0.000827159
0.000843317
0.000859382
0.000875245
0.000890797
0.000905933
0.000920579
0.000934671
0.000948161
0.000961027
0.000973271
0.000984925
0.000996035
0.00100691
0.00101719
0.00102733
0.00103738
0.00104739
0.0010574
0.00106748
0.00107769
0.0010881
0.00109875
0.00110967
0.00112092
0.00113252
0.00114453
0.00115698
0.00116992
0.00118339
0.00119743
0.00121206
0.00122729
0.00124313
0.00125958
0.00127659
0.00129413
0.00131221
0.00133046
0.00134919
0.00136813
0.00138709
0.00140587
0.00142429
0.00144217
0.00145933
0.00147558
0.00149076
0.00150472
0.00151734
0.00152854
0.00153826
0.0015465
0.00155325
0.00155846
0.00156231
0.00156493
0.00156643
0.00156694
0.00156668
0.00156593
0.00156496
0.00156405
0.00156347
0.00156344
0.00156424
0.00156597
0.00156883
0.00157288
0.00157816
0.00158465
0.00159228
0.00160096
0.00161052
0.00162076
0.00163148
0.00164242
0.00165327
0.00166374
0.00167353
0.00168233
0.00169013
0.00169667
0.00170148
0.00170457
0.00170593
0.00170559
0.00170369
0.00170042
0.00169604
0.00169083
0.00168511
0.00167918
0.00167327
0.00166772
0.00166256
0.0016578
0.00165371
0.0016503
0.00164751
0.00164526
0.00164345
0.00164202
0.00164069
0.00163927
0.0016377
0.00163582
0.00163345
0.00163045
0.00162669
0.00162208
0.0016165
0.00161011
0.00160265
0.00159414
0.00158476
0.00157478
0.00156432
0.0015536
0.00154283
0.00153224
0.00152211
0.00151247
0.00150437
1.32868e-05
2.25149e-05
5.8953e-05
0.000115
0.000171803
0.000220108
0.00025896
0.000289182
0.000312604
0.00033067
0.000344941
0.000356492
0.000366132
0.000374468
0.000381961
0.000388958
0.000395717
0.000402444
0.000409328
0.000416335
0.000423516
0.000431068
0.000438953
0.000447164
0.00045571
0.000464582
0.000473762
0.000483236
0.000492987
0.000503014
0.000513394
0.000524108
0.000534811
0.000545813
0.000557066
0.000568487
0.000580058
0.000591772
0.000603623
0.000615606
0.000627722
0.000639976
0.000652387
0.00066498
0.000677794
0.000690869
0.000704247
0.000717976
0.000732094
0.000746636
0.000761616
0.000777165
0.000793091
0.000809324
0.000826206
0.000843539
0.000861216
0.000879122
0.000897117
0.00091504
0.000932711
0.000949959
0.000966607
0.000982497
0.0009975
0.00101152
0.00102452
0.0010365
0.0010475
0.00105781
0.00106725
0.0010762
0.00108479
0.00109312
0.0011013
0.00110945
0.00111765
0.00112599
0.00113454
0.00114335
0.00115249
0.00116201
0.00117198
0.00118247
0.00119353
0.00120524
0.00121766
0.00123082
0.00124477
0.00125955
0.00127516
0.00129161
0.00130887
0.00132694
0.00134558
0.0013649
0.00138476
0.00140493
0.00142521
0.00144539
0.00146525
0.00148456
0.00150312
0.0015207
0.00153712
0.00155221
0.00156585
0.00157795
0.00158845
0.00159721
0.00160426
0.00160969
0.00161357
0.00161595
0.00161685
0.00161663
0.00161539
0.00161341
0.00161108
0.0016087
0.00160658
0.00160504
0.0016043
0.00160471
0.00160639
0.00160947
0.00161405
0.00162011
0.00162762
0.00163645
0.00164645
0.00165738
0.001669
0.00168098
0.00169298
0.00170479
0.0017156
0.00172562
0.00173468
0.00174221
0.0017478
0.0017515
0.00175329
0.00175321
0.00175142
0.00174817
0.00174373
0.00173846
0.00173269
0.00172672
0.001721
0.00171556
0.00171045
0.00170604
0.00170239
0.00169948
0.00169726
0.00169566
0.00169462
0.00169391
0.00169326
0.00169265
0.00169188
0.00169078
0.00168917
0.00168688
0.00168378
0.00167972
0.00167481
0.00166873
0.00166145
0.00165316
0.00164404
0.00163423
0.00162394
0.00161341
0.0016029
0.00159273
0.00158315
0.00157477
1.41877e-05
2.3122e-05
6.08076e-05
0.000119756
0.00018022
0.0002321
0.000274102
0.000307048
0.000332695
0.000352545
0.000368228
0.000380883
0.000391369
0.000400337
0.000408286
0.000415591
0.000422532
0.00042933
0.000436173
0.000443135
0.00045014
0.000457465
0.000465063
0.000472952
0.000481135
0.000489611
0.000498365
0.00050738
0.000516644
0.000526152
0.000535968
0.00054611
0.0005562
0.000566543
0.000577091
0.000587761
0.000598533
0.000609396
0.000620347
0.00063138
0.0006425
0.000653722
0.000665074
0.000676594
0.000688341
0.000700376
0.000712774
0.000725612
0.000738966
0.000752907
0.000767492
0.00078286
0.000798994
0.000815693
0.000833399
0.000851943
0.000871227
0.000891135
0.000911506
0.000932136
0.000952788
0.00097318
0.000993013
0.001012
0.00102988
0.0010464
0.00106139
0.00107477
0.00108654
0.00109691
0.00110589
0.00111379
0.00112083
0.00112725
0.00113327
0.00113906
0.00114479
0.00115057
0.00115653
0.00116274
0.00116928
0.00117624
0.00118371
0.00119177
0.00120049
0.00120998
0.0012203
0.00123155
0.00124378
0.00125707
0.00127145
0.00128695
0.00130357
0.00132129
0.00134
0.00135967
0.00138022
0.00140143
0.00142308
0.00144494
0.00146674
0.00148823
0.00150914
0.00152923
0.00154826
0.00156602
0.00158236
0.00159714
0.00161022
0.00162149
0.00163079
0.00163837
0.00164411
0.00164808
0.00165005
0.00165057
0.00164951
0.00164711
0.00164387
0.00164008
0.00163609
0.00163229
0.00162905
0.00162677
0.00162564
0.00162604
0.00162812
0.00163196
0.00163761
0.00164503
0.0016541
0.00166465
0.00167642
0.00168908
0.00170227
0.00171575
0.00172869
0.00174079
0.00175215
0.00176258
0.00177103
0.00177738
0.00178164
0.00178377
0.00178386
0.00178211
0.00177879
0.00177425
0.00176888
0.00176303
0.00175725
0.0017516
0.00174614
0.00174138
0.00173742
0.0017343
0.001732
0.00173047
0.00172971
0.00172951
0.0017295
0.00172974
0.00173002
0.00173012
0.00172986
0.00172904
0.00172748
0.00172501
0.00172167
0.00171708
0.00171121
0.00170418
0.00169612