/*--------------------------------*- C++ -*----------------------------------*\
| =========                 |                                                 |
| \\      /  F ield         | OpenFOAM: The Open Source CFD Toolbox           |
|  \\    /   O peration     | Version:  2.3.0                                 |
|   \\  /    A nd           | Web:      www.OpenFOAM.org                      |
|    \\/     M anipulation  |                                                 |
\*---------------------------------------------------------------------------*/
FoamFile
{
    version     2.0;
    format      ascii;
    class       volScalarField;
    location    "0.08";
    object      CH4;
}
// * * * * * * * * * * * * * * * * * * * * * * * * * * * * * * * * * * * * * //

dimensions      [0 0 0 0 0 0 0];

internalField   nonuniform List<scalar> 
12225
(
0.00410774
0.00129171
0.000724651
0.000571981
0.000457378
0.00039269
0.000365032
0.000325963
0.000295315
0.000275538
0.000261856
0.000245076
0.000229197
0.00021734
0.000209843
0.000199184
0.000193421
0.000185984
0.00471641
0.00117635
0.000624845
0.000472353
0.000387719
0.000325989
0.000307331
0.000288004
0.000263382
0.000246089
0.000232153
0.000221422
0.000213743
0.000203731
0.000195728
0.000188761
0.000179755
0.000174819
0.0254047
0.00244704
0.000859701
0.000516482
0.000378988
0.000293035
0.000259839
0.00024563
0.000225124
0.000206731
0.000194891
0.000185726
0.000177391
0.00017186
0.000168304
0.000163614
0.0001594
0.000150587
0.0364394
0.0145679
0.00197836
0.000774256
0.000485909
0.000347399
0.000265826
0.000241508
0.000215422
0.000188757
0.000172091
0.000160802
0.000152518
0.000145923
0.000141644
0.000138885
0.000135486
0.000131615
0.0401235
0.027574
0.0178761
0.00202816
0.000738528
0.00045496
0.000318427
0.000267354
0.000229994
0.000192756
0.000169718
0.000155631
0.000142796
0.000133299
0.000127017
0.000123809
0.000121545
0.000118142
0.0412358
0.0302879
0.0238099
0.0140386
0.00153715
0.000589109
0.000355181
0.000294296
0.000242537
0.000213921
0.000182314
0.000158907
0.000147273
0.000133557
0.000123502
0.000118515
0.000116153
0.000112516
0.0412115
0.0307025
0.0239946
0.0190766
0.00265838
0.00087894
0.000431314
0.000327323
0.000273828
0.000225317
0.000195968
0.000168465
0.000153586
0.000137041
0.000125916
0.000120377
0.00011737
0.000112602
0.0413713
0.0308258
0.0246019
0.0210181
0.0109244
0.00135001
0.000547219
0.000365528
0.000293895
0.00024895
0.00020541
0.000176385
0.000157447
0.000141342
0.000130384
0.000125346
0.000120779
0.000114045
0.0415172
0.0311651
0.0251221
0.0217224
0.0152667
0.00167849
0.000635778
0.000434586
0.000339289
0.000254388
0.000215672
0.00018269
0.000163736
0.000146464
0.000135708
0.000130528
0.000122773
0.000115324
0.0416518
0.0318767
0.0265921
0.0221262
0.0170316
0.00254752
0.000820555
0.000538115
0.000387333
0.000283734
0.00022644
0.000191329
0.000167701
0.000150781
0.000142864
0.000132762
0.000123331
0.000117213
0.0422093
0.0330916
0.0272095
0.0238578
0.0166331
0.0111096
0.00164581
0.000616119
0.000394212
0.000294239
0.000235716
0.000199645
0.000175332
0.000162527
0.00015096
0.000136895
0.00012261
0.000115412
0.0423004
0.0342687
0.0284226
0.0242332
0.0192352
0.0159636
0.00233271
0.000715518
0.000415912
0.000305438
0.000243637
0.000209348
0.000195058
0.000175515
0.000153289
0.000138727
0.000126458
0.000117721
0.0426398
0.0352806
0.0298668
0.0256718
0.0216259
0.0183067
0.00818005
0.0012434
0.000536957
0.000356246
0.000273118
0.000238791
0.000210783
0.000180442
0.000158923
0.000143259
0.000130812
0.000121194
0.0423377
0.0356127
0.0303548
0.0262457
0.0228796
0.0191643
0.0146241
0.00202978
0.000670475
0.000424115
0.00032321
0.000243822
0.000205601
0.000182154
0.000164019
0.000147923
0.000134745
0.000124477
0.0412479
0.0349518
0.0295252
0.027228
0.0235926
0.0211656
0.0188116
0.0046116
0.000942024
0.000425063
0.000311334
0.000266782
0.000212511
0.000181596
0.000170521
0.000158587
0.00014272
0.000128792
0.0407241
0.0342039
0.0285621
0.0263966
0.0243932
0.0219798
0.0194097
0.00641207
0.0010865
0.000451333
0.000337856
0.000281309
0.000224917
0.000187065
0.000162923
0.000146505
0.000136781
0.000129702
0.0407975
0.0342191
0.029594
0.0269995
0.0250966
0.0227915
0.0203005
0.0088296
0.00127295
0.000486108
0.000352588
0.000275863
0.000230047
0.000195196
0.000171165
0.000151765
0.000137585
0.000126228
0.0408888
0.0349652
0.0297674
0.0268135
0.0253192
0.0217661
0.0193354
0.0101966
0.00139647
0.000545842
0.000338426
0.000255801
0.000211555
0.000180928
0.00015625
0.000138326
0.000131225
0.000125292
0.0413302
0.0333839
0.0291715
0.0258188
0.0234845
0.0200721
0.0179487
0.00953952
0.00142086
0.000559991
0.00034556
0.000258175
0.000213637
0.000182476
0.000155494
0.000138721
0.000132863
0.000125352
0.0419799
0.0350359
0.0289284
0.0252921
0.022133
0.0184917
0.0161385
0.00309886
0.000870856
0.000454417
0.000311276
0.000235619
0.000210744
0.00018704
0.000168127
0.000155734
0.00014321
0.000130028
0.0428911
0.0356836
0.0291891
0.024974
0.0209854
0.0167344
0.0139222
0.00217562
0.000705748
0.000406937
0.00028074
0.000244036
0.000212373
0.000194564
0.000177443
0.000155976
0.00013999
0.000127683
0.0431877
0.0359889
0.0288616
0.0237278
0.0187977
0.014402
0.010478
0.0015253
0.000594748
0.000354303
0.00027512
0.000238808
0.000213006
0.000196614
0.000174438
0.000151865
0.000135912
0.000126855
0.0426644
0.036475
0.028192
0.0227755
0.0163753
0.0124487
0.00182052
0.000697193
0.000411052
0.000297739
0.000238851
0.000215556
0.000199294
0.000184624
0.000165309
0.000146979
0.000133024
0.000123918
0.042243
0.0363835
0.0280791
0.0225448
0.0156075
0.00356229
0.00097736
0.000525953
0.000349826
0.00027171
0.000224537
0.000187234
0.000174562
0.000158782
0.000149726
0.00014029
0.000128706
0.000118889
0.0418595
0.0357283
0.0276468
0.0219479
0.0153862
0.00181661
0.000657573
0.000408296
0.000296815
0.000239911
0.000192018
0.000175815
0.000161868
0.000145971
0.000135534
0.00013019
0.000120892
0.000116359
0.0414821
0.0344709
0.026128
0.0210272
0.00250131
0.000792763
0.000434222
0.000310343
0.000254359
0.000215107
0.00018518
0.000164028
0.000146077
0.00013648
0.00013049
0.000125692
0.000121037
0.000113435
0.0406283
0.0322338
0.0208694
0.00246395
0.000793152
0.000459384
0.000344712
0.000270884
0.000222304
0.000190027
0.000166064
0.000148392
0.00013994
0.000135453
0.000131923
0.000126142
0.000119684
0.00011427
0.0374061
0.0199479
0.00231032
0.000828297
0.000492512
0.000351218
0.000275109
0.000235679
0.000202551
0.000177862
0.000161681
0.000155249
0.000151107
0.000148107
0.000142829
0.000136462
0.000132895
0.000130749
0.0260256
0.0024635
0.000872497
0.000534437
0.000383794
0.000312751
0.000271678
0.000242979
0.000217257
0.000200752
0.00019155
0.000187387
0.000182275
0.000175467
0.000169979
0.000164393
0.000158852
0.000153972
0.00441273
0.00122325
0.000636898
0.000496832
0.000415524
0.000359487
0.000319109
0.000279181
0.000254976
0.000239877
0.000229465
0.000214495
0.000207156
0.000198633
0.00019257
0.000185039
0.000175701
0.000168843
5.53169e-62
2.03755e-63
4.62416e-65
9.35279e-67
2.81577e-68
2.75083e-68
6.89129e-68
1.25218e-67
1.54291e-67
1.35948e-67
8.63354e-68
4.08243e-68
1.51048e-68
4.5248e-69
1.21146e-69
2.42395e-69
4.48311e-68
7.03002e-67
8.28122e-66
7.30647e-65
4.7688e-64
2.33994e-63
8.73059e-63
2.44609e-62
5.06827e-62
8.58031e-62
1.38215e-61
2.31481e-61
3.52039e-61
4.09599e-61
3.4811e-61
2.17101e-61
1.01173e-61
3.70733e-62
1.11307e-62
2.88432e-63
6.81678e-64
1.55045e-64
3.54486e-65
8.40349e-66
2.07786e-66
5.35177e-67
1.43462e-67
4.03661e-68
1.19898e-68
3.83189e-69
1.466e-69
1.3353e-69
5.03138e-69
2.94387e-68
1.97131e-67
1.45081e-66
1.13075e-65
8.97569e-65
7.03909e-64
5.34313e-63
3.87212e-62
2.65442e-61
1.71434e-60
1.04634e-59
6.0785e-59
3.39491e-58
1.85899e-57
1.00877e-56
5.33013e-56
2.59839e-55
1.07589e-54
3.43142e-54
7.22919e-54
8.69292e-54
7.27641e-54
3.85443e-54
1.43549e-54
4.13748e-55
9.69952e-56
1.96455e-56
3.54865e-57
5.79149e-58
8.591e-59
1.1648e-59
1.45047e-60
1.66791e-61
1.77992e-62
1.77293e-63
1.65563e-64
1.45667e-65
1.21151e-66
9.5637e-68
7.20717e-69
5.20131e-70
3.62819e-71
3.19227e-72
8.24183e-72
9.08095e-71
1.00034e-69
1.08925e-68
1.18612e-67
1.31307e-66
1.50248e-65
1.7883e-64
2.19635e-63
2.71807e-62
3.28046e-61
3.74066e-60
3.92022e-59
3.68581e-58
3.03757e-57
2.1402e-56
1.25107e-55
5.83288e-55
2.05689e-54
5.14245e-54
8.64811e-54
1.14182e-53
1.30067e-53
1.28643e-53
1.05211e-53
7.44445e-54
4.8495e-54
3.01402e-54
1.76586e-54
9.77556e-55
5.10649e-55
2.59744e-55
1.30818e-55
6.49069e-56
3.18038e-56
1.5467e-56
7.506e-57
3.66472e-57
1.82964e-57
9.59699e-58
5.55574e-58
3.88256e-58
3.59445e-58
4.3207e-58
5.99178e-58
9.46241e-58
1.82552e-57
4.64238e-57
1.48201e-56
5.28168e-56
1.93449e-55
6.79545e-55
2.14836e-54
5.98046e-54
1.43499e-53
2.69009e-53
3.78776e-53
4.33901e-53
4.42307e-53
4.02602e-53
3.17156e-53
2.25197e-53
1.52568e-53
1.06223e-53
8.18948e-54
7.33828e-54
7.58563e-54
8.48411e-54
9.81924e-54
1.14822e-53
1.3391e-53
1.5406e-53
1.75088e-53
1.97938e-53
2.2006e-53
2.32408e-53
2.302e-53
2.19904e-53
1.97134e-53
1.62125e-53
1.22502e-53
8.67275e-54
5.90406e-54
4.19134e-54
3.43651e-54
3.33887e-54
3.71171e-54
4.84097e-54
2.69367e-59
7.48667e-61
1.35837e-62
2.50219e-64
7.60909e-66
5.00205e-66
1.2751e-65
2.59208e-65
3.61022e-65
3.52418e-65
2.43453e-65
1.22842e-65
4.76154e-66
1.47934e-66
3.79837e-67
8.18196e-68
1.56967e-68
1.58626e-68
2.30635e-67
3.22244e-66
3.6667e-65
3.46324e-64
2.79823e-63
1.97038e-62
1.19652e-61
6.05321e-61
2.43222e-60
7.47173e-60
1.71234e-59
2.78233e-59
3.12363e-59
2.44436e-59
1.33556e-59
5.51204e-60
1.82648e-60
5.12766e-61
1.30242e-61
3.17968e-62
7.74924e-63
1.926e-63
4.87737e-64
1.25887e-64
3.32004e-65
9.07452e-66
2.59472e-66
7.87815e-67
2.54364e-67
8.69021e-68
3.18183e-68
1.3298e-68
8.94815e-69
2.62123e-68
2.32358e-67
2.73467e-66
3.59952e-65
5.01286e-64
7.10536e-63
9.96847e-62
1.35802e-60
1.77085e-59
2.18245e-58
2.50391e-57
2.62437e-56
2.45464e-55
1.99113e-54
1.34874e-53
7.28165e-53
2.92549e-52
7.81364e-52
1.05013e-51
9.66154e-52
5.63996e-52
2.20965e-52
6.61693e-53
1.59288e-53
3.29374e-54
6.04657e-55
9.9923e-56
1.49695e-56
2.04589e-57
2.56384e-58
2.96337e-59
3.17627e-60
3.17791e-61
2.98141e-62
2.63535e-63
2.20121e-64
1.74386e-65
1.31775e-66
9.52313e-68
6.62761e-69
4.46399e-70
3.22956e-71
3.78255e-71
8.52029e-70
1.93814e-68
4.23039e-67
8.79465e-66
1.71644e-64
3.12213e-63
5.30959e-62
8.371e-61
1.211e-59
1.58753e-58
1.86238e-57
1.92752e-56
1.73034e-55
1.3195e-54
8.32233e-54
4.18642e-53
1.59779e-52
4.33516e-52
7.71741e-52
1.04515e-51
1.21402e-51
1.22771e-51
1.02624e-51
7.32681e-52
4.77762e-52
2.96563e-52
1.73611e-52
9.60849e-53
4.99684e-53
2.5246e-53
1.26208e-53
6.21015e-54
3.02127e-54
1.46019e-54
7.04326e-55
3.41031e-55
1.68748e-55
8.73426e-56
4.95344e-56
3.3435e-56
2.9634e-56
3.4466e-56
4.64596e-56
7.10627e-56
1.3106e-55
3.16832e-55
9.73213e-55
3.39256e-54
1.22616e-53
4.30962e-53
1.37263e-52
3.84687e-52
9.34306e-52
1.79601e-51
2.5841e-51
2.99576e-51
3.07429e-51
2.82791e-51
2.25024e-51
1.60481e-51
1.08615e-51
7.48505e-52
5.6717e-52
4.97541e-52
5.0581e-52
5.58601e-52
6.4151e-52
7.45097e-52
8.64173e-52
9.89484e-52
1.11977e-51
1.26023e-51
1.40007e-51
1.48235e-51
1.47025e-51
1.40826e-51
1.26664e-51
1.04498e-51
7.90483e-52
5.59598e-52
3.80264e-52
2.66819e-52
2.14543e-52
2.05068e-52
2.22885e-52
2.85521e-52
1.20985e-56
2.78899e-58
4.37613e-60
7.87879e-62
2.63742e-63
1.3904e-63
3.5238e-63
7.48184e-63
1.0963e-62
1.11097e-62
7.85758e-63
3.99869e-63
1.54571e-63
4.7338e-64
1.1895e-64
2.50094e-65
4.47488e-66
7.84362e-67
1.85108e-66
3.20447e-65
4.90534e-64
6.26934e-63
6.65265e-62
5.82294e-61
4.1691e-60
2.41355e-59
1.11202e-58
3.99741e-58
1.1017e-57
2.26628e-57
3.1126e-57
2.88368e-57
1.77875e-57
7.88943e-58
2.77249e-58
8.18406e-59
2.18159e-59
5.58112e-60
1.4145e-60
3.6079e-61
9.24876e-62
2.38841e-62
6.24573e-63
1.68258e-63
4.72061e-64
1.40164e-64
4.41977e-65
1.47553e-65
5.27285e-66
2.07289e-66
1.01224e-66
9.48007e-67
5.93692e-66
9.29174e-65
1.55654e-63
2.54952e-62
4.0352e-61
6.13759e-60
8.92563e-59
1.23356e-57
1.60669e-56
1.94826e-55
2.1613e-54
2.14264e-53
1.8426e-52
1.32514e-51
7.62691e-51
3.28399e-50
9.43446e-50
1.33418e-49
1.26921e-49
7.71209e-50
3.07623e-50
9.301e-51
2.24607e-51
4.64253e-52
8.50044e-53
1.39888e-53
2.08408e-54
2.82921e-55
3.51728e-56
4.02799e-57
4.27267e-58
4.22816e-59
3.92236e-60
3.42823e-61
2.83102e-62
2.21711e-63
1.65604e-64
1.18313e-65
8.1318e-67
5.41163e-68
3.65815e-69
1.85216e-69
3.98348e-68
9.35172e-67
2.10333e-65
4.49156e-64
9.02469e-63
1.68398e-61
2.94389e-60
4.78018e-59
7.11814e-58
9.6037e-57
1.15937e-55
1.23424e-54
1.13899e-53
8.92369e-53
5.78223e-52
2.98988e-51
1.17405e-50
3.2768e-50
5.9484e-50
8.09344e-50
9.41462e-50
9.53924e-50
7.99124e-50
5.68482e-50
3.67961e-50
2.2641e-50
1.31344e-50
7.20308e-51
3.70545e-51
1.84951e-51
9.1291e-52
4.43411e-52
2.13019e-52
1.01715e-52
4.84903e-53
2.31932e-53
1.13383e-53
5.79011e-54
3.23293e-54
2.13765e-54
1.84987e-54
2.11016e-54
2.79627e-54
4.20355e-54
7.58296e-54
1.78864e-53
5.38739e-53
1.85573e-52
6.64775e-52
2.33191e-51
7.42645e-51
2.08105e-50
5.06955e-50
9.82939e-50
1.42363e-49
1.65404e-49
1.69683e-49
1.56258e-49
1.24472e-49
8.86836e-50
5.98555e-50
4.10076e-50
3.08093e-50
2.67662e-50
2.70079e-50
2.96575e-50
3.39487e-50
3.93346e-50
4.55535e-50
5.21248e-50
5.90003e-50
6.64435e-50
7.39881e-50
7.86213e-50
7.82817e-50
7.529e-50
6.79922e-50
5.63203e-50
4.27208e-50
3.03248e-50
2.06449e-50
1.44665e-50
1.15821e-50
1.10312e-50
1.1946e-50
1.51911e-50
4.81002e-54
9.67756e-56
1.39602e-57
2.5662e-59
9.4464e-61
4.22881e-61
1.02679e-60
2.19519e-60
3.26021e-60
3.32242e-60
2.34412e-60
1.17775e-60
4.45566e-61
1.32301e-61
3.20011e-62
6.46202e-63
1.11042e-63
1.7149e-64
1.12609e-64
1.57923e-63
2.35784e-62
3.00476e-61
3.24942e-60
2.96508e-59
2.26331e-58
1.42521e-57
7.25573e-57
2.91189e-56
9.03435e-56
2.13109e-55
3.35634e-55
3.45824e-55
2.32312e-55
1.07598e-55
3.90372e-56
1.18443e-56
3.2478e-57
8.53595e-58
2.2084e-58
5.69306e-59
1.46259e-59
3.76019e-60
9.74247e-61
2.59253e-61
7.16445e-62
2.08972e-62
6.46386e-63
2.11724e-63
7.42408e-64
2.86304e-64
1.32708e-64
1.00658e-64
3.94434e-64
5.74084e-63
9.76091e-62
1.63645e-60
2.6568e-59
4.15147e-58
6.21165e-57
8.84905e-56
1.19117e-54
1.49783e-53
1.72914e-52
1.78865e-51
1.60686e-50
1.20797e-49
7.27233e-49
3.27885e-48
9.84583e-48
1.43477e-47
1.38357e-47
8.54949e-48
3.4157e-48
1.02738e-48
2.45668e-49
5.017e-50
9.06558e-51
1.47123e-51
2.15961e-52
2.88586e-53
3.52785e-54
3.96848e-55
4.13048e-56
4.0084e-57
3.64554e-58
3.1242e-59
2.53001e-60
1.94359e-61
1.42357e-62
9.98356e-64
6.73865e-65
4.40885e-66
2.86783e-67
7.70569e-68
1.4669e-66
3.5291e-65
8.13657e-64
1.78043e-62
3.68329e-61
7.07798e-60
1.27634e-58
2.13728e-57
3.27859e-56
4.55619e-55
5.66255e-54
6.2007e-53
5.87903e-52
4.72642e-51
3.13966e-50
1.66329e-49
6.68692e-49
1.90763e-48
3.50895e-48
4.78007e-48
5.55458e-48
5.62189e-48
4.70322e-48
3.32651e-48
2.13505e-48
1.30148e-48
7.47567e-49
4.05841e-49
2.06387e-49
1.01752e-49
4.95891e-50
2.37777e-50
1.12797e-50
5.32061e-51
2.50661e-51
1.18473e-51
5.72531e-52
2.88855e-52
1.59188e-52
1.036e-52
8.80472e-53
9.89815e-53
1.29435e-52
1.91941e-52
3.40247e-52
7.87017e-52
2.33406e-51
7.96814e-51
2.83728e-50
9.95244e-50
3.17244e-49
8.89882e-49
2.17416e-48
4.24026e-48
6.16502e-48
7.16516e-48
7.34052e-48
6.75474e-48
5.37511e-48
3.8204e-48
2.5691e-48
1.75068e-48
1.30598e-48
1.12593e-48
1.1292e-48
1.23375e-48
1.40757e-48
1.62654e-48
1.8802e-48
2.14888e-48
2.43117e-48
2.7379e-48
3.05276e-48
3.25124e-48
3.24561e-48
3.13046e-48
2.83444e-48
2.35444e-48
1.78874e-48
1.27287e-48
8.66324e-49
6.0696e-49
4.84971e-49
4.61086e-49
4.99123e-49
6.32578e-49
1.69461e-51
3.09199e-53
4.30355e-55
8.29688e-57
3.29669e-58
1.29131e-58
2.94122e-58
6.19547e-58
9.13943e-58
9.20984e-58
6.40092e-58
3.14591e-58
1.15582e-58
3.30597e-59
7.6542e-60
1.47573e-60
2.42262e-61
3.49299e-62
9.61413e-63
8.76934e-62
1.30757e-60
1.70167e-59
1.91273e-58
1.84309e-57
1.50533e-56
1.02386e-55
5.66119e-55
2.47222e-54
8.34392e-54
2.13459e-53
3.7163e-53
4.11457e-53
2.94003e-53
1.4002e-53
5.16267e-54
1.58674e-54
4.41693e-55
1.17793e-55
3.07687e-56
7.94532e-57
2.0325e-57
5.18114e-58
1.32745e-58
3.48809e-59
9.5008e-60
2.71754e-60
8.25845e-61
2.65725e-61
9.15193e-62
3.46704e-62
1.55278e-62
1.04178e-62
2.61134e-62
3.3007e-61
5.62248e-60
9.58751e-59
1.58853e-57
2.53839e-56
3.89085e-55
5.68944e-54
7.88273e-53
1.02403e-51
1.22627e-50
1.32004e-49
1.23568e-48
9.67534e-48
6.06573e-47
2.84658e-46
8.87098e-46
1.32037e-45
1.27964e-45
7.95811e-46
3.15732e-46
9.37603e-47
2.20497e-47
4.42349e-48
7.84778e-49
1.25011e-49
1.80008e-50
2.35778e-51
2.82253e-52
3.10634e-53
3.16006e-54
2.99605e-55
2.66135e-56
2.22815e-57
1.76309e-58
1.32411e-59
9.48844e-61
6.51401e-62
4.30742e-63
2.76468e-64
1.7521e-65
2.77452e-66
4.22896e-65
1.04981e-63
2.50513e-62
5.66783e-61
1.20739e-59
2.40763e-58
4.51527e-57
7.83336e-56
1.24466e-54
1.79049e-53
2.30108e-52
2.60186e-51
2.5427e-50
2.10297e-49
1.4348e-48
7.79612e-48
3.20949e-47
9.35316e-47
1.74062e-46
2.37223e-46
2.7529e-46
2.78207e-46
2.32272e-46
1.63297e-46
1.03961e-46
6.28214e-47
3.57467e-47
1.92182e-47
9.6653e-48
4.70991e-48
2.26788e-48
1.07422e-48
5.03483e-49
2.34708e-49
1.09307e-49
5.10729e-50
2.44091e-50
1.21751e-50
6.63006e-51
4.25606e-51
3.56162e-51
3.95404e-51
5.10952e-51
7.48343e-51
1.30529e-50
2.96475e-50
8.66743e-50
2.93511e-49
1.03976e-48
3.65019e-48
1.16525e-47
3.27295e-47
8.02062e-47
1.57233e-46
2.29217e-46
2.66226e-46
2.72202e-46
2.50062e-46
1.98542e-46
1.40643e-46
9.4165e-47
6.3815e-47
4.72807e-47
4.04713e-47
4.03472e-47
4.38526e-47
4.98259e-47
5.73726e-47
6.61294e-47
7.54022e-47
8.51543e-47
9.57708e-47
1.06764e-46
1.13768e-46
1.13677e-46
1.09777e-46
9.94873e-47
8.27375e-47
6.28618e-47
4.47523e-47
3.04519e-47
2.13141e-47
1.69725e-47
1.61179e-47
1.74405e-47
2.20328e-47
5.43073e-49
9.28839e-51
1.28236e-52
2.60904e-54
1.09699e-55
3.85733e-56
8.15801e-56
1.6705e-55
2.42051e-55
2.39039e-55
1.62659e-55
7.78928e-56
2.77027e-56
7.61214e-57
1.68321e-57
3.09084e-58
4.83375e-59
6.60739e-60
1.13304e-60
5.2921e-60
7.95409e-59
1.07004e-57
1.25888e-56
1.28237e-55
1.1157e-54
8.1241e-54
4.82216e-53
2.25951e-52
8.14427e-52
2.20168e-51
4.13735e-51
4.83822e-51
3.61765e-51
1.75313e-51
6.50301e-52
2.00479e-52
5.61462e-53
1.507e-53
3.94617e-54
1.01088e-54
2.56347e-55
6.4594e-56
1.63347e-56
4.23531e-57
1.13702e-57
3.21021e-58
9.59147e-59
3.03256e-59
1.02608e-59
3.81959e-60
1.66627e-60
1.03258e-60
1.74165e-60
1.74313e-59
2.93051e-58
5.06738e-57
8.55677e-56
1.39701e-54
2.19186e-53
3.2865e-52
4.68122e-51
6.27705e-50
7.7965e-49
8.74166e-48
8.53893e-47
6.97028e-46
4.55091e-45
2.22123e-44
7.17625e-44
1.08646e-43
1.05369e-43
6.55974e-44
2.57116e-44
7.50598e-45
1.72933e-45
3.39791e-46
5.90346e-47
9.20923e-48
1.29802e-48
1.66307e-49
1.94561e-50
2.0907e-51
2.07464e-52
1.91809e-53
1.66096e-54
1.35607e-55
1.0465e-56
7.6696e-58
5.36832e-59
3.6023e-60
2.33059e-61
1.46606e-62
9.09839e-64
9.65494e-65
1.01807e-63
2.61963e-62
6.49402e-61
1.52859e-59
3.38649e-58
7.09531e-57
1.38674e-55
2.5065e-54
4.1463e-53
6.2026e-52
8.27654e-51
9.69725e-50
9.79674e-49
8.35498e-48
5.86527e-47
3.27283e-46
1.38061e-45
4.11128e-45
7.73625e-45
1.05452e-44
1.22208e-44
1.23336e-44
1.02758e-44
7.18231e-45
4.53815e-45
2.72069e-45
1.53473e-45
8.17629e-46
4.06885e-46
1.96116e-46
9.33609e-47
4.37096e-47
2.025e-47
9.33185e-48
4.29685e-48
1.98496e-48
9.38253e-49
4.62739e-49
2.49079e-49
1.57856e-49
1.30228e-49
1.42889e-49
1.82527e-49
2.64082e-49
4.53356e-49
1.01144e-48
2.91519e-48
9.79255e-48
3.45122e-47
1.21287e-46
3.87829e-46
1.09085e-45
2.68123e-45
5.28114e-45
7.71386e-45
8.94762e-45
9.12711e-45
8.36606e-45
6.62238e-45
4.67257e-45
3.11321e-45
2.09784e-45
1.54383e-45
1.31228e-45
1.30037e-45
1.4056e-45
1.58933e-45
1.82206e-45
2.09217e-45
2.37743e-45
2.67694e-45
3.00305e-45
3.34272e-45
3.55888e-45
3.55422e-45
3.4317e-45
3.10826e-45
2.58442e-45
1.96104e-45
1.39499e-45
9.47887e-46
6.6193e-46
5.25618e-46
4.98009e-46
5.38341e-46
6.77328e-46
1.64025e-46
2.69147e-48
3.73464e-50
7.97095e-52
3.46542e-53
1.11745e-53
2.18234e-53
4.29908e-53
6.07259e-53
5.84441e-53
3.8815e-53
1.80806e-53
6.21576e-54
1.63868e-54
3.45701e-55
6.03855e-56
8.98291e-57
1.16834e-57
1.59214e-58
3.39178e-58
5.09656e-57
7.12301e-56
8.78846e-55
9.4532e-54
8.73138e-53
6.77332e-52
4.29148e-51
2.14227e-50
8.16494e-50
2.30282e-49
4.59818e-49
5.62523e-49
4.35087e-49
2.12938e-49
7.85706e-50
2.41404e-50
6.76177e-51
1.81639e-51
4.74477e-52
1.20995e-52
3.03226e-53
7.53396e-54
1.87737e-54
4.79967e-55
1.26965e-55
3.52836e-56
1.03686e-56
3.22249e-57
1.07151e-57
3.92119e-58
1.67322e-58
9.81453e-59
1.21709e-58
8.70196e-58
1.40701e-56
2.45837e-55
4.22741e-54
7.05185e-53
1.13278e-51
1.74145e-50
2.54856e-49
3.52569e-48
4.54449e-47
5.31781e-46
5.43655e-45
4.6383e-44
3.15957e-43
1.60579e-42
5.38517e-42
8.2756e-42
8.01267e-42
4.97828e-42
1.9211e-42
5.49853e-43
1.23814e-43
2.37907e-44
4.04269e-45
6.16906e-46
8.50221e-47
1.06449e-47
1.21573e-48
1.27419e-49
1.23196e-50
1.1096e-51
9.3569e-53
7.44248e-54
5.5951e-55
3.99735e-56
2.73046e-57
1.78911e-58
1.13157e-59
6.97286e-61
4.24796e-62
3.47205e-63
2.15496e-62
5.76113e-61
1.49161e-59
3.67874e-58
8.59048e-57
1.88575e-55
3.86127e-54
7.30627e-53
1.26375e-51
1.97349e-50
2.74329e-49
3.34e-48
3.49618e-47
3.07984e-46
2.2274e-45
1.27748e-44
5.52435e-44
1.68155e-43
3.19811e-43
4.35898e-43
5.04462e-43
5.0856e-43
4.22896e-43
2.93952e-43
1.84454e-43
1.09803e-43
6.14504e-44
3.24646e-44
1.59953e-44
7.63118e-45
3.59367e-45
1.66382e-45
7.62196e-46
3.47287e-46
1.58102e-46
7.22044e-47
3.37502e-47
1.64561e-47
8.75514e-48
5.47936e-48
4.45831e-48
4.83626e-48
6.10603e-48
8.72506e-48
1.47403e-47
3.22979e-47
9.17527e-47
3.05633e-46
1.07122e-45
3.76841e-45
1.20695e-44
3.39923e-44
8.37917e-44
1.65775e-43
2.42473e-43
2.8076e-43
2.8566e-43
2.61159e-43
2.05994e-43
1.44704e-43
9.59095e-44
6.42527e-44
4.69684e-44
3.96482e-44
3.90477e-44
4.19671e-44
4.71929e-44
5.38293e-44
6.15246e-44
6.96132e-44
7.80734e-44
8.72719e-44
9.68904e-44
1.02939e-43
1.02627e-43
9.89546e-44
8.94632e-44
7.42821e-44
5.6225e-44
3.99204e-44
2.70616e-44
1.88402e-44
1.49082e-44
1.40864e-44
1.5201e-44
1.90287e-44
4.83074e-44
7.71521e-46
1.07802e-47
2.37296e-49
1.04035e-50
3.13996e-51
5.64594e-51
1.06027e-50
1.4514e-50
1.35594e-50
8.77353e-51
3.97239e-51
1.31889e-51
3.33323e-52
6.70407e-53
1.11307e-53
1.57343e-54
1.94809e-55
2.34879e-56
2.29213e-56
3.34017e-55
4.86368e-54
6.30444e-53
7.1617e-52
7.01731e-51
5.79094e-50
3.90927e-49
2.07237e-48
8.30854e-48
2.42826e-47
5.06824e-47
6.44894e-47
5.11566e-47
2.51392e-47
9.26418e-48
2.82424e-48
7.87915e-49
2.10992e-49
5.47885e-50
1.38188e-50
3.41496e-51
8.35448e-52
2.04958e-52
5.16572e-53
1.34664e-53
3.68504e-54
1.06579e-54
3.25769e-55
1.06495e-55
3.83318e-56
1.60394e-56
9.02675e-57
9.07931e-57
4.29526e-56
6.38177e-55
1.11904e-53
1.95618e-52
3.33296e-51
5.48342e-50
8.64355e-49
1.29858e-47
1.85132e-46
2.47623e-45
3.02989e-44
3.25379e-43
2.91093e-42
2.07411e-41
1.09977e-40
3.83739e-40
5.97933e-40
5.77195e-40
3.57255e-40
1.35392e-40
3.79314e-41
8.33589e-42
1.56547e-42
2.60085e-43
3.88118e-44
5.22868e-45
6.39496e-46
7.12707e-47
7.28244e-48
6.85659e-49
6.01361e-50
4.9354e-51
3.82257e-52
2.79727e-53
1.94681e-54
1.29695e-55
8.29135e-57
5.12315e-58
3.0917e-59
1.85008e-60
1.30552e-61
4.16924e-61
1.15738e-59
3.15329e-58
8.18923e-57
2.01376e-55
4.65505e-54
1.00313e-52
1.99539e-51
3.6223e-50
5.92424e-49
8.60239e-48
1.09078e-46
1.18506e-45
1.07954e-44
8.04888e-44
4.74662e-43
2.10439e-42
6.54821e-42
1.25813e-41
1.7141e-41
1.98063e-41
1.9949e-41
1.65597e-41
1.14503e-41
7.13986e-42
4.22382e-42
2.34701e-42
1.23053e-42
6.00649e-43
2.83864e-43
1.32314e-43
6.06113e-44
2.74651e-44
1.23755e-44
5.57021e-45
2.51454e-45
1.162e-45
5.59985e-46
2.94414e-46
1.81947e-46
1.46027e-46
1.56619e-46
1.95376e-46
2.75608e-46
4.58077e-46
9.85471e-46
2.75822e-45
9.10647e-45
3.1722e-44
1.11683e-43
3.58223e-43
1.01001e-42
2.49635e-42
4.95925e-42
7.26047e-42
8.38904e-42
8.51241e-42
7.75974e-42
6.09644e-42
4.26228e-42
2.80951e-42
1.87101e-42
1.35858e-42
1.13899e-42
1.11473e-42
1.19105e-42
1.33126e-42
1.50986e-42
1.71661e-42
1.93248e-42
2.15698e-42
2.40043e-42
2.65559e-42
2.81259e-42
2.79638e-42
2.6899e-42
2.42477e-42
2.0085e-42
1.51489e-42
1.07256e-42
7.24769e-43
5.02693e-43
3.96197e-43
3.73148e-43
4.01678e-43
4.99859e-43
1.42306e-41
2.22754e-43
3.10864e-45
6.88457e-47
2.97504e-48
8.59362e-49
1.42065e-48
2.52202e-48
3.3279e-48
3.00833e-48
1.89417e-48
8.33106e-49
2.6691e-49
6.46148e-50
1.23819e-50
1.95263e-51
2.62067e-52
3.0876e-53
3.43172e-54
1.65852e-54
2.19669e-53
3.3402e-52
4.56252e-51
5.48419e-50
5.70952e-49
5.01669e-48
3.58469e-47
2.01789e-46
8.49415e-46
2.56461e-45
5.61317e-45
7.39566e-45
5.97586e-45
2.93457e-45
1.07128e-45
3.22949e-46
8.95054e-47
2.38325e-47
6.13828e-48
1.52876e-48
3.72148e-49
8.95862e-50
2.16295e-50
5.37536e-51
1.38148e-51
3.72452e-52
1.06108e-52
3.19172e-53
1.02633e-53
3.63556e-54
1.49427e-54
8.12848e-55
7.18137e-55
2.21372e-54
2.81397e-53
4.88902e-52
8.65414e-51
1.50365e-49
2.53362e-48
4.09554e-47
6.30826e-46
9.24558e-45
1.28126e-43
1.63666e-42
1.84858e-41
1.73821e-40
1.29932e-39
7.21339e-39
2.63282e-38
4.16602e-38
4.00603e-38
2.46741e-38
9.16508e-39
2.51082e-39
5.38054e-40
9.87653e-41
1.60463e-41
2.34218e-42
3.08479e-43
3.68599e-44
4.00877e-45
3.99333e-46
3.6606e-47
3.12641e-48
2.49663e-49
1.88287e-50
1.34056e-51
9.08642e-53
5.89121e-54
3.67317e-55
2.2171e-56
1.31087e-57
7.72209e-59
5.06435e-60
7.63595e-60
2.16552e-58
6.2347e-57
1.713e-55
4.45655e-54
1.08947e-52
2.48077e-51
5.20711e-50
9.95366e-49
1.70969e-47
2.59916e-46
3.43842e-45
3.8819e-44
3.65908e-43
2.81311e-42
1.70571e-41
7.75038e-41
2.46498e-40
4.78142e-40
6.50815e-40
7.50548e-40
7.55298e-40
6.25913e-40
4.30606e-40
2.66957e-40
1.57065e-40
8.67207e-41
4.51571e-41
2.18528e-41
1.02386e-41
4.72665e-42
2.14353e-42
9.61179e-43
4.2839e-43
1.90642e-43
8.50589e-44
3.88502e-44
1.84997e-44
9.60912e-45
5.86299e-45
4.64113e-45
4.92102e-45
6.06305e-45
8.4394e-45
1.37936e-44
2.91243e-44
8.02745e-44
2.62538e-43
9.08242e-43
3.19917e-42
1.02736e-41
2.89906e-41
7.18248e-41
1.43231e-40
2.09801e-40
2.4182e-40
2.4469e-40
2.22349e-40
1.73937e-40
1.20998e-40
7.93004e-41
5.2492e-41
3.78618e-41
3.15256e-41
3.06577e-41
3.25615e-41
3.61557e-41
4.07525e-41
4.60613e-41
5.15584e-41
5.72326e-41
6.33634e-41
6.97973e-41
7.36312e-41
7.29425e-41
6.99359e-41
6.27995e-41
5.18483e-41
3.8932e-41
2.74641e-41
1.84864e-41
1.27657e-41
1.00168e-41
9.39969e-42
1.00874e-41
1.24699e-41
4.23734e-39
6.50524e-41
8.93394e-43
1.93875e-44
8.12398e-46
2.30415e-46
3.49905e-46
5.82602e-46
7.37304e-46
6.43094e-46
3.93635e-46
1.68063e-46
5.19055e-47
1.20253e-47
2.19388e-48
3.28392e-49
4.18144e-50
4.68407e-51
4.89763e-52
1.32241e-52
1.43382e-51
2.28019e-50
3.26433e-49
4.16988e-48
4.63232e-47
4.35691e-46
3.34591e-45
2.00177e-44
8.84107e-44
2.74991e-43
6.24835e-43
8.49789e-43
6.96049e-43
3.40398e-43
1.2277e-43
3.65233e-44
1.0042e-44
2.65484e-45
6.77357e-46
1.66442e-46
3.99031e-47
9.45254e-48
2.24647e-48
5.50851e-49
1.39665e-49
3.71259e-50
1.04292e-50
3.08965e-51
9.77903e-52
3.41115e-52
1.37828e-52
7.29122e-53
5.94481e-53
1.25974e-52
1.25212e-51
2.10775e-50
3.74952e-49
6.61492e-48
1.14002e-46
1.88978e-45
2.97877e-44
4.45657e-43
6.3416e-42
8.43318e-41
1.00473e-39
9.96161e-39
7.83364e-38
4.56399e-37
1.74905e-36
2.81435e-36
2.70816e-36
1.65995e-36
6.03295e-37
1.61526e-37
3.37388e-38
6.05711e-39
9.63011e-40
1.37586e-40
1.77255e-41
2.07027e-42
2.19805e-43
2.13539e-44
1.90612e-45
1.58603e-46
1.23248e-47
9.03157e-49
6.25542e-50
4.13085e-51
2.61099e-52
1.58892e-53
9.38258e-55
5.43694e-56
3.15672e-57
2.00402e-58
1.39654e-58
3.84744e-57
1.17332e-55
3.42399e-54
9.46162e-53
2.45539e-51
5.92928e-50
1.31781e-48
2.66052e-47
4.81111e-46
7.67153e-45
1.06019e-43
1.24477e-42
1.21428e-41
9.62373e-41
5.99709e-40
2.79082e-39
9.06801e-39
1.77429e-38
2.41103e-38
2.77334e-38
2.78808e-38
2.30613e-38
1.57858e-38
9.73359e-39
5.69912e-39
3.12881e-39
1.61933e-39
7.77447e-40
3.61422e-40
1.6536e-40
7.42878e-41
3.29806e-41
1.4544e-41
6.40011e-42
2.82218e-42
1.27378e-42
5.9918e-43
3.07403e-43
1.85142e-43
1.44532e-43
1.51461e-43
1.84233e-43
2.52915e-43
4.06305e-43
8.41586e-43
2.28322e-42
7.39246e-42
2.53757e-41
8.93906e-41
2.87311e-40
8.11152e-40
2.01376e-39
4.02967e-39
5.90322e-39
6.78553e-39
6.84632e-39
6.19997e-39
4.82776e-39
3.34073e-39
2.17652e-39
1.43189e-39
1.02593e-39
8.48426e-40
8.19738e-40
8.65345e-40
9.54118e-40
1.06827e-39
1.19973e-39
1.33451e-39
1.47237e-39
1.62065e-39
1.77635e-39
1.86518e-39
1.83969e-39
1.7567e-39
1.5701e-39
1.29105e-39
9.64315e-40
6.7729e-40
4.53828e-40
3.11826e-40
2.43496e-40
2.27572e-40
2.43368e-40
2.98685e-40
1.26679e-36
1.90215e-38
2.53027e-40
5.26242e-42
2.12411e-43
6.08952e-44
8.48617e-44
1.31565e-43
1.58922e-43
1.33404e-43
7.93095e-44
3.28434e-44
9.76776e-45
2.16362e-45
3.75518e-46
5.33228e-47
6.43819e-48
6.85364e-49
6.81239e-50
1.19519e-50
9.14665e-50
1.53309e-48
2.3458e-47
3.19813e-46
3.80597e-45
3.8428e-44
3.16534e-43
2.01874e-42
9.36684e-42
2.99775e-41
7.05261e-41
9.88002e-41
8.17595e-41
3.97278e-41
1.41316e-41
4.14428e-42
1.12994e-42
2.96424e-43
7.48856e-44
1.81532e-44
4.28837e-45
1.00038e-45
2.34205e-46
5.67253e-47
1.42034e-47
3.72639e-48
1.03352e-48
3.01846e-49
9.41106e-50
3.23506e-50
1.28565e-50
6.6416e-51
5.13619e-51
8.21435e-51
5.90313e-50
9.29965e-49
1.64238e-47
2.91621e-46
5.1186e-45
8.69722e-44
1.39384e-42
2.10594e-41
3.04859e-40
4.1929e-39
5.27661e-38
5.52892e-37
4.58324e-36
2.80655e-35
1.13335e-34
1.85443e-34
1.78665e-34
1.09582e-34
3.89454e-35
1.01884e-35
2.07408e-36
3.64594e-37
5.67884e-38
7.95047e-39
1.00289e-39
1.14595e-40
1.18869e-41
1.1271e-42
9.80187e-44
7.93106e-45
5.99946e-46
4.28375e-47
2.89692e-48
1.86527e-49
1.14966e-50
6.82749e-52
3.94068e-53
2.23902e-54
1.28367e-55
8.08177e-57
2.80074e-57
6.6241e-56
2.13508e-54
6.6362e-53
1.95413e-51
5.40007e-50
1.38709e-48
3.27466e-47
7.00095e-46
1.33558e-44
2.23676e-43
3.23202e-42
3.94775e-41
3.98436e-40
3.25303e-39
2.08095e-38
9.91015e-38
3.28782e-37
6.48202e-37
8.78471e-37
1.00718e-36
1.01122e-36
8.34317e-37
5.68184e-37
3.48496e-37
2.03152e-37
1.10954e-37
5.7113e-38
2.72203e-38
1.25664e-38
5.702e-39
2.53939e-39
1.11685e-39
4.87523e-40
2.12186e-40
9.2477e-41
4.12409e-41
1.91599e-41
9.70695e-42
5.76978e-42