/*--------------------------------*- C++ -*----------------------------------*\
| =========                 |                                                 |
| \\      /  F ield         | OpenFOAM: The Open Source CFD Toolbox           |
|  \\    /   O peration     | Version:  2.3.0                                 |
|   \\  /    A nd           | Web:      www.OpenFOAM.org                      |
|    \\/     M anipulation  |                                                 |
\*---------------------------------------------------------------------------*/
FoamFile
{
    version     2.0;
    format      ascii;
    class       volScalarField;
    location    "0.08";
    object      CO2;
}
// * * * * * * * * * * * * * * * * * * * * * * * * * * * * * * * * * * * * * //

dimensions      [0 0 0 0 0 0 0];

internalField   nonuniform List<scalar> 
12225
(
0.139886
0.147612
0.149167
0.149587
0.149903
0.150081
0.150157
0.150263
0.150346
0.1504
0.150437
0.150484
0.150528
0.150562
0.150584
0.150614
0.150619
0.150455
0.138217
0.147928
0.149441
0.149861
0.150099
0.150272
0.150323
0.150375
0.150438
0.150483
0.15052
0.150549
0.15057
0.150599
0.150621
0.150644
0.150665
0.150638
0.0814629
0.144442
0.148798
0.149745
0.150141
0.150393
0.150486
0.150522
0.150566
0.150603
0.150627
0.150649
0.15067
0.150685
0.150695
0.150708
0.150727
0.150744
0.0511916
0.111192
0.145731
0.149059
0.1499
0.150325
0.150561
0.150622
0.150665
0.150695
0.150711
0.150727
0.150742
0.150758
0.150769
0.150777
0.150787
0.150802
0.041085
0.0755127
0.102129
0.145636
0.14931
0.150174
0.150581
0.150714
0.150766
0.15077
0.150767
0.15077
0.150782
0.150797
0.150811
0.15082
0.150826
0.150838
0.0380338
0.0680693
0.0859184
0.112786
0.147207
0.149955
0.150631
0.150783
0.150834
0.150831
0.150804
0.150791
0.150793
0.150807
0.150826
0.150837
0.150844
0.150856
0.0381007
0.0669413
0.085867
0.0993711
0.144327
0.14921
0.150458
0.150705
0.150788
0.150795
0.150783
0.150775
0.15078
0.1508
0.150821
0.150835
0.150844
0.150859
0.0376625
0.06663
0.08547
0.0949838
0.121929
0.147905
0.150061
0.150519
0.150631
0.150678
0.150708
0.15073
0.150753
0.150783
0.150808
0.150822
0.150835
0.150857
0.0372618
0.0656726
0.0828011
0.0921
0.109612
0.146822
0.149673
0.150211
0.150421
0.15057
0.150633
0.150689
0.150725
0.150764
0.150792
0.150807
0.150831
0.150855
0.0368925
0.0637103
0.0782807
0.0905551
0.10455
0.144295
0.149033
0.149803
0.150189
0.150432
0.150563
0.150645
0.150704
0.150748
0.15077
0.150801
0.15083
0.15085
0.0353631
0.0603758
0.0765185
0.0857408
0.105586
0.120738
0.146694
0.14951
0.150105
0.150366
0.150518
0.150613
0.150678
0.150713
0.150746
0.150786
0.150833
0.150858
0.0351131
0.0571468
0.0731912
0.0848566
0.0986051
0.107487
0.14481
0.149212
0.150023
0.150322
0.15049
0.150583
0.150622
0.150677
0.150739
0.150781
0.150819
0.150848
0.0341821
0.0543714
0.0692597
0.0818501
0.0931286
0.101625
0.128928
0.14779
0.149692
0.150181
0.150408
0.150502
0.150579
0.150663
0.150724
0.15077
0.150807
0.150839
0.0350109
0.0534597
0.0678883
0.0792782
0.0885337
0.0986644
0.111059
0.145595
0.14932
0.149995
0.150272
0.15049
0.150595
0.15066
0.150712
0.15076
0.1508
0.150833
0.0380007
0.0552732
0.07016
0.0764673
0.0864414
0.0930982
0.0995577
0.138515
0.148589
0.150011
0.150323
0.150444
0.15059
0.150674
0.150704
0.150739
0.150787
0.15083
0.0394377
0.057325
0.072802
0.0787436
0.0842429
0.090876
0.0979769
0.133665
0.148314
0.150071
0.150382
0.150525
0.150648
0.150728
0.15078
0.150818
0.150843
0.150861
0.0392362
0.0572829
0.0699717
0.0770931
0.0823317
0.0887246
0.095844
0.127489
0.148391
0.150604
0.150964
0.151062
0.151064
0.151046
0.151036
0.151034
0.151037
0.151039
0.0389859
0.0552361
0.0694954
0.0775998
0.0817031
0.0914621
0.0981793
0.123287
0.14748
0.149851
0.150469
0.150776
0.151002
0.151181
0.151311
0.151385
0.151406
0.151412
0.037775
0.0595742
0.0711301
0.0803279
0.0867327
0.0960995
0.101957
0.125053
0.147381
0.149824
0.150483
0.150783
0.150952
0.15107
0.15116
0.15121
0.151225
0.151236
0.0359925
0.0550422
0.0717971
0.0817737
0.0904449
0.100453
0.107016
0.142865
0.149162
0.150519
0.151054
0.151319
0.151388
0.151403
0.151395
0.151382
0.151363
0.151342
0.033493
0.0532654
0.0710823
0.0826475
0.0935984
0.105293
0.11317
0.145532
0.149821
0.150834
0.151263
0.151364
0.151385
0.151377
0.151341
0.151274
0.151226
0.151197
0.0326791
0.0524279
0.0719805
0.086067
0.0996041
0.111707
0.122628
0.147413
0.150184
0.15096
0.151194
0.151246
0.151253
0.15124
0.151192
0.151141
0.151112
0.151099
0.0341148
0.0510943
0.0738173
0.0886775
0.106241
0.117047
0.146265
0.149498
0.150445
0.150856
0.151053
0.151111
0.15114
0.151156
0.151161
0.151165
0.151175
0.151182
0.0352706
0.0513454
0.0741269
0.0893098
0.108344
0.141399
0.148523
0.149844
0.150467
0.150806
0.151035
0.151197
0.151248
0.151299
0.151323
0.151345
0.151368
0.151375
0.0363228
0.0531428
0.0753129
0.0909477
0.108952
0.146188
0.149395
0.150154
0.150609
0.150931
0.151236
0.151336
0.151417
0.151487
0.151521
0.151531
0.151535
0.151534
0.0373582
0.056592
0.0794793
0.0934737
0.144299
0.148999
0.150014
0.150493
0.150793
0.151052
0.151275
0.151422
0.151514
0.151548
0.151556
0.151556
0.151546
0.151523
0.0397004
0.062729
0.093905
0.144397
0.148984
0.149929
0.150269
0.150542
0.150837
0.151082
0.151252
0.151346
0.151376
0.151381
0.151377
0.151359
0.151331
0.151308
0.0485397
0.0964328
0.144817
0.148885
0.149808
0.150204
0.150433
0.150592
0.150794
0.150951
0.151034
0.151054
0.151057
0.151055
0.151044
0.151034
0.151032
0.151033
0.0797597
0.144397
0.148762
0.14969
0.150104
0.150303
0.150426
0.150538
0.150657
0.150731
0.150764
0.150775
0.150784
0.150795
0.150804
0.150815
0.150827
0.150838
0.13905
0.1478
0.149408
0.149793
0.150016
0.150173
0.150295
0.150428
0.150512
0.150561
0.150592
0.150634
0.150654
0.150676
0.150691
0.150709
0.150731
0.150747
0.0427557
0.0436944
0.0453557
0.0475813
0.0502171
0.0530723
0.0562584
0.0599364
0.0636675
0.067753
0.0719634
0.0763077
0.0810944
0.0858783
0.0905306
0.094979
0.0991591
0.103023
0.106498
0.109629
0.112311
0.114569
0.116495
0.11811
0.119429
0.120631
0.121672
0.122561
0.123359
0.124065
0.124721
0.125321
0.125839
0.126302
0.126776
0.127216
0.127632
0.128031
0.128405
0.128755
0.129082
0.129361
0.129632
0.129923
0.130181
0.130426
0.130661
0.130891
0.131106
0.131307
0.131495
0.131676
0.131853
0.132022
0.132182
0.132334
0.132477
0.132614
0.132756
0.132892
0.133013
0.133138
0.133261
0.13338
0.133492
0.133592
0.133699
0.13381
0.133913
0.134013
0.134114
0.13421
0.134304
0.134396
0.134486
0.134574
0.134661
0.134748
0.134834
0.134918
0.134999
0.13508
0.135159
0.135237
0.135314
0.135388
0.13546
0.135531
0.135602
0.13567
0.135743
0.135813
0.135884
0.13595
0.136016
0.136082
0.136147
0.136211
0.136274
0.136334
0.136394
0.136457
0.136514
0.136576
0.136632
0.136689
0.136748
0.136811
0.136872
0.136926
0.136982
0.13704
0.137091
0.137147
0.137201
0.137257
0.13731
0.137363
0.137416
0.137469
0.137521
0.137572
0.137623
0.137674
0.137724
0.137772
0.137823
0.137875
0.137925
0.137976
0.138025
0.138074
0.138119
0.138168
0.138217
0.138264
0.138311
0.138359
0.138407
0.138454
0.138501
0.138549
0.138597
0.138647
0.138696
0.138744
0.138792
0.138843
0.138895
0.138944
0.138996
0.139045
0.139096
0.139146
0.139194
0.139247
0.139296
0.139348
0.139396
0.139444
0.139494
0.139545
0.139597
0.139647
0.139695
0.139744
0.139791
0.139838
0.139881
0.139925
0.139968
0.140009
0.140049
0.140083
0.140115
0.140145
0.140171
0.140192
0.14021
0.140207
0.0476347
0.048854
0.0510045
0.0536628
0.0565916
0.059646
0.0629284
0.0665999
0.0703293
0.074339
0.0784901
0.0827655
0.0871225
0.0915903
0.0959682
0.10005
0.103792
0.107216
0.110262
0.112959
0.115257
0.117197
0.118836
0.120204
0.121343
0.122327
0.123221
0.123999
0.124685
0.125282
0.125843
0.126358
0.126824
0.127252
0.127659
0.128044
0.128409
0.128758
0.129084
0.129382
0.129654
0.129908
0.130163
0.130415
0.13065
0.130867
0.131059
0.131241
0.131439
0.131615
0.131787
0.131952
0.132108
0.132257
0.132399
0.132534
0.132664
0.132791
0.132918
0.133038
0.133152
0.133267
0.133379
0.133489
0.133592
0.133688
0.133788
0.133891
0.133991
0.134082
0.134182
0.134274
0.134363
0.134451
0.134538
0.134624
0.134709
0.134794
0.134878
0.13496
0.135041
0.135121
0.1352
0.135278
0.135354
0.135428
0.135501
0.135572
0.135644
0.135716
0.135787
0.135859
0.135928
0.136002
0.13607
0.136137
0.136204
0.13627
0.136335
0.136399
0.136462
0.136525
0.136587
0.136649
0.13671
0.136771
0.136833
0.136896
0.136958
0.137017
0.137074
0.137133
0.137189
0.137246
0.137301
0.13736
0.137415
0.13747
0.137524
0.137578
0.137631
0.137684
0.137736
0.137788
0.137838
0.137888
0.137939
0.137991
0.138041
0.138092
0.138141
0.138189
0.138235
0.138282
0.138332
0.138381
0.138428
0.138476
0.138524
0.138572
0.13862
0.138668
0.138717
0.138766
0.138816
0.138865
0.138913
0.138962
0.139012
0.139061
0.139111
0.13916
0.13921
0.13926
0.139308
0.13936
0.139409
0.139459
0.139508
0.139557
0.139607
0.139658
0.139711
0.139763
0.139814
0.139867
0.139917
0.139968
0.140017
0.140067
0.140116
0.140165
0.140213
0.140255
0.140294
0.140332
0.140367
0.140393
0.140419
0.140429
0.0549889
0.0564832
0.0589244
0.0617221
0.0646327
0.0676181
0.0707541
0.0741905
0.0777226
0.0814683
0.0853269
0.0892623
0.0932024
0.0971282
0.100983
0.104567
0.107827
0.110738
0.11337
0.115654
0.117606
0.119256
0.120643
0.121805
0.122781
0.123621
0.12438
0.125055
0.12565
0.126177
0.126653
0.127109
0.127521
0.127902
0.12826
0.128599
0.128919
0.12922
0.129501
0.129762
0.130007
0.13024
0.130466
0.130685
0.130892
0.131084
0.131258
0.131424
0.131598
0.131757
0.131905
0.132061
0.132203
0.132339
0.132469
0.132594
0.132715
0.132834
0.132951
0.133064
0.133173
0.133282
0.133389
0.133493
0.133592
0.133688
0.133784
0.133883
0.133981
0.13407
0.134169
0.13426
0.134348
0.134436
0.134522
0.134608
0.134694
0.134779
0.134863
0.134946
0.135028
0.135109
0.135189
0.135268
0.135345
0.135421
0.135495
0.135569
0.135642
0.135716
0.13579
0.135863
0.135935
0.136011
0.136083
0.136153
0.136222
0.136291
0.136359
0.136427
0.136493
0.136559
0.136625
0.13669
0.136755
0.13682
0.136885
0.136951
0.137015
0.137078
0.137139
0.137201
0.13726
0.137319
0.137377
0.137438
0.137496
0.137553
0.13761
0.137665
0.13772
0.137775
0.137828
0.137881
0.137933
0.137984
0.138036
0.138087
0.138138
0.138189
0.138238
0.138287
0.138333
0.138379
0.13843
0.138478
0.138526
0.138574
0.138622
0.13867
0.138719
0.138768
0.138817
0.138867
0.138917
0.138966
0.139015
0.139064
0.139114
0.139163
0.139214
0.139263
0.139312
0.139362
0.139411
0.139461
0.13951
0.13956
0.139607
0.139658
0.139708
0.139759
0.139811
0.139864
0.139917
0.139971
0.140024
0.140078
0.14013
0.140184
0.140239
0.140294
0.140347
0.140397
0.140441
0.140487
0.140528
0.14056
0.140592
0.140616
0.0623894
0.0639858
0.0664538
0.0691371
0.0718465
0.0746322
0.0775328
0.0806888
0.083962
0.0873986
0.0909185
0.0944759
0.0979974
0.101446
0.104795
0.107922
0.110764
0.113282
0.115565
0.117537
0.119221
0.120648
0.121851
0.122865
0.123724
0.124467
0.125132
0.12573
0.12626
0.126735
0.127154
0.127564
0.127936
0.128281
0.128603
0.128908
0.129194
0.129463
0.129715
0.129952
0.130176
0.13039
0.130596
0.130793
0.130981
0.131157
0.13132
0.131475
0.131631
0.13178
0.13192
0.132061
0.132199
0.132326
0.13245
0.13257
0.132686
0.132801
0.132913
0.133022
0.133129
0.133235
0.13334
0.133443
0.133542
0.133638
0.133734
0.133832
0.13393
0.134019
0.134119
0.134211
0.1343
0.134389
0.134477
0.134564
0.134651
0.134738
0.134823
0.134908
0.134992
0.135075
0.135157
0.135238
0.135317
0.135395
0.135472
0.135548
0.135624
0.1357
0.135776
0.135851
0.135926
0.136003
0.136079
0.136152
0.136224
0.136296
0.136367
0.136437
0.136507
0.136577
0.136646
0.136714
0.136783
0.136852
0.136921
0.13699
0.137058
0.137124
0.13719
0.137255
0.137318
0.137381
0.137442
0.137506
0.137568
0.137627
0.137686
0.137745
0.137802
0.137859
0.137914
0.137969
0.138022
0.138075
0.138127
0.138179
0.138231
0.138281
0.138331
0.13838
0.138427
0.138473
0.138523
0.138572
0.13862
0.138667
0.138716
0.138764
0.138813
0.138862
0.138911
0.138962
0.139012
0.139062
0.139112
0.139162
0.139212
0.139262
0.139313
0.139362
0.139413
0.139463
0.139512
0.139561
0.13961
0.139659
0.139706
0.139756
0.139806
0.139857
0.139908
0.139961
0.140014
0.140069
0.140123
0.140179
0.140232
0.140289
0.140348
0.140407
0.140464
0.140519
0.140571
0.140623
0.140667
0.140706
0.140742
0.140777
0.06874
0.0703471
0.0727587
0.0752988
0.0778183
0.0804163
0.0831118
0.0860224
0.0890438
0.0921952
0.0953949
0.0985995
0.101743
0.104789
0.107719
0.110463
0.112959
0.115174
0.117152
0.118889
0.120365
0.12162
0.122684
0.123587
0.124357
0.125027
0.125625
0.126164
0.126644
0.127078
0.12746
0.12783
0.128173
0.12849
0.128785
0.129064
0.129326
0.129573
0.129805
0.130025
0.130233
0.130433
0.130623
0.130807
0.130982
0.131147
0.131303
0.131451
0.131596
0.131737
0.131873
0.132005
0.132139
0.132263
0.132383
0.1325
0.132614
0.132726
0.132837
0.132945
0.133052
0.133158
0.133262
0.133365
0.133465
0.133562
0.13366
0.133759
0.133858
0.133949
0.134051
0.134145
0.134236
0.134327
0.134417
0.134507
0.134597
0.134685
0.134773
0.13486
0.134947
0.135032
0.135116
0.1352
0.135282
0.135362
0.135442
0.13552
0.135598
0.135677
0.135755
0.135833
0.135911
0.135989
0.136068
0.136144
0.136219
0.136293
0.136367
0.136441
0.136514
0.136587
0.136659
0.136731
0.136804
0.136876
0.136949
0.137022
0.137094
0.137164
0.137234
0.137303
0.137371
0.137438
0.137503
0.137572
0.137637
0.137701
0.137763
0.137825
0.137885
0.137945
0.138003
0.13806
0.138115
0.13817
0.138224
0.138277
0.138329
0.138381
0.138431
0.13848
0.138527
0.138574
0.138623
0.138671
0.138718
0.138765
0.138813
0.138861
0.13891
0.138959
0.139009
0.139059
0.13911
0.139161
0.139212
0.139263
0.139314
0.139365
0.139416
0.139466
0.139518
0.139568
0.139618
0.139667
0.139716
0.139764
0.13981
0.13986
0.13991
0.139959
0.14001
0.140062
0.140115
0.140169
0.140224
0.14028
0.140334
0.140392
0.140453
0.140516
0.140576
0.140635
0.140692
0.140748
0.140802
0.140843
0.140884
0.140927
0.0738835
0.0754845
0.0778457
0.0802783
0.0826608
0.0851118
0.0876473
0.0903573
0.0931509
0.0960487
0.0989618
0.101854
0.104671
0.107384
0.109976
0.112404
0.114617
0.116582
0.118321
0.11987
0.121182
0.122303
0.123259
0.124076
0.124778
0.12539
0.125937
0.126431
0.126874
0.127276
0.12763
0.127969
0.12829
0.128585
0.12886
0.129119
0.129364
0.129595
0.129813
0.13002
0.130217
0.130405
0.130586
0.13076
0.130926
0.131084
0.131234
0.131377
0.131516
0.131653
0.131786
0.131912
0.132045
0.132166
0.132285
0.1324
0.132514
0.132626
0.132736
0.132844
0.132952
0.133059
0.133165
0.133269
0.133371
0.133471
0.133571
0.133672
0.133774
0.133868
0.133971
0.134068
0.134163
0.134257
0.13435
0.134443
0.134535
0.134627
0.134718
0.134808
0.134897
0.134985
0.135072
0.135159
0.135244
0.135327
0.135409
0.135491
0.135572
0.135653
0.135734
0.135814
0.135894
0.135975
0.136057
0.136135
0.136213
0.13629
0.136367
0.136443
0.136519
0.136595
0.13667
0.136746
0.136821
0.136897
0.136974
0.13705
0.137126
0.137201
0.137276
0.137349
0.137422
0.137494
0.137564
0.137638
0.137708
0.137776
0.137843
0.137909
0.137974
0.138037
0.138099
0.138159
0.138218
0.138275
0.138331
0.138386
0.138439
0.138491
0.138542
0.138591
0.138639
0.138685
0.138733
0.13878
0.138827
0.138873
0.13892
0.138967
0.139015
0.139063
0.139113
0.139163
0.139215
0.139266
0.139318
0.13937
0.139422
0.139474
0.139526
0.139577
0.13963
0.139682
0.139732
0.139781
0.13983
0.139878
0.139923
0.139973
0.140021
0.14007
0.140119
0.14017
0.140222
0.140275
0.140329
0.140385
0.140439
0.140498
0.140561
0.140626
0.140689
0.140751
0.140813
0.140873
0.140931
0.140979
0.141023
0.141073
0.0779981
0.0795966
0.0819277
0.0842892
0.0865731
0.0889067
0.0913119
0.0938504
0.0964427
0.0991159
0.101779
0.104403
0.106946
0.109384
0.111703
0.113873
0.115853
0.117618
0.119167
0.120566
0.12175
0.122767
0.12364
0.12439
0.125038
0.125607
0.126115
0.126574
0.126989
0.127365
0.1277
0.128015
0.128318
0.128597
0.128856
0.129102
0.129334
0.129553
0.129761
0.129959
0.130147
0.130328
0.130502
0.130669
0.130829
0.130983
0.131129
0.131269
0.131404
0.131537
0.131668
0.131791
0.131924
0.132045
0.132163
0.132278
0.132392
0.132504
0.132615
0.132725
0.132835
0.132943
0.133052
0.133159
0.133264
0.133367
0.13347
0.133575
0.133679
0.133777
0.133884
0.133985
0.134083
0.134181
0.134278
0.134375
0.134471
0.134566
0.13466
0.134754
0.134846
0.134938
0.135029
0.135118
0.135207
0.135294
0.135379
0.135464
0.135548
0.135632
0.135715
0.135799
0.135882
0.135965
0.13605
0.136131
0.136211
0.13629
0.136369
0.136448
0.136526
0.136604
0.136682
0.136761
0.136839
0.136918
0.136998
0.137077
0.137157
0.137237
0.137316
0.137394
0.137472
0.137549
0.137625
0.137704
0.13778
0.137854
0.137927
0.137999
0.138068
0.138137
0.138203
0.138268
0.13833
0.138391
0.13845
0.138508
0.138563
0.138617
0.138669
0.138718
0.138766
0.138812
0.13886
0.138905
0.13895
0.138995
0.13904
0.139085
0.139131
0.139179
0.139227
0.139277
0.139328
0.13938
0.139432
0.139485
0.139538
0.139591
0.139644
0.139696
0.139751
0.139804
0.139855
0.139905
0.139954
0.140003
0.140047
0.140096
0.140144
0.140192
0.14024
0.140288
0.140338
0.14039
0.140443
0.140498
0.140551
0.140609
0.140674
0.14074
0.140805
0.140869
0.140934
0.140998
0.141062
0.141114
0.141162
0.141219
0.0813054
0.0829064
0.0852237
0.0875347
0.0897416
0.0919742
0.0942674
0.0966554
0.0990684
0.101543
0.10399
0.106386
0.108699
0.11091
0.113004
0.114964
0.116756
0.118359
0.119759
0.121038
0.122122
0.123058
0.123866
0.124565
0.125173
0.125708
0.126187
0.12662
0.127013
0.127371
0.12769
0.127989
0.128279
0.128545
0.128793
0.129029
0.129252
0.129463
0.129664
0.129855
0.130038
0.130213
0.130382
0.130545
0.130701
0.130852
0.130996
0.131134
0.131268
0.131399
0.131528
0.131649
0.131781
0.131903
0.132021
0.132137
0.132252
0.132365
0.132478
0.13259
0.132702
0.132814
0.132925
0.133035
0.133144
0.133252
0.133359
0.133468
0.133577
0.13368
0.133791
0.133896
0.133999
0.134102
0.134204
0.134305
0.134405
0.134505
0.134603
0.134701
0.134798
0.134894
0.134989
0.135083
0.135175
0.135266
0.135356
0.135444
0.135532
0.135619
0.135706
0.135793
0.135879
0.135964
0.136052
0.136136
0.136218
0.1363
0.136381
0.136462
0.136542
0.136622
0.136702
0.136782
0.136862
0.136943
0.137025
0.137107
0.13719
0.137272
0.137355
0.137438
0.137521
0.137604
0.137687
0.137771
0.137853
0.137934
0.138014
0.138092
0.138169
0.138243
0.138316
0.138386
0.138455
0.138521
0.138584
0.138645
0.138704
0.13876
0.138813
0.138864
0.138912
0.138959
0.139005
0.139048
0.139091
0.139134
0.139176
0.139219
0.139263
0.139308
0.139354
0.139402
0.139452
0.139503
0.139556
0.139609
0.139663
0.139718
0.139771
0.139825
0.139882
0.139936
0.139989
0.14004
0.14009
0.140139
0.140184
0.140231
0.140279
0.140325
0.140372
0.140419
0.140467
0.140516
0.140567
0.14062
0.140671
0.140729
0.140793
0.14086
0.140925
0.140992
0.14106
0.141127
0.141195
0.141251
0.141303
0.141366
0.0839892
0.0855938
0.0879039
0.0901752
0.0923179
0.0944584
0.0966505
0.098902
0.101156
0.103453
0.105712
0.107914
0.110033
0.112054
0.113965
0.115752
0.117391
0.118862
0.120153
0.121321
0.122335
0.123209
0.123968
0.124627
0.125205
0.125714
0.126172
0.126586
0.126964
0.127308
0.127617
0.127904
0.128184
0.128441
0.128682
0.128911
0.129128
0.129334
0.12953
0.129717
0.129897
0.130069
0.130235
0.130395
0.13055
0.130699
0.130842
0.130979
0.131112
0.131242
0.131371
0.131493
0.131621
0.131745
0.131864
0.131981
0.132097
0.132212
0.132327
0.132442
0.132556
0.132671
0.132786
0.132901
0.133015
0.133127
0.13324
0.133353
0.133468
0.133578
0.133693
0.133804
0.133913
0.134021
0.134128
0.134235
0.134341
0.134446
0.13455
0.134653
0.134755
0.134856
0.134956
0.135055
0.135153
0.135249
0.135343
0.135436
0.135529
0.13562
0.135711
0.135802
0.135892
0.13598
0.136071
0.136158
0.136243
0.136327
0.13641
0.136492
0.136573
0.136654
0.136734
0.136815
0.136896
0.136978
0.13706
0.137144
0.137228
0.137312
0.137398
0.137484
0.137571
0.137659
0.137748
0.137838
0.137926
0.138015
0.138102
0.138188
0.138272
0.138355
0.138436
0.138514
0.138589
0.138662
0.138731
0.138798
0.138861
0.138921
0.138977
0.13903
0.13908
0.139126
0.139172
0.139213
0.139254
0.139294
0.139333
0.139373
0.139412
0.139454
0.139497
0.139542
0.139589
0.139639
0.139691
0.139744
0.139798
0.139854
0.139907
0.139963
0.140023
0.140079
0.140134
0.140187
0.140238
0.140288
0.140332
0.140379
0.140427
0.140473
0.140517
0.140562
0.140608
0.140655
0.140703
0.140754
0.140802
0.140858
0.140921
0.140987
0.141053
0.141121
0.14119
0.14126
0.141331
0.141391
0.141446
0.141516
0.0861885
0.0877937
0.0900976
0.0923342
0.0944187
0.0964717
0.0985719
0.100696
0.102805
0.104945
0.107039
0.109073
0.111028
0.11289
0.114648
0.116293
0.117807
0.119171
0.120375
0.121458
0.122415
0.123241
0.123962
0.124593
0.125148
0.12564
0.126083
0.126484
0.126851
0.127187
0.12749
0.127769
0.128043
0.128296
0.128532
0.128757
0.128971
0.129175
0.129369
0.129555
0.129733
0.129905
0.13007
0.130229
0.130384
0.130532
0.130675
0.130813
0.130946
0.131076
0.131204
0.131328
0.131454
0.13158
0.131699
0.131817
0.131934
0.132051
0.132167
0.132284
0.132401
0.132519
0.132638
0.132757
0.132876
0.132994
0.133112
0.133232
0.133353
0.13347
0.133591
0.133708
0.133825
0.13394
0.134054
0.134168
0.134281
0.134392
0.134502
0.134612
0.13472
0.134828
0.134934
0.135039
0.135143
0.135246
0.135346
0.135446
0.135544
0.135641
0.135737
0.135833
0.135928
0.136021
0.136115
0.136206
0.136294
0.13638
0.136465
0.136548
0.136629
0.13671
0.13679
0.13687
0.13695
0.13703
0.137112
0.137194
0.137277
0.137362
0.137448
0.137535
0.137625
0.137716
0.13781
0.137904
0.137998
0.138094
0.138189
0.138284
0.138377
0.138469
0.138559
0.138647
0.138731
0.138813
0.138891
0.138965
0.139035
0.139101
0.139162
0.139218
0.13927
0.139318
0.139363
0.139402
0.139442
0.139479
0.139515
0.139549
0.139584
0.139621
0.139659
0.1397
0.139743
0.13979
0.13984
0.139892
0.139945
0.140002
0.140055
0.140112
0.140174
0.140233
0.14029
0.140345
0.140398
0.140449
0.140495
0.140541
0.140589
0.140634
0.140678
0.140721
0.140764
0.140808
0.140853
0.1409
0.140945
0.140999
0.14106
0.141124
0.141189
0.141257
0.141327
0.141399
0.141473
0.141537
0.141594
0.141669
0.0880044
0.0896048
0.0919004
0.094104
0.0961343
0.098105
0.100113
0.102116
0.104096
0.106092
0.108042
0.109931
0.111744
0.113471
0.115102
0.116629
0.11804
0.119318
0.120453
0.121467
0.122381
0.123171
0.123865
0.124476
0.125015
0.125496
0.125929
0.126324
0.126686
0.127017
0.127317
0.127593
0.127865
0.128116
0.128352
0.128577
0.128791
0.128995
0.129191
0.129378
0.129557
0.12973
0.129896
0.130057
0.130213
0.130364
0.130508
0.130647
0.130782
0.130912
0.131042
0.131168
0.131292
0.13142
0.13154
0.131659
0.131776
0.131893
0.13201
0.132128
0.132246
0.132366
0.132487
0.132609
0.132731
0.132854
0.132978
0.133104
0.133232
0.133358
0.133485
0.133611
0.133736
0.133859
0.133982
0.134104
0.134225
0.134344
0.134463
0.13458
0.134696
0.134811
0.134926
0.135039
0.135151
0.135261
0.13537
0.135478
0.135583
0.135688
0.135791
0.135893
0.135995
0.136095
0.136193
0.136289
0.13638
0.13647
0.136556
0.13664
0.136722
0.136802
0.13688
0.136958
0.137035
0.137112
0.13719
0.137268
0.137348
0.137429
0.137512
0.137599
0.137688
0.13778
0.137876
0.137971
0.13807
0.138172
0.138275
0.138377
0.13848
0.138582
0.138683
0.138781
0.138878
0.13897
0.139059
0.139144
0.139223
0.139297
0.139365
0.139427
0.139484
0.139535
0.139581
0.139619
0.139658
0.139692
0.139723
0.139753
0.139782
0.139813
0.139845
0.139879
0.139917
0.139959
0.140005
0.140054
0.140106
0.140162
0.140214
0.140272
0.140337
0.140398
0.140458
0.140516
0.140571
0.140624
0.140671
0.140717
0.140766
0.14081
0.140853
0.140894
0.140935
0.140976
0.141017
0.141061
0.141102
0.141153
0.141211
0.141272
0.141335
0.141402
0.141472
0.141545
0.141621
0.141688
0.141746
0.141826
0.0895123
0.091101
0.0933836
0.095553
0.0975284
0.09942
0.101336
0.103225
0.105084
0.106951
0.108772
0.110534
0.112226
0.113838
0.115361
0.116791
0.118117
0.119324
0.120405
0.121367
0.122247
0.123011
0.123686
0.124283
0.124815
0.12529
0.125719
0.126112
0.126474
0.126805
0.127108
0.127385
0.127659
0.127913
0.128152
0.12838
0.128598
0.128807
0.129007
0.129198
0.129382
0.12956
0.129731
0.129897
0.130057
0.130212
0.130362
0.130505
0.130643
0.130777
0.130909
0.131039
0.131164
0.131294
0.131415
0.131534
0.131651
0.131767
0.131882
0.131997
0.132113
0.13223
0.132349
0.132469
0.132592
0.132717
0.132844
0.132974
0.133108
0.133242
0.133375
0.13351
0.133645
0.133779
0.133912
0.134044
0.134174
0.134303
0.134431
0.134558
0.134684
0.134809
0.134933
0.135057
0.135179
0.1353
0.135419
0.135537
0.135653
0.135767
0.13588
0.135992
0.136102
0.13621
0.136315
0.136417
0.136515
0.136608
0.136697
0.136783
0.136864
0.136943
0.137018
0.137092
0.137164
0.137235
0.137306
0.137378
0.137451
0.137525
0.137602
0.137684
0.137769
0.137858
0.137953
0.138045
0.138145
0.138251
0.138359
0.138468
0.138579
0.138691
0.138803
0.138914
0.139023
0.139129
0.139231
0.139329
0.139421
0.139507
0.139585
0.139656
0.13972
0.139776
0.139825
0.139864
0.139903
0.139935
0.139963
0.139987
0.14001
0.140033
0.140058
0.140085
0.140115
0.14015
0.14019
0.140235
0.140283
0.140337
0.140388
0.140445
0.140512
0.140576
0.140638
0.140699
0.140757
0.140812
0.140861
0.140907
0.140957
0.141002
0.141044
0.141084
0.141123
0.141161
0.141199
0.141238
0.141275
0.141322
0.141376
0.141433
0.141493
0.141557
0.141626
0.141699
0.141776
0.141846
0.141905
0.141987
0.090767
0.0923369
0.0945997
0.0967295
0.0986477
0.100462
0.102287
0.104064
0.105813
0.107563
0.109269
0.110919
0.112506
0.114019
0.115452
0.1168
0.118056
0.119208
0.120244
0.121166
0.122021
0.122768
0.123431
0.124022
0.124551
0.125027
0.125459
0.125855
0.126222
0.12656
0.126869
0.127154
0.127434
0.127696
0.127944
0.128181
0.128408
0.128626
0.128835
0.129037
0.129231
0.129419
0.1296
0.129776
0.129946
0.130111
0.130271
0.130423
0.13057
0.130712
0.130852
0.130989
0.13112
0.131254
0.131379
0.131499
0.131616
0.131729
0.131839
0.131947
0.132054
0.132161
0.132269
0.132379
0.132491
0.132606
0.132726
0.132854
0.132989
0.133127
0.133262
0.133406
0.133552
0.133697
0.133842
0.133985
0.134128
0.134269
0.134409
0.134548
0.134686
0.134823
0.13496
0.135095
0.135231
0.135365
0.135498
0.135629
0.135758
0.135886
0.136011
0.136135
0.136258
0.136378
0.136493
0.136603
0.136708
0.136808
0.136901
0.136989
0.13707
0.137147
0.137219
0.137287
0.137352
0.137415
0.137477
0.137539
0.137602
0.137665
0.137732
0.137804
0.13788
0.137961
0.138049
0.138134
0.13823
0.138337
0.138445
0.138558
0.138675
0.138794
0.138916
0.139039
0.139161
0.139282
0.1394
0.139514
0.139622
0.139723
0.139817
0.1399
0.139975
0.14004
0.140095
0.140137
0.140178
0.140211
0.140236
0.140256
0.140272
0.140287
0.140303
0.14032
0.140341
0.140367
0.140399
0.140436
0.14048
0.14053
0.140577
0.140633
0.140701
0.140766
0.140831
0.140895
0.140956
0.141015
0.141065
0.141112
0.141164
0.14121
0.141252
0.141291
0.141328
0.141363
0.141397
0.141432
0.141464
0.141507
0.141556
0.141608
0.141664
0.141725
0.141791
0.141863
0.14194
0.142012
0.14207
0.142155
0.091811
0.0933548
0.095587
0.0976672
0.0995243
0.101265
0.102998
0.104665
0.106314
0.107955
0.109558
0.11111
0.112605
0.114034
0.115391
0.116672
0.117871
0.118977
0.119979
0.120871
0.121708
0.122443
0.123102
0.123694
0.124227
0.124709
0.12515
0.125558
0.125937
0.126288
0.126611
0.12691
0.127205
0.127481
0.127745
0.127998
0.128242
0.128476
0.128703
0.128922
0.129134
0.12934
0.12954
0.129734
0.129924
0.130108
0.130287
0.130459
0.130625
0.130785
0.130942
0.131095
0.13124
0.131386
0.13152
0.131645
0.131762
0.131871
0.131971
0.132063
0.13215
0.132233
0.132314
0.132397
0.132483
0.132574
0.132672
0.132781
0.132901
0.13303
0.133159
0.133305
0.133459
0.133614
0.13377
0.133926
0.134083
0.134238
0.134393
0.134547
0.1347
0.134852
0.135004
0.135156
0.135307
0.135458
0.135608
0.135757
0.135904
0.136049
0.136192
0.136332
0.136471
0.136607
0.136736
0.136858
0.136974
0.137082
0.137181
0.137273
0.137355
0.13743
0.137498
0.137559
0.137616
0.137669
0.137719
0.137768
0.137817
0.137866
0.137918
0.137975
0.138037
0.138104
0.138179
0.138252
0.138338
0.138438
0.138542
0.138653
0.13877
0.138894
0.139023
0.139155
0.13929
0.139426
0.13956
0.139692
0.139819
0.13994
0.140052
0.140153
0.140243
0.140321
0.140387
0.140436
0.140482
0.140518
0.140543
0.140559
0.14057
0.140578
0.140584
0.140591
0.1406
0.140615
0.140635
0.140663
0.140699
0.140743
0.140785
0.140838
0.140905
0.140971
0.141038
0.141104
0.141169
0.141231
0.141284
0.141331
0.141386
0.141433
0.141476
0.141515
0.141551
0.141584
0.141615
0.141644
0.141672
0.141711
0.141753
0.141799
0.14185
0.141906
0.141969
0.142039
0.142114
0.142188
0.142245
0.14233
0.0926777
0.0941878
0.0963772
0.0983978
0.100188
0.101851
0.103487
0.105045
0.106612
0.108149
0.10966
0.111126
0.112542
0.113898
0.115189
0.116413
0.117565
0.118634
0.119608
0.12048
0.121301
0.122033
0.122693
0.123291
0.123835
0.124332
0.12479
0.125219
0.125621
0.125993
0.12634
0.126665
0.126984
0.127287
0.127576
0.127856
0.128126
0.128388
0.128642
0.128889
0.12913
0.129365
0.129596
0.129821
0.130043
0.130262
0.130476
0.130684
0.130886
0.131081
0.131273
0.131461
0.131636
0.13181
0.131967
0.132108
0.132233
0.132341
0.132429
0.132498
0.13255
0.13259
0.132622
0.132649
0.132677
0.132712
0.132757
0.132817
0.132895
0.132994
0.133098
0.133227
0.133375
0.133532
0.133696
0.133864
0.134035
0.134207
0.134379
0.134551
0.134722
0.134893
0.135064
0.135235
0.135407
0.135579
0.135752
0.135923
0.136093
0.136261
0.136426
0.136589
0.13675
0.136906
0.137055
0.137192
0.137323
0.137443
0.137552
0.137649
0.137735
0.137808
0.137872
0.137926
0.137973
0.138013
0.13805
0.138083
0.138114
0.138146
0.138179
0.138215
0.138257
0.138305
0.13836
0.138415
0.138485
0.138569
0.138661
0.138763
0.138875
0.138996
0.139126
0.139264
0.139408
0.139555
0.139705
0.139856
0.140004
0.140146
0.140282
0.140406
0.140517
0.140615
0.140696
0.140755
0.14081
0.140855
0.140883
0.140899
0.140906
0.140907
0.140905
0.1409
0.140897
0.140898
0.140905
0.14092
0.140945
0.140981
0.141016
0.141064
0.141127
0.141192
0.14126
0.141329
0.141397
0.141463
0.141519
0.141567
0.141623
0.141673
0.141717
0.141756
0.141791
0.141823
0.141851
0.141877
0.1419
0.141933
0.141969
0.142008
0.142053
0.142104
0.142162
0.142227
0.142301
0.142375
0.142429
0.142513
0.0933914
0.0948597
0.0969945
0.098944
0.100653
0.102237
0.103766
0.105233