/*--------------------------------*- C++ -*----------------------------------*\
| =========                 |                                                 |
| \\      /  F ield         | OpenFOAM: The Open Source CFD Toolbox           |
|  \\    /   O peration     | Version:  2.3.0                                 |
|   \\  /    A nd           | Web:      www.OpenFOAM.org                      |
|    \\/     M anipulation  |                                                 |
\*---------------------------------------------------------------------------*/
FoamFile
{
    version     2.0;
    format      ascii;
    class       volScalarField;
    location    "0.08";
    object      dQ;
}
// * * * * * * * * * * * * * * * * * * * * * * * * * * * * * * * * * * * * * //

dimensions      [1 2 -3 0 0 0 0];

internalField   nonuniform List<scalar> 
12225
(
2.99011
0.11777
0.0145618
0.00565807
0.002175
0.00111785
0.000783395
0.000457795
0.000285275
0.000203563
0.000158057
0.000116332
8.47619e-05
6.48336e-05
5.28336e-05
4.08259e-05
3.5869e-05
4.99387e-05
3.57048
0.200368
0.0300633
0.0120961
0.00585665
0.00296681
0.00223887
0.00161926
0.00106079
0.00076692
0.000577464
0.000459365
0.00037947
0.00029762
0.000240055
0.000196966
0.000158099
0.000153235
1.32621
1.43318
0.108236
0.025841
0.0102034
0.00456201
0.00306266
0.0024259
0.00171063
0.00121915
0.000939707
0.000753084
0.00061341
0.000531008
0.000467783
0.000395212
0.000331559
0.000279002
1.11616
1.30781
0.959801
0.0943482
0.0260363
0.00997442
0.00469543
0.00346897
0.00239727
0.00158769
0.00116492
0.000912483
0.000741542
0.00062102
0.000545151
0.000493842
0.000439574
0.000374162
0.961525
0.713641
0.80277
1.03798
0.0923209
0.0242897
0.00909652
0.00555067
0.00357341
0.00218098
0.00149784
0.00115225
0.000883827
0.000709516
0.000599591
0.000538164
0.000491588
0.000433514
1.04749
0.79201
0.632089
0.729179
0.619422
0.0543005
0.0138299
0.00814915
0.00473812
0.00331148
0.00210696
0.00146088
0.0011607
0.000876123
0.000701911
0.000613321
0.000560552
0.000496975
1.23974
0.845102
0.622937
0.583699
1.45514
0.167975
0.0252826
0.0119324
0.0072282
0.00423243
0.00284717
0.00191451
0.00146317
0.00107069
0.000849628
0.000738981
0.000668692
0.00058205
0.952847
0.664036
0.457975
0.414953
0.59701
0.367999
0.0374299
0.0124799
0.00686537
0.00425501
0.00252298
0.00167609
0.00122662
0.000914249
0.000730766
0.000644404
0.0005663
0.000476466
1.08666
0.77501
0.539943
0.47584
0.495199
0.655327
0.0655183
0.0235081
0.0115084
0.00527283
0.00330851
0.00213241
0.00157884
0.00116544
0.000942854
0.000827301
0.000688969
0.000574391
1.27603
0.88239
0.63302
0.529778
0.507781
1.38585
0.153295
0.0482949
0.0189702
0.00808935
0.00438647
0.00278456
0.00194786
0.00146286
0.00123991
0.000998496
0.000814981
0.000697732
1.40153
1.02593
0.69157
0.586319
0.558545
0.737039
0.802081
0.0775968
0.0231401
0.010352
0.00565673
0.00360366
0.00253004
0.00204406
0.00163731
0.0012512
0.000935518
0.000786177
1.75989
1.17082
0.742866
0.612618
0.568811
0.590879
1.54277
0.131073
0.030711
0.0132446
0.00715854
0.00475402
0.00383873
0.00282762
0.0019719
0.00150533
0.00117151
0.000958586
2.09087
1.29201
0.804885
0.627862
0.568357
0.588276
1.1746
0.586082
0.0698919
0.0230345
0.0112581
0.00768114
0.00536015
0.00352184
0.00250804
0.00189079
0.00147571
0.00119353
2.57726
1.48677
0.905829
0.702044
0.633444
0.621543
0.699501
1.64108
0.145138
0.04354
0.0197886
0.00932063
0.00589928
0.00421966
0.00315244
0.00237219
0.00183937
0.00147704
3.23088
1.75941
1.04531
0.821352
0.689982
0.655179
0.671296
2.21913
0.381786
0.0481239
0.0214541
0.0136877
0.00738823
0.00489849
0.00405136
0.00326076
0.00243596
0.00185463
4.06697
1.98304
1.17794
0.91877
0.781732
0.728844
0.73591
1.89143
0.626747
0.0665297
0.0305419
0.0182846
0.0099242
0.0060849
0.00420635
0.00315747
0.00259597
0.00221346
4.4165
2.33843
1.4734
1.09986
0.923177
0.839189
0.825486
1.54498
1.04086
0.0944321
0.0399306
0.0203586
0.0123564
0.00788412
0.00551393
0.0039904
0.00303659
0.00241487
4.60075
2.41572
1.44101
1.08464
0.940839
0.860432
0.874078
1.36552
1.29081
0.128616
0.0358355
0.0169337
0.0101519
0.00665739
0.00450783
0.003273
0.00280806
0.00241453
4.57904
1.85959
1.25255
0.950887
0.841149
0.790611
0.818606
1.36082
1.21266
0.123265
0.0337311
0.0154445
0.00927599
0.00605629
0.00397024
0.00294779
0.00256742
0.00215805
3.19285
2.01378
1.18437
0.93687
0.84155
0.828136
0.842675
2.85678
0.361519
0.0644255
0.0231144
0.0109803
0.00812883
0.0057657
0.00428376
0.00343171
0.00270682
0.00208264
2.57197
1.75879
1.02262
0.838005
0.801456
0.843674
0.929964
2.09385
0.189607
0.0431085
0.015965
0.0108063
0.00730787
0.00567477
0.00433594
0.00306103
0.00228591
0.00177909
2.34539
1.53686
0.897998
0.786846
0.838795
0.929308
1.15487
1.08096
0.108315
0.0266921
0.0136755
0.00912022
0.006585
0.00518961
0.00369531
0.00255611
0.00190184
0.00156344
2.34245
1.37261
0.780279
0.710188
0.838182
0.994956
1.40936
0.15162
0.0366282
0.0152798
0.00847422
0.0063044
0.00498982
0.00396633
0.00290523
0.00211413
0.00161387
0.00131774
2.18632
1.26352
0.705636
0.635822
0.79836
2.40126
0.350592
0.0657385
0.0215173
0.0108065
0.00641906
0.00395701
0.00321241
0.00245691
0.00205904
0.00169081
0.00133204
0.00106587
1.9944
1.18372
0.66873
0.601925
0.719848
1.19592
0.108317
0.0297361
0.0124849
0.00698078
0.00387449
0.00301064
0.00237138
0.0017797
0.0014457
0.00126129
0.00101982
0.000899083
1.76243
1.11306
0.669329
0.632059
1.77777
0.162571
0.0322384
0.0128859
0.00741971
0.00468063
0.00311418
0.0022256
0.00161691
0.00132831
0.0011435
0.00100318
0.000877121
0.00072128
1.51349
1.09058
0.873235
1.89704
0.150312
0.0340295
0.0153549
0.00789985
0.0045668
0.00295026
0.00201172
0.00145478
0.00120998
0.00106528
0.000950503
0.000805904
0.000673294
0.000572723
1.45683
1.61837
1.78143
0.149972
0.0356437
0.0137784
0.00690825
0.00440293
0.00280485
0.00187242
0.00136187
0.00115524
0.00100393
0.000894201
0.000746828
0.00061384
0.000543385
0.000496192
2.07596
1.90683
0.138472
0.0337083
0.0123011
0.00645591
0.00410022
0.00277415
0.00183064
0.00130963
0.00103382
0.000897911
0.000744547
0.000597303
0.000496607
0.000418046
0.000357368
0.000312099
4.50828
0.227721
0.026062
0.0104885
0.0053009
0.00305786
0.00191873
0.00112237
0.000752238
0.000552104
0.00042836
0.000299723
0.000243296
0.000191621
0.00016002
0.000131886
0.000105455
8.8149e-05
-2.94665e-60
-1.18656e-61
-2.8854e-63
-6.1427e-65
-1.94576e-66
-2.06731e-66
-5.20049e-66
-9.24105e-66
-1.09518e-65
-9.13342e-66
-5.42279e-66
-2.3697e-66
-7.95362e-67
-2.14008e-67
-5.15535e-68
-1.0186e-67
-1.71001e-66
-2.40569e-65
-2.55236e-64
-2.03776e-63
-1.21731e-62
-5.5422e-62
-1.94216e-61
-5.17602e-61
-1.03308e-60
-1.693e-60
-2.65537e-60
-4.35901e-60
-6.53081e-60
-7.51356e-60
-6.32701e-60
-3.91776e-60
-1.82194e-60
-6.68768e-61
-2.01327e-61
-5.24579e-62
-1.24872e-62
-2.86299e-63
-6.61053e-64
-1.58742e-64
-3.99035e-65
-1.04957e-65
-2.88441e-66
-8.33703e-67
-2.54982e-67
-8.41152e-68
-3.3624e-68
-3.37698e-68
-1.35403e-67
-8.15804e-67
-5.60803e-66
-4.23967e-65
-3.39851e-64
-2.77757e-63
-2.24431e-62
-1.75566e-61
-1.31131e-60
-9.26711e-60
-6.17288e-59
-3.88427e-58
-2.32265e-57
-1.33335e-56
-7.48614e-56
-4.15266e-55
-2.23694e-54
-1.10922e-53
-4.67328e-53
-1.51555e-52
-3.22189e-52
-3.94348e-52
-3.35732e-52
-1.80463e-52
-6.85222e-53
-2.01432e-53
-4.82188e-54
-9.97785e-55
-1.84225e-55
-3.07423e-56
-4.66313e-57
-6.46372e-58
-8.22612e-59
-9.6638e-60
-1.05304e-60
-1.07028e-61
-1.01892e-62
-9.13035e-64
-7.72725e-65
-6.20381e-66
-4.75327e-67
-3.48513e-68
-2.47318e-69
-2.34262e-70
-7.46049e-70
-8.42378e-69
-9.45875e-68
-1.04774e-66
-1.15729e-65
-1.29494e-64
-1.49182e-63
-1.78228e-62
-2.19555e-61
-2.72759e-60
-3.31014e-59
-3.79937e-58
-4.01082e-57
-3.79879e-56
-3.15267e-55
-2.23535e-54
-1.3136e-53
-6.14679e-53
-2.16995e-52
-5.41679e-52
-9.10787e-52
-1.20843e-51
-1.38447e-51
-1.37601e-51
-1.13016e-51
-8.05015e-52
-5.28655e-52
-3.31296e-52
-1.95629e-52
-1.09095e-52
-5.74312e-53
-2.94401e-53
-1.494e-53
-7.46692e-54
-3.68163e-54
-1.80009e-54
-8.7776e-55
-4.30595e-55
-2.15939e-55
-1.13834e-55
-6.63381e-56
-4.67694e-56
-4.37671e-56
-5.30252e-56
-7.39941e-56
-1.1758e-55
-2.28692e-55
-5.86629e-55
-1.88407e-54
-6.73339e-54
-2.46864e-53
-8.65487e-53
-2.72641e-52
-7.56293e-52
-1.80586e-51
-3.35755e-51
-4.68804e-51
-5.33596e-51
-5.40464e-51
-4.88551e-51
-3.81802e-51
-2.69254e-51
-1.81358e-51
-1.25606e-51
-9.65286e-52
-8.61566e-52
-8.86883e-52
-9.86227e-52
-1.13318e-51
-1.3147e-51
-1.52023e-51
-1.73397e-51
-1.95405e-51
-2.18966e-51
-2.41278e-51
-2.52346e-51
-2.47742e-51
-2.3443e-51
-2.08127e-51
-1.69483e-51
-1.26833e-51
-8.89701e-52
-6.00412e-52
-4.2267e-52
-3.4365e-52
-3.31144e-52
-3.58682e-52
-4.55193e-52
-1.44809e-57
-5.08606e-59
-1.10842e-60
-2.33254e-62
-7.89663e-64
-6.03431e-64
-1.61109e-63
-3.31305e-63
-4.55166e-63
-4.30093e-63
-2.83084e-63
-1.34258e-63
-4.83132e-64
-1.37681e-64
-3.21618e-65
-6.28856e-66
-1.10231e-66
-1.15762e-66
-1.60283e-65
-2.09425e-64
-2.24525e-63
-2.01515e-62
-1.56128e-61
-1.06557e-60
-6.34035e-60
-3.16816e-59
-1.26414e-58
-3.87377e-58
-8.87007e-58
-1.43639e-57
-1.60813e-57
-1.25596e-57
-6.87867e-58
-2.86373e-58
-9.58551e-59
-2.72257e-59
-7.00053e-60
-1.73097e-60
-4.28025e-61
-1.08286e-61
-2.8006e-62
-7.40621e-63
-2.0064e-63
-5.64444e-64
-1.66397e-64
-5.21166e-65
-1.73429e-65
-6.10521e-66
-2.30897e-66
-9.99718e-67
-7.12432e-67
-2.25605e-66
-2.07479e-65
-2.50455e-64
-3.37519e-63
-4.81047e-62
-6.97858e-61
-1.00228e-59
-1.39793e-58
-1.86578e-57
-2.35251e-56
-2.76062e-55
-2.95804e-54
-2.82572e-53
-2.33702e-52
-1.61027e-51
-8.82496e-51
-3.58844e-50
-9.64485e-50
-1.30619e-49
-1.21263e-49
-7.11262e-50
-2.81609e-50
-8.52456e-51
-2.07741e-51
-4.35368e-52
-8.10511e-53
-1.35854e-53
-2.06422e-54
-2.86094e-55
-3.63522e-56
-4.25988e-57
-4.62849e-58
-4.69231e-59
-4.45736e-60
-3.98587e-61
-3.36511e-62
-2.6929e-63
-2.05463e-64
-1.49879e-65
-1.0526e-66
-7.15444e-68
-5.28949e-69
-7.46893e-69
-1.71994e-67
-3.96464e-66
-8.76396e-65
-1.84283e-63
-3.63382e-62
-6.67066e-61
-1.14388e-59
-1.81733e-58
-2.64792e-57
-3.49249e-56
-4.11835e-55
-4.27998e-54
-3.85395e-53
-2.94457e-52
-1.85823e-51
-9.3358e-51
-3.54967e-50
-9.57141e-50
-1.69346e-49
-2.29305e-49
-2.66725e-49
-2.69869e-49
-2.25471e-49
-1.61333e-49
-1.05615e-49
-6.58471e-50
-3.87067e-50
-2.15024e-50
-1.12291e-50
-5.699e-51
-2.86238e-51
-1.41469e-51
-6.90823e-52
-3.34916e-52
-1.61979e-52
-7.86521e-53
-3.90272e-53
-2.02739e-53
-1.1559e-53
-7.86219e-54
-7.03619e-54
-8.24506e-54
-1.1181e-53
-1.72039e-53
-3.199e-53
-7.80772e-53
-2.41618e-52
-8.45612e-52
-3.06417e-51
-1.07621e-50
-3.42169e-50
-9.57007e-50
-2.31677e-49
-4.4255e-49
-6.32662e-49
-7.30011e-49
-7.46278e-49
-6.83497e-49
-5.4103e-49
-3.84297e-49
-2.59335e-49
-1.78417e-49
-1.35242e-49
-1.18715e-49
-1.20717e-49
-1.33173e-49
-1.52613e-49
-1.76804e-49
-2.0445e-49
-2.33371e-49
-2.63325e-49
-2.95444e-49
-3.27143e-49
-3.4497e-49
-3.40937e-49
-3.25218e-49
-2.91212e-49
-2.391e-49
-1.80072e-49
-1.2697e-49
-8.59667e-50
-6.0127e-50
-4.82152e-50
-4.59778e-50
-4.94581e-50
-6.23217e-50
-6.19679e-55
-2.04223e-56
-4.1613e-58
-8.90162e-60
-3.37537e-61
-2.10727e-61
-5.65899e-61
-1.22295e-60
-1.77773e-60
-1.75413e-60
-1.18881e-60
-5.72355e-61
-2.07174e-61
-5.89221e-62
-1.36592e-62
-2.64564e-63
-4.36885e-64
-7.23188e-65
-1.85168e-64
-3.07487e-63
-4.51782e-62
-5.59589e-61
-5.80849e-60
-5.01442e-59
-3.56441e-58
-2.05781e-57
-9.48074e-57
-3.41483e-56
-9.43506e-56
-1.93961e-55
-2.65837e-55
-2.46036e-55
-1.5191e-55
-6.80292e-56
-2.41726e-56
-7.22018e-57
-1.94672e-57
-5.0384e-58
-1.29403e-58
-3.35555e-59
-8.76954e-60
-2.31478e-60
-6.19951e-61
-1.71331e-61
-4.93705e-62
-1.50674e-62
-4.88169e-63
-1.67373e-63
-6.14831e-64
-2.48469e-64
-1.25169e-64
-1.23244e-64
-8.15177e-64
-1.30893e-62
-2.24134e-61
-3.75056e-60
-6.06165e-59
-9.4097e-58
-1.3957e-56
-1.96597e-55
-2.60793e-54
-3.21834e-53
-3.63016e-52
-3.65456e-51
-3.18604e-50
-2.31802e-49
-1.34646e-48
-5.83404e-48
-1.67989e-47
-2.37747e-47
-2.26925e-47
-1.37753e-47
-5.52401e-48
-1.67994e-48
-4.08682e-49
-8.52324e-50
-1.57559e-50
-2.61748e-51
-3.93587e-52
-5.39197e-53
-6.76387e-54
-7.81608e-55
-8.3664e-56
-8.35318e-57
-7.81414e-58
-6.88164e-59
-5.72107e-60
-4.50718e-61
-3.38477e-62
-2.4304e-63
-1.67847e-64
-1.12223e-65
-7.68072e-67
-4.62286e-67
-1.02915e-65
-2.44091e-64
-5.54334e-63
-1.19409e-61
-2.41826e-60
-4.54241e-59
-7.986e-58
-1.30363e-56
-1.95022e-55
-2.64106e-54
-3.19735e-53
-3.41032e-52
-3.15015e-51
-2.46787e-50
-1.59692e-49
-8.23191e-49
-3.21505e-48
-8.90434e-48
-1.60298e-47
-2.1769e-47
-2.53235e-47
-2.5634e-47
-2.143e-47
-1.52562e-47
-9.90018e-48
-6.11074e-48
-3.55527e-48
-1.95486e-48
-1.00871e-48
-5.05226e-49
-2.50332e-49
-1.22017e-49
-5.87939e-50
-2.81449e-50
-1.34467e-50
-6.44662e-51
-3.15909e-51
-1.6187e-51
-9.08345e-52
-6.05068e-52
-5.28636e-52
-6.07593e-52
-8.10094e-52
-1.22519e-51
-2.22882e-51
-5.31035e-51
-1.61253e-50
-5.5802e-50
-2.0057e-49
-7.03498e-49
-2.2385e-48
-6.26531e-48
-1.52246e-47
-2.93551e-47
-4.22771e-47
-4.89305e-47
-5.00542e-47
-4.59395e-47
-3.64411e-47
-2.58864e-47
-1.74389e-47
-1.19424e-47
-8.98689e-48
-7.82458e-48
-7.9093e-48
-8.68883e-48
-9.94127e-48
-1.15091e-47
-1.33133e-47
-1.52141e-47
-1.72005e-47
-1.93466e-47
-2.15098e-47
-2.28056e-47
-2.26639e-47
-2.1745e-47
-1.95802e-47
-1.61665e-47
-1.223e-47
-8.65848e-48
-5.88413e-48
-4.11692e-48
-3.29439e-48
-3.13715e-48
-3.38309e-48
-4.26958e-48
-2.30876e-52
-7.38839e-54
-1.45961e-55
-3.24548e-57
-1.36011e-58
-7.2304e-59
-1.86759e-58
-4.06628e-58
-6.00024e-58
-5.96859e-58
-4.04688e-58
-1.93135e-58
-6.88272e-59
-1.91471e-59
-4.32147e-60
-8.13659e-61
-1.30647e-61
-1.90587e-62
-1.37046e-62
-1.91894e-61
-2.78365e-60
-3.47315e-59
-3.7046e-58
-3.35524e-57
-2.55445e-56
-1.60975e-55
-8.21762e-55
-3.31022e-54
-1.03079e-53
-2.43991e-53
-3.83255e-53
-3.94581e-53
-2.647e-53
-1.2357e-53
-4.52721e-54
-1.38759e-54
-3.84015e-55
-1.01886e-55
-2.6659e-56
-6.97444e-57
-1.82295e-57
-4.77791e-58
-1.26379e-58
-3.43718e-59
-9.71699e-60
-2.90212e-60
-9.19173e-61
-3.08127e-61
-1.10596e-61
-4.36501e-62
-2.07782e-62
-1.6369e-62
-6.7794e-62
-1.01223e-60
-1.75358e-59
-2.9929e-58
-4.94362e-57
-7.85404e-56
-1.19394e-54
-1.72677e-53
-2.35811e-52
-3.00604e-51
-3.51507e-50
-3.67865e-49
-3.3382e-48
-2.52982e-47
-1.53174e-46
-6.92709e-46
-2.07932e-45
-3.01997e-45
-2.91301e-45
-1.79275e-45
-7.18025e-46
-2.16676e-46
-5.2063e-47
-1.07041e-47
-1.94867e-48
-3.18508e-49
-4.70717e-50
-6.33203e-51
-7.79184e-52
-8.82393e-53
-9.24779e-54
-9.03696e-55
-8.27341e-56
-7.13244e-57
-5.80537e-58
-4.47878e-59
-3.29225e-60
-2.31616e-61
-1.56791e-62
-1.02873e-63
-6.73444e-65
-2.11034e-65
-4.24186e-64
-1.02924e-62
-2.39149e-61
-5.27021e-60
-1.09757e-58
-2.12122e-57
-3.84263e-56
-6.46199e-55
-9.94706e-54
-1.38596e-52
-1.72555e-51
-1.89122e-50
-1.79312e-49
-1.44019e-48
-9.54598e-48
-5.03782e-47
-2.01315e-46
-5.6954e-46
-1.03776e-45
-1.40986e-45
-1.63754e-45
-1.65482e-45
-1.38061e-45
-9.766e-46
-6.28076e-46
-3.83873e-46
-2.2104e-46
-1.20265e-46
-6.13227e-47
-3.03265e-47
-1.48331e-47
-7.13536e-48
-3.3944e-48
-1.60505e-48
-7.57802e-49
-3.58982e-49
-1.73901e-49
-8.80384e-50
-4.87628e-50
-3.19713e-50
-2.74356e-50
-3.10832e-50
-4.09042e-50
-6.1036e-50
-1.09127e-49
-2.55066e-49
-7.62992e-49
-2.61806e-48
-9.35835e-48
-3.28374e-47
-1.04643e-46
-2.93329e-46
-7.15206e-46
-1.38774e-45
-2.00725e-45
-2.32485e-45
-2.37632e-45
-2.1805e-45
-1.7287e-45
-1.22564e-45
-8.2308e-46
-5.60948e-46
-4.19373e-46
-3.62585e-46
-3.64546e-46
-3.98703e-46
-4.54965e-46
-5.25695e-46
-6.07425e-46
-6.93832e-46
-7.84568e-46
-8.83063e-46
-9.83693e-46
-1.04594e-45
-1.04273e-45
-1.00385e-45
-9.06665e-46
-7.50999e-46
-5.6937e-46
-4.04285e-46
-2.74675e-46
-1.92207e-46
-1.53672e-46
-1.46178e-46
-1.57973e-46
-1.99523e-46
-7.66499e-50
-2.43425e-51
-4.80319e-53
-1.12914e-54
-5.1119e-56
-2.36872e-56
-5.75251e-56
-1.23465e-55
-1.81167e-55
-1.78555e-55
-1.19539e-55
-5.59961e-56
-1.948e-56
-5.25877e-57
-1.14685e-57
-2.08276e-58
-3.22826e-59
-4.42458e-60
-1.29087e-60
-1.24954e-59
-1.82577e-58
-2.34138e-57
-2.60916e-56
-2.50532e-55
-2.04699e-54
-1.39638e-53
-7.75274e-53
-3.39953e-52
-1.15194e-51
-2.96406e-51
-5.14224e-51
-5.68089e-51
-4.04412e-51
-1.936e-51
-7.19433e-52
-2.22921e-52
-6.24924e-53
-1.67896e-53
-4.42706e-54
-1.15826e-54
-3.00926e-55
-7.80408e-56
-2.03593e-56
-5.45096e-57
-1.5138e-57
-4.41953e-58
-1.3712e-58
-4.50239e-59
-1.5824e-59
-6.11596e-60
-2.80258e-60
-1.93992e-60
-5.13531e-60
-6.67824e-59
-1.15619e-57
-2.00111e-56
-3.3632e-55
-5.44773e-54
-8.4585e-53
-1.25203e-51
-1.75493e-50
-2.30518e-49
-2.7893e-48
-3.03084e-47
-2.85942e-46
-2.25193e-45
-1.41682e-44
-6.65616e-44
-2.06995e-43
-3.06161e-43
-2.9626e-43
-1.83146e-43
-7.27159e-44
-2.16323e-44
-5.10439e-45
-1.02962e-45
-1.8383e-46
-2.94563e-47
-4.26441e-48
-5.61492e-49
-6.75697e-50
-7.47697e-51
-7.65033e-52
-7.29674e-53
-6.51935e-54
-5.48688e-55
-4.36094e-56
-3.28681e-57
-2.36194e-58
-1.62527e-59
-1.07689e-60
-6.92526e-62
-4.40455e-63
-7.88458e-64
-1.30844e-62
-3.27357e-61
-7.86455e-60
-1.79019e-58
-3.83401e-57
-7.68132e-56
-1.4468e-54
-2.51892e-53
-4.01346e-52
-5.78472e-51
-7.4425e-50
-8.41726e-49
-8.2208e-48
-6.78856e-47
-4.61907e-46
-2.49905e-45
-1.02218e-44
-2.95283e-44
-5.43876e-44
-7.38784e-44
-8.56669e-44
-8.64101e-44
-7.19085e-44
-5.05393e-44
-3.22288e-44
-1.95205e-44
-1.11318e-44
-5.99641e-45
-3.02303e-45
-1.47731e-45
-7.13859e-46
-3.39164e-46
-1.59395e-46
-7.44841e-47
-3.47654e-47
-1.62808e-47
-7.80045e-48
-3.90442e-48
-2.13703e-48
-1.38211e-48
-1.16795e-48
-1.30698e-48
-1.69987e-48
-2.50542e-48
-4.40807e-48
-1.01197e-47
-2.98505e-47
-1.01641e-46
-3.61589e-46
-1.27018e-45
-4.05523e-45
-1.13864e-44
-2.78554e-44
-5.4342e-44
-7.88339e-44
-9.12668e-44
-9.3137e-44
-8.53457e-44
-6.75282e-44
-4.77297e-44
-3.1922e-44
-2.16424e-44
-1.60753e-44
-1.3804e-44
-1.38021e-44
-1.50213e-44
-1.70768e-44
-1.96694e-44
-2.26714e-44
-2.5846e-44
-2.91841e-44
-3.28159e-44
-3.65597e-44
-3.89059e-44
-3.88327e-44
-3.74389e-44
-3.3849e-44
-2.80733e-44
-2.12897e-44
-1.51239e-44
-1.0272e-44
-7.18321e-45
-5.72073e-45
-5.43924e-45
-5.88247e-45
-7.41981e-45
-2.34196e-47
-7.50895e-49
-1.50335e-50
-3.73903e-52
-1.78973e-53
-7.39456e-54
-1.66992e-53
-3.48832e-53
-5.03496e-53
-4.87337e-53
-3.20189e-53
-1.46619e-53
-4.96125e-54
-1.29501e-54
-2.71905e-55
-4.74434e-56
-7.06787e-57
-9.25029e-58
-1.61365e-58
-8.47469e-58
-1.25822e-56
-1.67598e-55
-1.96222e-54
-1.99748e-53
-1.74198e-52
-1.27359e-51
-7.59208e-51
-3.56997e-50
-1.29135e-49
-3.51285e-49
-6.57204e-49
-7.64959e-49
-5.6866e-49
-2.76262e-49
-1.03067e-49
-3.19702e-50
-8.99965e-51
-2.42933e-51
-6.41099e-52
-1.66148e-52
-4.2733e-53
-1.09378e-53
-2.81118e-54
-7.41004e-55
-2.02335e-55
-5.81724e-56
-1.77036e-56
-5.69955e-57
-1.96354e-57
-7.44011e-58
-3.31209e-58
-2.10838e-58
-3.73926e-58
-3.87422e-57
-6.61045e-56
-1.15747e-54
-1.97783e-53
-3.26563e-52
-5.1783e-51
-7.84256e-50
-1.12783e-48
-1.52641e-47
-1.91277e-46
-2.16188e-45
-2.12526e-44
-1.74224e-43
-1.1399e-42
-5.5622e-42
-1.79099e-41
-2.68786e-41
-2.59966e-41
-1.60654e-41
-6.29394e-42
-1.83884e-42
-4.24653e-43
-8.38216e-44
-1.46457e-44
-2.29648e-45
-3.25143e-46
-4.18389e-47
-4.91603e-48
-5.30727e-49
-5.29341e-50
-4.92064e-51
-4.28409e-52
-3.515e-53
-2.72388e-54
-2.00283e-55
-1.40535e-56
-9.44839e-58
-6.12246e-59
-3.85693e-60
-2.39906e-61
-2.76932e-62
-3.2986e-61
-8.55079e-60
-2.1325e-58
-5.04691e-57
-1.12335e-55
-2.36404e-54
-4.63788e-53
-8.4084e-52
-1.39408e-50
-2.08848e-49
-2.78844e-48
-3.26619e-47
-3.29604e-46
-2.80525e-45
-1.9631e-44
-1.0903e-43
-4.56814e-43
-1.3479e-42
-2.50838e-42
-3.40602e-42
-3.94309e-42
-3.97061e-42
-3.29589e-42
-2.30208e-42
-1.45652e-42
-8.74971e-43
-4.94499e-43
-2.63893e-43
-1.31607e-43
-6.35973e-44
-3.03804e-44
-1.42641e-44
-6.6253e-45
-3.06029e-45
-1.41225e-45
-6.53867e-46
-3.09863e-46
-1.5336e-46
-8.29722e-47
-5.29797e-47
-4.41402e-47
-4.88253e-47
-6.27801e-47
-9.1413e-47
-1.58306e-46
-3.57045e-46
-1.03857e-45
-3.5091e-45
-1.24239e-44
-4.36993e-44
-1.39786e-43
-3.93133e-43
-9.6487e-43
-1.89157e-42
-2.74991e-42
-3.17983e-42
-3.23821e-42
-2.96127e-42
-2.33631e-42
-1.64501e-42
-1.09502e-42
-7.38313e-43
-5.44811e-43
-4.64676e-43
-4.61935e-43
-5.00087e-43
-5.65895e-43
-6.49134e-43
-7.45565e-43
-8.47307e-43
-9.54146e-43
-1.07043e-42
-1.19102e-42
-1.26657e-42
-1.26377e-42
-1.21837e-42
-1.10094e-42
-9.12899e-43
-6.91461e-43
-4.90764e-43
-3.32801e-43
-2.3219e-43
-1.84379e-43
-1.74863e-43
-1.89054e-43
-2.37682e-43
-6.81358e-45
-2.22657e-46
-4.54719e-48
-1.18717e-49
-5.86997e-51
-2.20579e-51
-4.60297e-51
-9.26782e-51
-1.30653e-50
-1.23523e-50
-7.93937e-51
-3.54764e-51
-1.16561e-51
-2.93599e-52
-5.92211e-53
-9.90382e-54
-1.41413e-54
-1.77299e-55
-2.40124e-56
-5.93837e-56
-8.9012e-55
-1.23635e-53
-1.5222e-52
-1.63929e-51
-1.51923e-50
-1.1835e-49
-7.52567e-49
-3.7655e-48
-1.43884e-47
-4.08063e-47
-8.10448e-47
-9.84155e-47
-7.55487e-47
-3.69783e-47
-1.36958e-47
-4.2262e-48
-1.18793e-48
-3.20513e-49
-8.42781e-50
-2.17196e-50
-5.51495e-51
-1.39038e-51
-3.51673e-52
-9.12514e-53
-2.45061e-53
-6.92254e-54
-2.06822e-54
-6.53423e-55
-2.20862e-55
-8.2132e-56
-3.5694e-56
-2.14462e-56
-2.7765e-56
-2.07104e-55
-3.39905e-54
-6.00276e-53
-1.04256e-51
-1.75554e-50
-2.84501e-49
-4.4102e-48
-6.50615e-47
-9.07268e-46
-1.17865e-44
-1.38926e-43
-1.42806e-42
-1.22219e-41
-8.33382e-41
-4.22987e-40
-1.41235e-39
-2.14665e-39
-2.07095e-39
-1.2758e-39
-4.91614e-40
-1.40717e-40
-3.17365e-41
-6.12175e-42
-1.04561e-42
-1.60299e-43
-2.21784e-44
-2.78696e-45
-3.19472e-46
-3.36205e-47
-3.26577e-48
-2.9564e-49
-2.50595e-50
-2.00277e-51
-1.51174e-52
-1.08345e-53
-7.41781e-55
-4.86892e-56
-3.08361e-57
-1.90243e-58
-1.16091e-59
-9.96912e-61
-7.21941e-60
-1.9448e-58
-5.06296e-57
-1.25492e-55
-2.94383e-54
-6.488e-53
-1.33295e-51
-2.52884e-50
-4.38223e-49
-6.8506e-48
-9.52467e-47
-1.15884e-45
-1.21117e-44
-1.06432e-43
-7.67003e-43
-4.37696e-42
-1.87937e-41
-5.66605e-41
-1.06496e-40
-1.4452e-40
-1.6703e-40
-1.67955e-40
-1.39081e-40
-9.65687e-41
-6.06562e-41
-3.61688e-41
-2.02729e-41
-1.07251e-41
-5.29398e-42
-2.53135e-42
-1.19606e-42
-5.55194e-43
-2.5493e-43
-1.16411e-43
-5.31106e-44
-2.43081e-44
-1.13917e-44
-5.57384e-45
-2.98059e-45
-1.87943e-45
-1.54446e-45
-1.68926e-45
-2.14697e-45
-3.0877e-45
-5.26247e-45
-1.16592e-44
-3.34333e-44
-1.12058e-43
-3.94686e-43
-1.39e-42
-4.45466e-42
-1.25468e-41
-3.08886e-41
-6.083e-41
-8.85666e-41
-1.02238e-40
-1.03868e-40
-9.4746e-41
-7.44891e-41
-5.22195e-41
-3.45816e-41
-2.31828e-41
-1.69942e-41
-1.43964e-41
-1.42262e-41
-1.53157e-41
-1.72388e-41
-1.9678e-41
-2.25021e-41
-2.54687e-41
-2.85731e-41
-3.19481e-41
-3.5462e-41
-3.76389e-41
-3.74972e-41
-3.61047e-41
-3.25654e-41
-2.69652e-41
-2.03741e-41
-1.44316e-41
-9.76128e-42
-6.78872e-42
-5.371e-42
-5.07926e-42
-5.48241e-42
-6.85908e-42
-1.94732e-42
-6.50406e-44
-1.35222e-45
-3.64316e-47
-1.81524e-48
-6.32647e-49
-1.2153e-48
-2.33857e-48
-3.20217e-48
-2.94586e-48
-1.84892e-48
-8.05468e-49
-2.56672e-49
-6.22996e-50
-1.20524e-50
-1.92818e-51
-2.63315e-52
-3.16135e-53
-3.75832e-54
-4.29114e-54
-6.33233e-53
-9.1889e-52
-1.19074e-50
-1.35563e-49
-1.33307e-48
-1.10414e-47
-7.47189e-47
-3.96413e-46
-1.59123e-45
-4.66895e-45
-9.68615e-45
-1.22003e-44
-9.59283e-45
-4.70534e-45
-1.73771e-45
-5.31209e-46
-1.48523e-46
-3.99085e-47
-1.04224e-47
-2.6543e-48
-6.64037e-49
-1.6471e-49
-4.09807e-50
-1.04709e-50
-2.7674e-51
-7.68791e-52
-2.25719e-52
-7.0043e-53
-2.3248e-53
-8.49249e-54
-3.61388e-54
-2.07954e-54
-2.16699e-54
-1.07605e-53
-1.62681e-52
-2.87958e-51
-5.07616e-50
-8.71711e-49
-1.44472e-47
-2.29301e-46
-3.46798e-45
-4.97839e-44
-6.70661e-43
-8.26375e-42
-8.91811e-41
-7.99613e-40
-5.69798e-39
-3.01449e-38
-1.04631e-37
-1.60894e-37
-1.54646e-37
-9.48141e-38
-3.58512e-38
-1.00388e-38
-2.20825e-39
-4.16049e-40
-6.94442e-41
-1.04067e-41
-1.40675e-42
-1.72601e-43
-1.92971e-44
-1.97897e-45
-1.87128e-46
-1.64917e-47
-1.36025e-48
-1.05846e-49
-7.77616e-51
-5.42854e-52
-3.62449e-53
-2.32096e-54
-1.43587e-55
-8.67437e-57
-5.19808e-58
-3.76536e-59
-1.43115e-58
-4.00995e-57
-1.0982e-55
-2.86541e-54
-7.07557e-53
-1.64155e-51
-3.54801e-50
-7.07371e-49
-1.2861e-47
-2.10496e-46
-3.05617e-45
-3.8712e-44
-4.19789e-43
-3.81325e-42
-2.83204e-41
-1.66124e-40
-7.31083e-40
-2.25238e-39
-4.2739e-39
-5.79449e-39
-6.68464e-39
-6.7134e-39
-5.5467e-39
-3.82947e-39
-2.38929e-39
-1.41529e-39
-7.87315e-40
-4.13186e-40
-2.01977e-40
-9.56243e-41
-4.47136e-41
-2.0528e-41
-9.32065e-42
-4.20792e-42
-1.89778e-42
-8.58437e-43
-3.9771e-43
-1.92317e-43
-1.01619e-43
-6.32719e-44
-5.12902e-44
-5.54739e-44
-6.96657e-44
-9.89171e-44
-1.6587e-43
-3.609e-43
-1.01978e-42
-3.38903e-42
-1.1868e-41
-4.18421e-41
-1.34323e-40
-3.78807e-40
-9.35245e-40
-1.84957e-39
-2.69566e-39
-3.10521e-39
-3.14661e-39
-2.86199e-39
-2.24114e-39
-1.56362e-39
-1.0298e-39
-6.86265e-40
-4.99726e-40
-4.20455e-40
-4.12934e-40
-4.41996e-40
-4.94533e-40
-5.61388e-40
-6.38681e-40
-7.19374e-40
-8.03367e-40
-8.94476e-40
-9.89574e-40
-1.04726e-39
-1.04065e-39
-9.99737e-40
-8.99126e-40
-7.4274e-40
-5.59222e-40
-3.94957e-40
-2.66236e-40
-1.84436e-40
-1.45307e-40
-1.36948e-40
-1.47444e-40
-1.83337e-40
-5.59647e-40
-1.90609e-41
-3.9948e-43
-1.08409e-44
-5.32165e-46
-1.75788e-46
-3.10159e-46
-5.6584e-46
-7.48788e-46
-6.68223e-46
-4.09026e-46
-1.73597e-46
-5.35949e-47
-1.25185e-47
-2.31936e-48
-3.54365e-49
-4.61957e-50
-5.30437e-51
-5.80887e-52
-3.24743e-52
-4.46543e-51
-6.78047e-50
-9.26901e-49
-1.11697e-47
-1.16663e-46
-1.02783e-45
-7.35167e-45
-4.1347e-44
-1.74003e-43
-5.26426e-43
-1.14459e-42
-1.4892e-42
-1.19151e-42
-5.83037e-43
-2.12995e-43
-6.42995e-44
-1.78405e-44
-4.76344e-45
-1.23313e-45
-3.09891e-46
-7.63132e-47
-1.86146e-47
-4.55562e-48
-1.14686e-48
-2.98523e-49
-8.16336e-50
-2.35791e-50
-7.19303e-51
-2.34631e-51
-8.42691e-52
-3.51844e-52
-1.95471e-52
-1.7779e-52
-5.76231e-52
-7.49409e-51
-1.31364e-49
-2.34188e-48
-4.09575e-47
-6.94325e-46
-1.12861e-44
-1.7477e-43
-2.57666e-42
-3.59407e-41
-4.62125e-40
-5.24427e-39
-4.93856e-38
-3.68909e-37
-2.04177e-36
-7.40728e-36
-1.1546e-35
-1.10482e-35
-6.73426e-36
-2.49392e-36
-6.82511e-37
-1.46317e-37
-2.69284e-38
-4.39314e-39
-6.43679e-40
-8.50313e-41
-1.01888e-41
-1.11111e-42
-1.11043e-43
-1.02201e-44
-8.76918e-46
-7.03659e-47
-5.33076e-48
-3.8098e-49
-2.5899e-50
-1.68275e-51
-1.05088e-52
-6.35038e-54
-3.75852e-55
-2.21703e-56
-1.47475e-57
-2.66189e-57
-7.65578e-56
-2.2151e-54
-6.11266e-53
-1.59642e-51
-3.91568e-50
-8.94024e-49
-1.88027e-47
-3.59884e-46
-6.1846e-45
-9.39876e-44
-1.24171e-42
-1.39885e-41
-1.31442e-40
-1.0063e-39
-6.06769e-39
-2.73615e-38
-8.6133e-38
-1.64902e-37
-2.23258e-37
-2.56981e-37
-2.57788e-37
-2.12519e-37
-1.45917e-37
-9.04765e-38
-5.32768e-38
-2.94349e-38
-1.53344e-38
-7.42769e-39
-3.48433e-39
-1.6132e-39
-7.32819e-40
-3.29107e-40
-1.46907e-40
-6.54884e-41
-2.92697e-41
-1.34014e-41
-6.40218e-42
-3.34163e-42
-2.05405e-42
-1.64233e-42
-1.7563e-42
-2.17846e-42
-3.05237e-42
-5.03388e-42
-1.07528e-41
-2.99255e-41
-9.8558e-41
-3.42912e-40
-1.20999e-39
-3.89011e-39
-1.09815e-38
-2.71833e-38
-5.39682e-38
-7.87029e-38
-9.04379e-38
-9.13976e-38
-8.2864e-38
-6.4605e-38
-4.48436e-38
-2.93628e-38
-1.94483e-38
-1.40669e-38
-1.17545e-38
-1.14713e-38
-1.2206e-38
-1.35678e-38
-1.53081e-38
-1.73162e-38
-1.93963e-38
-2.15467e-38
-2.38718e-38
-2.63025e-38
-2.77322e-38
-2.74638e-38
-2.63015e-38
-2.35653e-38
-1.94043e-38
-1.45456e-38
-1.02349e-38
-6.871e-39
-4.73823e-39
-3.7156e-39
-3.4883e-39
-3.74382e-39
-4.62231e-39
-1.63287e-37
-5.63403e-39
-1.17209e-40
-3.12149e-42
-1.48531e-43
-4.76894e-44
-7.71674e-44
-1.32441e-43
-1.68559e-43
-1.4551e-43
-8.67747e-44
-3.58511e-44
-1.07103e-44
-2.40409e-45
-4.25954e-46
-6.20547e-47
-7.70951e-48
-8.45348e-49
-8.7147e-50
-2.65307e-50
-3.09568e-49
-4.92417e-48
-7.05859e-47
-9.03852e-46
-1.00669e-44
-9.48342e-44
-7.27949e-43
-4.34412e-42
-1.91533e-41
-5.9579e-41
-1.34373e-40
-1.8009e-40
-1.45936e-40
-7.10048e-41
-2.55981e-41
-7.61743e-42
-2.09497e-42
-5.55134e-43
-1.423e-43
-3.52645e-44
-8.54681e-45
-2.05041e-45
-4.93793e-46
-1.22591e-46
-3.14579e-47
-8.47674e-48
-2.41168e-48
-7.23964e-49
-2.32278e-49
-8.20894e-50
-3.36679e-50
-1.8167e-50
-1.51903e-50
-3.37303e-50
-3.45787e-49
-5.87614e-48
-1.05177e-46
-1.86559e-45
-3.23111e-44
-5.37938e-43
-8.51274e-42
-1.27885e-40
-1.83083e-39
-2.45144e-38
-2.93486e-37
-2.91234e-36
-2.28702e-35
-1.32728e-34
-5.05176e-34
-7.98992e-34
-7.64736e-34
-4.63573e-34
-1.6786e-34
-4.48753e-35
-9.37217e-36
-1.68597e-36
-2.69005e-37
-3.85619e-38
-4.98105e-39
-5.83215e-40
-6.20638e-41
-6.04686e-42
-5.418e-43
-4.52821e-44
-3.53518e-45
-2.60177e-46
-1.80842e-47
-1.19748e-48
-7.58402e-50
-4.622e-51
-2.73235e-52
-1.58487e-53
-9.21414e-55
-5.90444e-56
-4.88447e-56
-1.38115e-54
-4.23249e-53
-1.24015e-51
-3.43917e-50
-8.95232e-49
-2.16713e-47
-4.82481e-46
-9.75093e-45
-1.76381e-43
-2.81101e-42
-3.87883e-41
-4.54358e-40
-4.41734e-39
-3.48559e-38
-2.15962e-37
-9.97278e-37
-3.20656e-36
-6.18928e-36
-8.36232e-36
-9.5987e-36
-9.61734e-36
-7.90972e-36
-5.40115e-36
-3.32941e-36
-1.9501e-36
-1.0707e-36
-5.54068e-37
-2.66095e-37
-1.23767e-37
-5.67684e-38
-2.55286e-38
-1.13436e-38
-5.00733e-39
-2.2062e-39
-9.74094e-40
-4.4062e-40
-2.07873e-40
-1.07138e-40
-6.49968e-41
-5.12481e-41
-5.41715e-41
-6.63363e-41
-9.16783e-41
-1.48629e-40
-3.11561e-40
-8.5361e-40
-2.78453e-39
-9.61804e-39
-3.39565e-38
-1.09304e-37
-3.08779e-37
-7.66118e-37
-1.52647e-36
-2.22657e-36
-2.55155e-36
-2.57153e-36
-2.32329e-36
-1.80283e-36
-1.24459e-36
-8.09998e-37
-5.33141e-37
-3.83004e-37
-3.17834e-37
-3.08166e-37
-3.25916e-37
-3.59723e-37
-4.03184e-37
-4.53213e-37
-5.04555e-37
-5.57193e-37
-6.13892e-37
-6.73217e-37
-7.06699e-37
-6.97007e-37
-6.649e-37
-5.93046e-37
-4.86419e-37
-3.62738e-37
-2.54122e-37
-1.69797e-37
-1.16491e-37
-9.08859e-38
-8.4957e-38
-9.0853e-38
-1.11311e-37
-4.80314e-35
-1.66435e-36
-3.38157e-38
-8.64482e-40
-3.96141e-41
-1.27243e-41
-1.88547e-41
-3.02199e-41
-3.68169e-41
-3.06646e-41
-1.78001e-41
-7.15272e-42
-2.06501e-42
-4.44825e-43
-7.52697e-44
-1.04421e-44
-1.23476e-45
-1.29131e-46
-1.268e-47
-2.42127e-48
-2.08093e-47
-3.49442e-46
-5.35501e-45
-7.31639e-44
-8.72328e-43
-8.81209e-42
-7.24493e-41
-4.60147e-40
-2.12836e-39
-6.7992e-39
-1.58626e-38
-2.18591e-38
-1.78821e-38
-8.63165e-39
-3.06617e-39
-8.98649e-40
-2.44933e-40
-6.43855e-41
-1.63371e-41
-3.99251e-42