/*--------------------------------*- C++ -*----------------------------------*\
| =========                 |                                                 |
| \\      /  F ield         | OpenFOAM: The Open Source CFD Toolbox           |
|  \\    /   O peration     | Version:  2.3.0                                 |
|   \\  /    A nd           | Web:      www.OpenFOAM.org                      |
|    \\/     M anipulation  |                                                 |
\*---------------------------------------------------------------------------*/
FoamFile
{
    version     2.0;
    format      ascii;
    class       volScalarField;
    location    "0.08";
    object      epsilon;
}
// * * * * * * * * * * * * * * * * * * * * * * * * * * * * * * * * * * * * * //

dimensions      [0 2 -3 0 0 0 0];

internalField   nonuniform List<scalar> 
12225
(
111825
1.5138e+06
1.41208e+06
1.2255e+06
1.12408e+06
1.05035e+06
924527
811628
724277
651891
588774
534524
491268
454951
425104
398000
374801
341289
14793.6
195027
240619
235862
227083
223397
216221
202965
187202
173019
161680
151334
141697
133429
126547
120596
116818
116455
1766.36
19808.6
35532.7
42242.1
45229
47508.9
51175.7
52229.6
51386.4
49798.9
48812.9
47843.3
47056.8
46173.6
45195.9
44345.5
43628.7
44188.5
292.189
2339.19
5922.52
8685.97
10562.4
11942.8
13603.4
14735.2
15014.6
15006.3
15052.4
15128.5
15309.9
15471.2
15790
15915.1
16066.9
16534.8
221.627
1121.6
1807.7
2551.53
3363.01
4018.8
4687.8
5168
5372.42
5422.64
5471.4
5512.76
5619.89
5732.31
5895.4
6043.8
6138.23
6333.9
215.993
1022.04
1226.39
1461.51
1744.05
2065.57
2280.06
2393.42
2417.85
2409.52
2406.11
2414.42
2446.21
2516.05
2590.79
2681.32
2738.6
2839.59
135.954
857.039
1064.26
1212.74
1358.28
1507.7
1550.45
1543.7
1480.08
1396.69
1350.58
1335.54
1336.99
1351.35
1379.74
1430.02
1461.75
1519.55
96.0341
750.273
1006.82
1139.39
1253.34
1295.71
1302.68
1274.92
1177.14
1079.66
1020.85
992.787
985.452
987.052
994.701
1016.5
1032.52
1062.32
86.5812
738.845
959.449
1079.79
1162.72
1162.97
1157.54
1123.93
1028.88
934.724
874.159
842.259
829.86
827.713
828.775
834.615
840.207
849.844
95.3308
774.411
934.308
990.623
1031.62
1023.76
1016.19
991.172
923.042
842.119
786.975
756.6
742.791
738.229
735.739
734.257
730.529
727.731
149.404
824.536
863.41
868.273
874.697
884.072
880.687
869.124
830.799
768.802
723.764
698
685.156
679.981
675.124
669.926
659.646
648.931
249.311
743.374
713.754
688.206
691.598
713.234
734.226
741.612
731.778
698.577
665.163
645.218
634.675
629.776
624.628
618.177
606.671
592.891
271.712
588.094
536.431
505.09
510.453
537.599
590.669
618.472
619.718
612.895
594.712
582.447
576.87
574.654
572.67
569.227
561.999
550.274
308.25
585.516
523.058
451.566
432.454
439.729
454.97
490.795
509.471
511.124
508.484
506.738
508.003
513.259
517.459
518.432
517.886
515.259
294.953
701.059
623.921
501.624
426.447
399.004
392.106
398.276
413.122
415.763
418.588
425.942
444.191
462.366
474.974
481.826
484.122
484.165
296.651
734.625
645.421
509.851
409.262
359.253
338.831
341.692
351.342
355.773
365.392
387.722
415.492
439.376
456.183
465.881
469.915
470.561
224.444
717.39
649.426
516.059
409.55
354.377
324.32
326.792
339.083
344.733
353.059
372.101
402.68
430.527
450.732
462.717
467.978
468.995
308.092
728.428
652.585
522.61
416.828
368.173
346.334
352.121
370.077
378.031
388.919
407.46
428.977
447.981
461.164
468.182
470.41
470.241
391.79
771.856
685.02
547.872
463.094
431.874
418.13
428.431
456.229
463.875
469.356
475.053
480.787
485.211
487.211
487.368
486.598
483.543
235.246
737.846
689.774
623.451
588.072
584.607
580.796
594.683
608.424
604.763
590.91
566.27
547.524
535.446
527.176
518.945
508.489
493.84
91.6882
497.843
506.598
526.19
576.357
646.107
685.593
697.805
702.713
698.285
676.869
636.189
604.799
581.908
562.85
543.805
523.189
500.575
151.511
347.765
351.112
411.696
557.601
688.531
757.758
770.917
779.004
775.815
752.105
707.218
670.007
637.357
605.86
574.203
543.056
513.628
217.282
335.755
315.264
369.731
540.609
709.64
813.188
863.822
875.781
873.788
855.583
815.674
776.374
735.925
693.355
650.023
609.519
573.667
271.901
390.248
341.762
376.824
533.079
727.279
889.488
970.477
1004.54
1012.42
1010.32
996.846
973.127
942.11
902.272
856.185
812.159
771.121
332.39
497.161
430.983
453.881
589.865
810.008
1031.24
1169.03
1249.4
1301.2
1348.64
1399.92
1445.68
1467.12
1465.9
1447.46
1408.29
1361.63
371.981
650.851
614.296
672.493
851.835
1203.19
1548.34
1835.72
2062.05
2245.57
2460.5
2714.14
2961.51
3135.26
3191.03
3187.27
3159.24
3083.4
337.609
818.762
1164.36
1862.22
2713.44
3541.34
4411.95
5168.81
5756.21
6295.65
6983.46
7744
8341.46
8642.38
8679.53
8619.52
8463.45
8166.48
280.447
2425.04
7402.39
12742.3
16355.2
19019.6
21400.8
22922.8
24196.1
25628.2
27142.4
28419.7
29110.5
29046.4
28601.2
28005.4
27293.8
26311.8
2096.8
38920.2
90048.7
114865
125731
130754
132303
131881
130583
128537
126239
121942
116911
111203
105397
100112
95244.6
90920.5
20338.1
535664
829103
852335
840623
813870
767720
715387
666811
617300
565216
514426
468932
435751
407571
383094
362838
347391
12.473
6.97044
9.17304
12.4379
16.5568
21.2973
26.4744
31.9878
37.7989
43.8983
50.3381
57.1981
64.5607
72.4898
81.043
90.2821
100.257
111.01
122.555
134.928
148.148
162.267
177.371
193.569
211.008
229.808
250.093
272.025
295.774
321.516
349.391
379.675
412.509
448.099
487.017
529.501
576.28
628.603
685.87
747.901
815.232
887.404
964.24
1046.45
1132.6
1222.93
1317.49
1415.74
1517.81
1623.45
1732.39
1844.74
1960.72
2080.45
2203.96
2331.52
2463.3
2599.38
2740.34
2886.27
3036.74
3193.57
3356.87
3527.02
3705.07
3892.87
4091.1
4298.67
4517.68
4748.9
4992.3
5249.37
5520.26
5804.76
6102.63
6413.3
6736.67
7072.71
7420.22
7776.92
8140.88
8510.51
8883.72
9258.39
9631.54
10000.2
10362.5
10715.1
11054.4
11375.8
11677.9
11959.8
12218
12453.9
12665.5
12851.5
13013.9
13153.2
13269.3
13363.9
13439.6
13500.2
13541.3
13572.7
13590.8
13601.2
13606.2
13609.4
13609.5
13606.5
13605.9
13607.3
13610.1
13615.6
13623.1
13629.8
13636.6
13641.9
13644
13640.7
13630
13609.8
13578.2
13532.8
13471.1
13391.6
13293.4
13175.3
13036.9
12877.5
12698.4
12501.3
12287.3
12057.9
11815.9
11566.6
11318.4
11081.4
10858.3
10648.3
10441.9
10239.7
10042.7
9852.08
9674.69
9536.88
9428.73
9340.68
9267.11
9204.07
9148.91
9099.2
9053.16
9010.15
8969.23
8930.05
8893.36
8860.38
8832.75
8813.58
8803.09
8799.97
8805.55
8823.34
8860.13
8928.12
9005.78
9086.76
9171.51
9261.29
9356.35
9456.1
9559.56
9665.24
9771.64
9869.77
9960.47
10006.7
10000.1
9594.26
27.9303
13.8167
9.89838
9.44836
10.3397
11.9757
14.0312
16.3989
19.033
21.9104
25.0328
28.4187
32.0911
36.0736
40.3948
45.0901
50.1923
55.7304
61.7382
68.2501
75.2982
82.9359
91.2193
100.208
109.972
120.575
132.055
144.476
157.906
172.423
188.04
204.806
222.778
241.995
262.535
284.449
307.807
332.707
359.072
386.894
416.212
446.987
479.245
512.803
547.389
583.27
620.375
658.742
698.35
738.935
780.658
823.657
868.207
914.391
962.351
1012.26
1064.26
1118.51
1175.25
1234.5
1296.37
1361.49
1429.71
1501.38
1576.74
1656.05
1739.51
1826.75
1917.92
2013.77
2113.26
2217.09
2324.74
2435.78
2549.79
2666.31
2784.89
2905.1
3026.17
3146.97
3266.63
3384.77
3500.58
3613.2
3722
3826.3
3925.5
4019.14
4107.07
4189.38
4264.55
4335.22
4401.11
4460.9
4517.43
4571.15
4622.8
4673.55
4723.78
4770.84
4815.41
4858.21
4898.56
4937.97
4975.88
5013.23
5050.38
5087.72
5124.77
5161.48
5198.71
5236
5273.13
5309.79
5345.64
5379.84
5412.49
5442.82
5470.22
5494.03
5513.62
5528.46
5538.01
5541.67
5539.09
5529.74
5513.62
5490.86
5461.34
5425.22
5383.08
5335.54
5283.06
5226.3
5166.21
5104.64
5044.44
4989.09
4939.77
4896.1
4854.53
4814.42
4775.75
4738.67
4704.42
4677.8
4657.52
4641.72
4628.95
4618.15
4608.55
4599.49
4590.45
4581.13
4571.25
4560.72
4549.64
4538.39
4527.5
4517.9
4509.71
4502.53
4496.67
4493.08
4493.17
4498.57
4506.47
4516.14
4527.79
4541.81
4558.34
4577.07
4597.58
4619.39
4641.8
4663.45
4683.78
4699.98
4710.14
4662.19
57.1389
25.3456
15.8551
13.1387
12.9007
13.7437
15.2443
17.1785
19.4667
22.0688
24.97
28.1657
31.6633
35.4717
39.6025
44.0722
48.9038
54.1242
59.7506
65.8159
72.3481
79.3833
86.9579
95.1098
103.875
113.275
123.329
134.054
145.487
157.664
170.613
184.29
198.745
213.992
230.057
246.963
264.734
283.365
302.791
323.016
344.073
365.967
388.691
412.209
436.527
461.756
487.85
514.775
542.74
571.5
601.43
632.292
664.45
697.932
732.801
769.137
807.028
846.572
887.847
930.864
975.7
1022.53
1071.36
1122.29
1175.38
1230.62
1288.08
1347.66
1409.3
1473.29
1538.87
1606.56
1675.98
1746.84
1818.89
1891.89
1965.58
2039.71
2113.91
2187.78
2260.99
2333.38
2404.73
2474.79
2543.41
2610.43
2675.72
2739.2
2801.01
2861.3
2919.85
2977.18
3033.44
3088.32
3142.59
3196.24
3249.15
3301.51
3352.48
3402.04
3450.21
3497.07
3542.49
3586.7
3629.65
3671.6
3712.74
3753.2
3792.95
3832.1
3870.88
3909.29
3947.23
3984.61
4021.36
4056.9
4091.41
4124.49
4155.78
4184.95
4211.64
4235.51
4256.24
4273.52
4287.01
4296.43
4301.31
4302.35
4298.76
4290.76
4278.46
4262
4241.67
4217.74
4190.61
4161.18
4130.8
4100.98
4072.6
4045.82
4019.6
3993.77
3968.45
3943.89
3920.56
3899.77
3881.48
3865.28
3850.6
3836.94
3823.85
3810.95
3797.89
3784.42
3770.26
3755.27
3739.35
3722.56
3705.07
3687.14
3668.94
3650.44
3631.87
3613.67
3596.45
3580.69
3566.05
3552.5
3540.24
3529.53
3520.61
3513.47
3507.95
3503.87
3500.91
3499.1
3498.19
3500.13
3503.62
3506.33
96.5835
40.4716
24.2407
19.1424
17.976
18.4156
19.722
21.6066
23.9374
26.6575
29.7455
33.1924
36.9886
41.1264
45.6027
50.4212
55.5975
61.1502
67.0817
73.4192
80.1851
87.4041
95.1038
103.314
112.057
121.345
131.189
141.601
152.605
164.236
176.538
189.461
203.048
217.299
232.223
247.799
263.963
280.686
298.058
316.117
334.889
354.382
374.598
395.557
417.305
439.899
463.323
487.601
512.894
539.089
566.39
594.719
624.192
654.984
687.083
720.536
755.407
791.749
829.594
868.954
909.857
952.358
996.469
1042.22
1089.58
1138.54
1189.14
1241.32
1294.99
1350.36
1406.81
1464.77
1524.01
1584.33
1645.58
1707.61
1770.3
1833.5
1897.03
1960.73
2024.46
2088.16
2151.77
2215.24
2278.53
2341.64
2404.49
2467.11
2529.61
2592.03
2654.25
2716.37
2778.4
2840.06
2901.39
2962.35
3022.69
3081.89
3139.39
3195.16
3248.76
3300.23
3349.47
3396.48
3441.29
3484.05
3524.98
3564.29
3602.17
3638.88
3674.72
3709.93
3744.62
3778.92
3812.97
3846.39
3879.45
3911.96
3943.7
3974.43
4003.89
4031.77
4057.76
4081.53
4102.66
4120.82
4135.66
4147.08
4154.42
4157.63
4156.65
4151.31
4141.56
4127.51
4109.32
4087.46
4062.74
4036.06
4008.15
3979.48
3950.07
3920.2
3890.26
3860.69
3831.93
3804.61
3778.96
3755.02
3732.55
3711.27
3690.88
3671.06
3651.52
3631.97
3612.09
3591.66
3570.47
3548.37
3525.35
3501.4
3476.62
3451.06
3424.88
3398.35
3371.86
3345.69
3319.83
3294.55
3270.15
3246.88
3225.08
3204.92
3186.48
3169.74
3154.64
3141.53
3130.42
3124.03
3121.04
3126.66
143.323
57.9189
34.0875
26.4024
24.3209
24.4562
25.7356
27.7488
30.3075
33.3247
36.764
40.6014
44.8186
49.3977
54.3268
59.6003
65.2247
71.2113
77.5592
84.274
91.3835
98.9055
106.861
115.276
124.168
133.545
143.419
153.802
164.712
176.175
188.225
200.78
213.884
227.594
241.936
256.924
272.601
288.993
306.079
323.894
342.438
361.717
381.746
402.558
424.209
446.746
470.179
494.55
519.973
546.433
574.054
602.839
632.75
664.06
696.735
730.8
766.292
803.238
841.644
881.501
922.804
965.558
1009.76
1055.39
1102.42
1150.81
1200.59
1251.73
1304.14
1358.01
1412.81
1468.94
1526.25
1584.61
1643.91
1704.11
1765.15
1826.98
1889.54
1952.78
2016.65
2081.18
2146.38
2212.27
2278.85
2346.08
2414.07
2482.87
2552.6
2623.27
2694.71
2766.83
2839.48
2912.28
2984.86
3057.12
3128.3
3197.81
3265.27
3330.03
3391.73
3450.07
3504.82
3555.88
3603.26
3647.1
3687.68
3725.32
3760.44
3793.47
3824.92
3855.3
3885.02
3914.44
3943.98
3973.47
4003.36
4033.63
4064.19
4094.9
4125.55
4155.85
4185.45
4213.95
4240.86
4265.69
4287.96
4307.16
4322.66
4334.02
4340.55
4342.29
4338.76
4329.73
4315.19
4295.32
4270.63
4241.79
4209.49
4174.42
4137.17
4098.41
4058.87
4019.28
3980.28
3942.48
3906.33
3872.09
3839.76
3809.2
3780.21
3752.48
3725.72
3699.63
3673.8
3647.91
3621.62
3594.63
3566.78
3537.84
3507.83
3476.75
3444.65
3411.72
3378.2
3344.37
3310.49
3276.78
3243.64
3211.31
3180.21
3150.68
3122.97
3097.24
3073.59
3052.52
3034.25
3021.2
3012.09
3012.91
197.002
77.3944
45.1787
34.6533
31.5481
31.328
32.5587
34.6854
37.4555
40.7431
44.4945
48.6717
53.2458
58.1901
63.4871
69.1261
75.1059
81.4323
88.1074
95.1214
102.51
110.29
118.481
127.11
136.197
145.754
155.8
166.351
177.428
189.063
201.305
214.115
227.498
241.533
256.25
271.658
287.773
304.61
322.171
340.462
359.532
379.41
400.131
421.743
444.307
467.875
492.478
518.166
545.038
573.143
602.554
633.311
665.294
698.818
733.842
770.362
808.387
847.913
888.914
931.351
975.185
1020.38
1066.91
1114.72
1163.75
1213.97
1265.39
1317.99
1371.69
1426.68
1482.49
1539.49
1597.63
1656.87
1717.19
1778.59
1841.09
1904.75
1969.58
2035.64
2102.99
2171.71
2241.94
2313.79
2387.4
2462.86
2540.19
2619.43
2700.63
2783.76
2868.56
2954.76
3042.04
3129.91
3217.66
3305.05
3391.13
3475.18
3556.36
3633.81
3707.08
3775.4
3838.38
3895.77
3947.48
3993.65
4034.57
4070.72
4102.66
4131.09
4156.78
4180.55
4203.14
4225.26
4247.67
4270.5
4294.43
4319.71
4346.44
4374.64
4404.16
4434.77
4466.09
4497.67
4528.92
4559.2
4587.8
4613.96
4636.84
4655.6
4669.36
4677.4
4679.37
4674.59
4662.7
4643.64
4617.69
4585.37
4547.38
4504.55
4457.81
4408.21
4356.84
4304.74
4252.9
4202.17
4153.24
4106.62
4062.53
4020.99
3981.87
3944.92
3909.82
3876.25
3843.74
3811.82
3780.05
3747.97
3715.26
3681.52
3646.61
3610.44
3572.98
3534.3
3494.54
3453.96
3412.85
3371.49
3330.38
3289.8
3250.22
3212.13
3175.97
3142.04
3110.62
3082.28
3057.43
3038.08
3023.08
3016.93
260.744
99.4363
57.5303
43.7693
39.4488
38.782
39.8899
42.0698
44.9922
48.4856
52.4755
56.91
61.7505
66.9646
72.5317
78.4378
84.678
91.259
98.1891
105.449
113.084
121.115
129.564
138.463
147.839
157.712
168.107
179.05
190.568
202.7
215.502
228.962
243.065
257.904
273.509
289.885
307.048
325.013
343.803
363.443
383.97
405.422
427.842
451.285
475.821
501.509
528.391
556.525
586.013
616.93
649.337
683.298
718.627
755.65
794.326
834.622
876.513
919.957
964.893
1011.25
1058.94
1107.89
1158.04
1209.31
1261.62
1314.92
1369.22
1424.55
1480.83
1538.29
1596.53
1655.89
1716.41
1778.11
1841.04
1905.29
1970.97
2038.19
2107.1
2177.82
2250.52
2325.38
2402.6
2482.39
2564.93
2650.36
2738.77
2830.23
2924.81
3022.44
3122.88
3225.71
3330.48
3436.6
3543.06
3649.46
3754.58
3857.3
3956.43
4050.89
4139.58
4221.55
4296.08
4362.67
4421.08
4471.36
4513.81
4548.98
4577.61
4600.63
4619.12
4634.22
4647.07
4658.81
4670.61
4683.04
4697.09
4713.4
4732.39
4754.28
4779.14
4806.81
4837
4869.21
4902.78
4936.94
4970.76
5003.23
5033.19
5059.46
5080.8
5096.03
5104.23
5104.53
5096.23
5078.74
5052.11
5016.73
4973.23
4922.52
4865.79
4804.39
4739.79
4673.45
4606.75
4540.92
4476.98
4415.77
4357.77
4303.19
4252.06
4204.14
4159.12
4116.69
4076.3
4037.36
3999.3
3961.52
3923.53
3884.75
3844.85
3803.66
3760.99
3716.79
3671.14
3624.23
3576.33
3527.76
3479.1
3430.65
3382.98
3336.67
3292.34
3250.44
3211.42
3175.93
3144.48
3118.75
3097.73
3084.05
337.903
124.639
71.1663
53.6376
47.8655
46.6263
47.5155
49.6707
52.6736
56.3022
60.4591
65.0776
70.1114
75.5249
81.2948
87.4091
93.8638
100.669
107.842
115.362
123.283
131.634
140.443
149.75
159.589
169.991
180.988
192.616
204.91
217.913
231.687
246.242
261.55
277.711
294.758
312.699
331.553
351.342
372.097
393.853
416.652
440.539
465.57
491.813
519.345
548.241
578.557
610.363
643.765
678.849
715.668
754.312
794.516
836.584
880.462
926.067
973.317
1022.11
1072.32
1123.81
1176.47
1230.15
1284.72
1340.1
1396.19
1452.95
1510.41
1568.6
1627.54
1687.44
1748.05
1809.72
1872.58
1936.73
2002.3
2069.47
2138.45
2209.46
2282.72
2358.49
2437.04
2518.64
2603.59
2692.19
2784.73
2881.42
2982.45
3087.93
3197.95
3312.47
3431.24
3553.73
3679.36
3807.41
3936.55
4066.16
4194.68
4320.55
4442.16
4557.95
4666.39
4766.12
4855.99
4935.18
5003.22
5060.01
5105.76
5141.06
5166.74
5183.97
5194.18
5198.7
5199.22
5197.27
5194.52
5192.13
5191.44
5193.69
5199.73
5210.15
5225.32
5245.34
5270.08
5299.09
5331.75
5367.15
5404.22
5441.68
5478.08
5511.82
5541.26
5564.73
5580.66
5587.74
5584.76
5570.91
5545.36
5508.48
5460.73
5403.02
5336.67
5263.31
5184.81
5103.07
5019.95
4937.14
4856.11
4778.11
4703.96
4634.17
4568.92
4508.04
4451.26
4398.32
4348.59
4301.38
4255.99
4211.67
4167.78
4123.53
4078.39
4032.07
3984.22
3934.68
3883.38
3830.44
3776.1
3720.66
3664.75
3608.71
3553.17
3498.81
3446.4
3396.56
3349.88
3307.09
3268.81
3236.47
3209.2
3188.22
429.653
153.255
86.0843
64.1646
56.6732
54.7218
55.2918
57.3465
60.3692
64.0821
68.3611
73.1265
78.3244
83.9169
89.8821
96.2125
102.909
109.987
117.472
125.363
133.701
142.537
151.91
161.865
172.447
183.698
195.661
208.378
221.894
236.256
251.53
267.75
284.877
303.02
322.219
342.488
363.852
386.344
410.006
434.883
461.032
488.514
517.402
547.783
579.754
613.409
648.823
686.081
725.29
766.538
809.857
855.31
902.664
951.962
1003.22
1056.23
1110.8
1166.73
1223.77
1281.7
1340.27
1399.29
1458.6
1518.07
1577.61
1637.21
1696.96
1756.99
1817.38
1878.45
1940.11
2002.76
2066.67
2132.04
2199.12
2268.2
2339.58
2413.59
2490.58
2570.91
2654.99
2743.19
2835.94
2933.64
3036.69
3145.45
3260.18
3381.07
3508.26
3641.75
3781.28
3926.27
4075.99
4229.53
4385.29
4542.24
4698.5
4852.03
5000.69
5142.36
5275
5396.72
5505.92
5601.39
5682.35
5748.47
5799.85
5837.01
5860.84
5872.58
5874.19
5867.06
5853.22
5834.74
5813.74
5792.03
5771.44
5753.87
5740.83
5733.41
5732.5
5738.55
5751.86
5772.15
5798.94
5831.35
5868.22
5908.07
5949.16
5989.53
6027.03
6059.46
6084.61
6100.49
6105.1
6097.43
6075.84
6039.95
5990.24
5927.39
5852.75
5768.18
5675.9
5578.31
5477.79
5376.6
5276.76
5180
5087.62
5000.45
4918.98
4843.13
4772.67
4707.44
4646.76
4589.86
4535.94
4484.11
4433.54
4383.29
4332.57
4280.94
4227.91
4173.14
4116.43
4057.79
3997.38
3935.45
3872.65
3809.35
3746.19
3683.98
3623.61
3565.84
3511.4
3461.15
3415.76
3376.51
3342.72
3314.53
537.394
185.612
102.3
75.2809
65.7897
62.9902
63.1595
65.0616
68.0732
71.858
76.2639
81.1964
86.5945
92.4204
98.656
105.3
112.361
119.864
127.845
136.323
145.333
154.949
165.222
176.205
187.956
200.529
213.976
228.352
243.711
260.107
277.611
296.278
316.068
337.1
359.427
383.075
408.085
434.508
462.404
491.842
522.903
555.679
590.276
626.812
665.421
706.229
749.34
794.855
842.88
893.488
946.68
1002.44
1060.48
1120.58
1182.69
1246.41
1311.34
1377.05
1443.1
1509.07
1574.56
1639.28
1703.03
1765.66
1827.14
1887.54
1947.08
2006.1
2064.9
2124.02
2183.58
2244.05
2305.97
2369.76
2435.75
2504.36
2576.02
2651.15
2730.22
2813.72
2902.18
2996.11
3096.04
3202.51
3316.05
3437.16
3566.21
3703.5
3849.22
4003.44
4165.91
4336
4512.83
4695.27
4881.48
5069.84
5258.11
5443.66
5623.78
5795.67
5956.68
6104.35
6236.59
6351.74
6448.71
6526.96
6586.42
6627.52
6651.17
6658.97
6652.58
6633.68
6604.64
6567.94
6526.08
6481.45
6436.36
6393.42
6354.99
6322.82
6298.45
6283.05
6277.42
6281.57
6295.66
6318.84
6350.09
6387.84
6430.19
6474.81
6519.09
6560.27
6595.45
6621.82
6636.65
6637.54
6623.54
6592.09
6543.56
6478.45
6397.91
6303.9
6198.94
6085.91
5967.8
5847.51
5727.68
5610.65
5498.27
5391.83
5292.22
5199.48
5113.48
5034.19
4960.94
4892.89
4829.15
4768.72
4710.62
4653.75
4597
4539.83
4481.56
4421.68
4359.82
4295.85
4229.8
4161.85
4092.62
4022.48
3952.1
3882.34
3814.19
3748.59
3686.4
3628.55
3575.84
3529.42
3488.86
3453.6
662.288
221.883
119.798
86.9504
75.1979
71.4243
71.1622
72.9059
75.9293
79.8368
84.4461
89.6477
95.3746
101.59
108.281
115.456
123.134
131.351
140.155
149.592
159.692
170.555
182.245
194.83
208.381
222.967
238.652
255.503
273.587
292.967
313.722
335.932
359.565
384.757
411.582
440.091
470.356
502.46
536.501
572.591
610.862
651.46
694.553
740.322
788.961
840.659
895.572
953.826
1015.52
1080.71
1149.31
1221.17
1295.81
1372.65
1451.43
1531.37
1611.68
1691.5
1770
1846.4
1920.1
1990.64
2057.73
2121.28
2181.41
2238.41
2292.78
2345.22
2396.49
2447.47
2498.8
2551.17
2605.42
2662.34
2722.47
2786.28
2854.34
2927.18
3005.37
3089.5
3180.19
3278.06
3383.75
3497.94
3621.32
3754.48
3897.96
4052.17
4217.4
4393.75
4581.05
4778.62
4985.4
5200
5420.37
5644.14
5868.55
6090.32
6305.96
6511.93
6704.84
6881.64
7039.66
7176.9
7292.03
7384.34
7453.72
7500.6
7526.03
7531.39
7518.86
7489.23
7445.65
7390.77
7327.2
7257.88
7185.34
7112.84
7043.69
6980.36
6925.21
6880.27
6847.09
6826.65
6819.5
6824.96
6842.95
6871.81
6909.67
6954.01
7001.87
7049.92
7094.59
7132.2
7159.07
7171.73
7167.65
7145.39
7102.03
7038.46
6955.5
6854.94
6739.52
6612.54
6477.61
6338.33
6198.09
6059.91
5926.3
5799.12
5679.78
5568.54
5465.35
5370.4
5283.05
5202.44
5127.6
5057.44
4990.88
4926.69
4863.41
4800.41
4736.8
4671.89
4605.13
4536.22
4465.03
4391.61
4316.53
4240.12
4163.03
4086.17
4010.61
3937.41
3867.58
3802.16
3742.01
3688.24
3640.75
3598.49
805.281
262.191
138.581
99.192
84.9624
80.142
79.4755
81.1282
84.2689
88.4421
93.4349
99.1234
105.436
112.337
119.822
127.908
136.631
146.039
156.199
167.181
179.022
191.847
205.739
220.783
237.067
254.674
273.684
294.177
316.236
339.937
365.373
392.654
421.765
452.873
486.092
521.517
559.273
599.507
642.384
688.102
736.88
788.967
844.645
904.21
967.975
1036.24
1109.26
1187.22
1270.24
1358.3
1451.22
1548.56
1649.52
1752.93
1858.07
1963.52
2067.67
2168.91
2265.65
2356.56
2440.57
2516.9
2585.21
2645.54
2698.34
2744.41
2784.82
2820.96
2854.35
2886.53
2919
2952.97
2989.81
3030.81
3076.83
3128.47
3186.41
3251.32
3323.76
3404.34
3493.69
3592.52
3701.55
3821.53
3953.25
4097.47
4254.84
4425.91
4611.08
4810.54
5024.19
5251.33
5490.75
5740.73
5998.87
6262.12
6526.83
6788.93
7043.95
7287.4
7514.98
7722.86
7907.94
8067.93
8201.43
8307.85
8387.27
8440.39
8468.4
8472.61
8455.94
8417.52
8361.44
8290.23
8206.34
8113
8012.69
7908.97
7806.01
7706.98
7615.12
7533.43
7464.42
7410.1
7371.84
7350.29
7345.5
7355.78
7380.92
7417.77
7463.36
7513.98
7565.48
7613.34
7652.84
7679.48
7688.32
7678.31
7645.78
7588.32
7507.4
7404.39
7281.94
7143.68
6993.81
6836.72
6676.56
6517.18
6361.84
6213.04
6072.91
5941.99
5820.36
5708.45
5605.7
5511.28
5424.16
5343.2
5267.25
5195.01
5124.67
5055.47
4986.36
4916.46
4845.03
4771.56
4695.76
4617.52
4537.28
4455.29
4372.18
4288.83
4206.38
4126
4048.82
3975.98
3908.44
3847.28
3792.77
3743.59
968.771
307.12
158.824
112.14
95.2683
89.4231
88.4529
90.1863
93.6697
98.3874
104.095
110.655
117.992
126.076
134.91
144.527
154.98
166.336
178.683
192.124
206.706
222.585
239.865
258.65
279.046
301.149
325.054
350.855
378.651
408.529
440.602
475.021
511.805
551.176
593.302
638.362
686.577
738.201
793.519
852.876
916.656
985.266
1059.18
1138.91
1224.97
1317.87
1418.07
1525.86
1641.43
1764.72
1895.35
2032.55
2174.86
2320.26
2467.26
2613.22
2755.2
2890.16
3015.23
3127.98
3226.46
3309.39
3376.24
3427.22
3463.3
3486.29
3498.39
3502.37
3501.09
3497.31
3493.92
3492.99
3496.66
3507.15
3525.66
3553.25
3590.62
3638.56
3697.52
3767.94
3850.39
3945.48
4053.92
4176.47
4313.93
4467.14
4636.92
4823.93
5028.69
5251.51
5492.39
5750.71
6025.13
6313.61
6613.25
6920.26
7229.82
7536.72
7835.24
8119.52
8384.04
8624.03
8835.84
9017.05
9166.5
9284.12
9370.71
9427.68
9456.67
9459.51
9439.54
9394.2
9328.31
9243.99
9143.22
9029.17
8903.86
8770.6
8634.12
8498.09
8366.48
8243.22
8131.9
8035.65
7957.02
7897.86
7859.15
7841.12
7842.41
7861.25
7895.8
7941.63
7994.35
8048.86
8099.44
8140.48
8165.14
8169.33
8152.26
8107.25
8033.67
7933.42
7808.67
7663.14
7501.51
7328.94
7150.48
6970.85
6794.16
6623.66
6462.32
6311.15
6170.35
6040.62
5921.57
5812.39
5712.05
5619.37
5533.17
5452.2
5374.24
5298.46
5223.63
5148.73
5072.8
4995.16
4915.29
4832.91
4748.29
4661.55
4573.24
4484.19
4395.56
4308.61
4224.56
4144.65
4069.96
4001.52
3940.02
3884.08
1154.8
357.284
180.812
126.068
106.47
99.7451
98.6985
100.835
105.061
110.798
117.772
125.834
134.909
144.975
156.046
168.178
181.447
195.949
211.798
229.135
248.023
268.653
291.149
315.628
342.205
370.982
402.057
435.525
471.483
510.038
551.331
595.552
642.774
693.325
747.444
805.455
867.727
934.705
1006.88
1084.8
1169.11
1260.48
1359.64
1467.46
1584.79
1712.44
1851.21
2001.68
2164.17
2338.67
2524.66
2720.93
2925.24
3134.41
3345.88
3555.2
3757.15
3946.24
4117.38
4266
4388.46
4482.27
4546.38
4580.94
4588.43
4571.67
4534.82
4483.38
4422.34
4356.66
4291.74
4231.19
4178.28
4136.19
4107.12
4092.71
4093.38
4110.06
4143.91
4193.97
4261.02
4345.21
4447
4566.96
4705.8
4864.36
5043.51
5244.05
5466.6
5711.64
5979.32
6269.24
6580.06
6909.55
7254.24
7609.59
7969.15
8326.32
8673.52
9002.96
9307.34
9580.48
9817.93
10017.1
10177.5
10300.1
10387.1
10441.5
10466.1
10464.5
10439
10387.1
10313.7
10219.9
10106.9
9977.55
9832.91
9675.34
9509.51
9339.24
9168.96
9003.27
8846.67
8703.39
8577.25
8471.49
8388.52
8329.82
8295.69
8285.74
8296.17
8326.43
8371.27
8425.38
8482.33
8535.78
8576.44
8598.44
8597.62
8571.73
8512.38
8421.1
8300.07
8152.71
7983.94
7799.62
7605.73
7407.95
7211.37
7020.02
6837.85
6666.58
6506.55
6358.75
6222.99
6098.56
5984.44
5879.42
5782.28
5692
5605.95
5523.21
5442.44
5362.47
5282.2
5200.71
5117.31
5031.49
4943.33
4852.78
4760.23
4666.44
4572.53
4479.79
4389.56
4303.14
4221.72
4146.32
4078
4015.54
1365.49
413.48
205.04
141.479
119.193
111.885
111.182
114.267
119.889
127.421
136.551
147.128
159.084
172.412
187.149
203.382
221.228
240.819
262.31
285.883
311.628
339.752
370.39
403.648
439.615
478.362
519.938
564.398
611.816
662.301
715.99
773.145
833.947
898.837
968.229
1042.66
1122.74
1209.15
1302.7
1404.2
1514.62
1635.01
1766.44
1910.1
2067.34
2239.41
2427.48
2632.55
2855.3
3095.93
3354.02
3628.27
3915.87
4212.64
4515.25
4817.01
5109.84
5384.78
5633.05
5846.11
6016.85
6139.35
6210.18
6229.8
6200.11
6124.52
6013.22
5875.35
5720.72
5557.68
5395.77
5241.63
5099.62
4974.51
4869.76
4787.68
4729.5
4696
4686.99
4700.36
4739.47
4802.09
4888.1
4997.58
5130.9
5288.67
5471.68
5680.76
5916.66
6180.03
6471.33
6790.55
7136.67
7507.51
7899.35
8306.99
8722.01
9136.03
9539.03
9920.37
10270
10579.5
10842.9
11057.2
11222.5
11341.6
11419
11460.2
11470.6
11457.1
11419.1
11358.5
11277.8
11177.2
11056.7
10918.3
10762
10588.3
10400.9
10203.4
10000.1
9795.86
9595.86
9405.06
9228.43
9070.55
8935.38
8826
8744.46
8691.59
8666.94
8667.84
8690.81
8733.63
8788.28
8848.44
8902.64
8942.5
8961.68
8955.39
8919.2
8844.4
8734.31
8591.96
8422.28
8231.5
8026.53
7814.08
7600.27
7390.05
7188.38
6997.99
6819.45
6654.02
6501.78
6362.17
6234.21
6116.64
6008.19
5908.24
5813.79
5723.81
5636.9
5551.8
5467.3
5382.27
5295.82
5207.27
5116.45
5023.09
4927.39
4829.96
4731.83
4634.31
4538.78
4446.64
4359.13
4277.28
4202.51
4133.89
1606.35
477.402
232.45
159.269
134.463
127.076
127.434
132.353
140.446
151.013
163.728
178.45
195.136
213.812
234.559
257.517
282.875
310.833
341.603
375.422
412.429
452.77
496.576
543.851
594.535
648.534
705.697
765.929
829.238
895.683
965.414
1038.8
1116.12
1197.99
1285.18
1378.53
1478.99
1587.58
1705.41
1833.69
1973.62
2126.54
2293.8
2476.76
2677.02
2896.22
3135.83
3397.17
3681.31
3988.95
4320.4
4675.22
5051.15
5444.67
5853.39
6269.68
6684.04
7085.11
7458.32
7788.82
8061.6
8262.12
8381.36
8420.94
8374.41
8241.66
8041.14
7788.41
7501.14
7196.27
6891.45
6600.66
6329.28
6083.29
5867.71
5685.9
5539.43
5428.77
5353.58
5313.18
5306.16
5328.55
5385.78
5473.27
5590.56
5737.77
5915.34
6123.95
6364.38
6637.47
6944.04
7284.79
7659.56
8066.79
8503.23
8963.81
9437.87
9915.28
10383
10826.4
11231.2
11585.4
11880
12110.6
12277.7
12386.1
12443.4
12458.6
12443.7
12402.6
12342.5
12266.8
12175.6
12068.6
11944.2
11802.8
11643.1
11463.1
11264.8
11050.4
10823.8
10589.8
10353.4
10120.1
9895.45
9685.17
9494.57
9328.37
9190.4
9083.41
9008.86
8966.48
8955.42
8969.51
9008.51
9064.23
9124.43
9178.42
9219.32
9236.65
9225.16
9178.09
9087.45
8958.24
8795.49
8605.32
8395.34
8173.23
7946.26
7720.49
7501.77
7294.16
7098.69
6916.87
6749.08
6595.02
6453.77
6324.02
6204.33
6094.65
5991.74
5894.44
5801.31
5711.08
5622.47
5534.18
5445.14
5354.53
5261.93
5166.82
5069.15
4969.32
4868.21
4767.09
4667.36
4570.48
4477.75
4390.2
4309.5
4235.24
1884.07
551.317
264.669
181.004
154.058
147.391
149.972
158.188
170.474
186.077
204.682
226.189
250.608
278.047
308.68
342.772
380.659
422.685
469.192
520.512
576.84
638.2
704.59
775.662
850.883
929.586
1011.07
1094.8
1180.5
1268.01
1357.56
1449.75
1545.24
1645.05
1750.36
1862.33
1982.43
2112.14
2252.87
2406.01
2572.89
2754.67
2952.37
3166.96
3399.59
3651.54
3924
4217.99
4534.79
4875.92
5243.25
5639
6063.16
6514.73
6992.55
7489.87
7998.75
8510.3
9017.72
9513.18
9983.59
10406.2
10743.9
10945.3
10979.4
10861.9
10608.1
10257
9822.7
9340.83
8844.77
8368.2
7920.6
7510.62
7145.28
6828.57
6561.43
6343.95
6175.4
6054.43
5978.94
5947.27
5953.73
5999.49
6086.48
6208.87
6366.67
6560.21
6790.04
7056.99
7362.24
7707.41
8093.9
8521.67
8989.09
9493.58
10022.4
10564.9
11105.2
11624
12099.7
12514.8
12855.4
13113.3
13287.7
13385.7
13418
13403
13345.3
13262.9
13168.9
13067.3
12959.1
12843
12716
12576.5
12421.1
12245.2
12047.7
11829.3
11592.3
11340.8
11079.5
10813.8
10549.4
10292.5
10049.4
9826.06
9627.97
9459.77
9325.02
9225.82
9162.97
9136.35
9139.02
9169.49
9224.25
9283.4
9339.09
9381.02
9398
9383.88
9329.58
9226.38
9080.37
8899.68
8692.63
8467.78
8233.48
7996.87
7764.91
7543.03
7333.17
7137.03
6955.4
6788.29
6634.93
6494.01
6363.78
6244.73
6133.72
6029.28
5930.06
5834.82
5742.3
5651.08
5559.88
5467.87
5374.35
5278.58
5180.18
5079.29
4976.6
4873.24
4770.6
4670.17
4573.31
4481.02
4395.14
4315.92
2216.9
639.873
304.549
209.366
181.08
176.626
183.331
197.351
216.701
240.623
268.857
301.407
338.4
380.106
426.933
479.438
538.35
604.394
678.272
760.641
851.867
951.728
1059.8
1174.68
1294.34
1416.54
1538.96
1659.79
1777.91
1893.04
2005.76
2117.45
2229.83
2344.67
2464.32
2590.44
2724.61
2868.71
3024.35
3192.75
3374.63
3570.22
3779.28
4001.15
4235.09
4480.58
4737.64
5006.3
5287.82
5585.95
5906.69
6257.62
6643
7064.31
7517.93
7998
8495.49
9007.71
9540.37
10094.7
10676.4
11276.3
11877.8
12451.9
12958.8
13282.5
13328.9
13076.3
12572.3
11947.8
11245.7
10549.5
9885.57
9269.77
8716.33
8231.41
7813.9
7462.54
7174.87
6948.54
6780.76
6668.39
6607.93
6596.09
6624.09
6702.05
6820.91
6978.46
7174.94
7410.84
7687.28
8006.89
8373.06
8787.51
9250.56
9760.94
10308.4
10886.2
11479.2
12067.4
12628.7
13136.5
13565.9