/*--------------------------------*- C++ -*----------------------------------*\
| =========                 |                                                 |
| \\      /  F ield         | OpenFOAM: The Open Source CFD Toolbox           |
|  \\    /   O peration     | Version:  2.3.0                                 |
|   \\  /    A nd           | Web:      www.OpenFOAM.org                      |
|    \\/     M anipulation  |                                                 |
\*---------------------------------------------------------------------------*/
FoamFile
{
    version     2.0;
    format      ascii;
    class       volScalarField;
    location    "0.08";
    object      H2O;
}
// * * * * * * * * * * * * * * * * * * * * * * * * * * * * * * * * * * * * * //

dimensions      [0 0 0 0 0 0 0];

internalField   nonuniform List<scalar> 
12225
(
0.114524
0.120848
0.122122
0.122465
0.122724
0.12287
0.122932
0.123019
0.123087
0.123131
0.123162
0.1232
0.123236
0.123264
0.123282
0.123306
0.123311
0.123176
0.113157
0.121108
0.122346
0.12269
0.122885
0.123026
0.123068
0.12311
0.123162
0.123199
0.123229
0.123253
0.12327
0.123294
0.123312
0.123331
0.123349
0.123326
0.066693
0.118254
0.12182
0.122595
0.122919
0.123125
0.123201
0.123231
0.123267
0.123297
0.123317
0.123335
0.123352
0.123365
0.123373
0.123383
0.123399
0.123413
0.0419101
0.0910316
0.119309
0.122033
0.122721
0.123069
0.123263
0.123313
0.123348
0.123372
0.123386
0.123399
0.123411
0.123424
0.123433
0.12344
0.123448
0.12346
0.0336359
0.0618216
0.0836121
0.119231
0.122239
0.122946
0.123279
0.123388
0.123431
0.123434
0.123432
0.123434
0.123444
0.123456
0.123468
0.123475
0.12348
0.12349
0.0311379
0.0557277
0.0703406
0.0923371
0.120517
0.122767
0.12332
0.123445
0.123487
0.123484
0.123462
0.123451
0.123453
0.123465
0.12348
0.123489
0.123495
0.123505
0.0311927
0.0548043
0.0702986
0.0813543
0.118159
0.122157
0.123178
0.123381
0.123449
0.123455
0.123444
0.123438
0.123442
0.123458
0.123476
0.123487
0.123494
0.123507
0.030834
0.0545494
0.0699735
0.0777624
0.0998222
0.121088
0.122853
0.123228
0.12332
0.123359
0.123384
0.123402
0.12342
0.123444
0.123465
0.123476
0.123488
0.123506
0.0305059
0.0537655
0.0677885
0.0754014
0.0897386
0.120202
0.122536
0.122977
0.123148
0.12327
0.123322
0.123368
0.123397
0.123429
0.123452
0.123464
0.123484
0.123504
0.0302036
0.052159
0.0640878
0.0741367
0.085594
0.118133
0.122012
0.122642
0.122959
0.123158
0.123265
0.123332
0.12338
0.123416
0.123434
0.123459
0.123484
0.1235
0.0289515
0.0494292
0.062645
0.0701952
0.0864426
0.0988468
0.120097
0.122403
0.12289
0.123103
0.123228
0.123306
0.123359
0.123388
0.123414
0.123447
0.123485
0.123506
0.0287468
0.0467856
0.059921
0.0694713
0.0807271
0.0879987
0.118555
0.122159
0.122822
0.123067
0.123204
0.123281
0.123313
0.123358
0.123408
0.123443
0.123474
0.123498
0.0279846
0.0445134
0.0567023
0.0670099
0.0762435
0.0831997
0.105552
0.120995
0.122551
0.122952
0.123137
0.123215
0.123278
0.123347
0.123396
0.123434
0.123464
0.12349
0.0286631
0.0437669
0.0555795
0.0649043
0.0724818
0.0807757
0.0909233
0.119197
0.122247
0.1228
0.123026
0.123205
0.123291
0.123344
0.123386
0.123426
0.123459
0.123486
0.0311108
0.0452517
0.0574394
0.0626031
0.0707688
0.0762186
0.081507
0.113401
0.121649
0.122812
0.123068
0.123167
0.123287
0.123355
0.12338
0.123408
0.123448
0.123484
0.0322873
0.0469314
0.0596024
0.0644667
0.0689689
0.0743994
0.0802129
0.10943
0.121424
0.122862
0.123116
0.123234
0.123334
0.123399
0.123442
0.123474
0.123494
0.123509
0.0321224
0.046897
0.0572852
0.0631155
0.0674042
0.072638
0.0784666
0.104374
0.121486
0.123298
0.123593
0.123673
0.123675
0.12366
0.123652
0.12365
0.123653
0.123654
0.0319174
0.0452213
0.0568953
0.0635303
0.0668896
0.0748792
0.0803785
0.100934
0.120741
0.122682
0.123188
0.123439
0.123624
0.123771
0.123877
0.123938
0.123955
0.123959
0.030926
0.0487729
0.0582336
0.0657638
0.0710073
0.0786758
0.0834716
0.10238
0.12066
0.122659
0.123199
0.123444
0.123583
0.123679
0.123753
0.123794
0.123807
0.123816
0.0294667
0.0450626
0.0587796
0.0669474
0.0740465
0.0822397
0.087613
0.116963
0.122117
0.123228
0.123666
0.123883
0.12394
0.123952
0.123946
0.123935
0.12392
0.123902
0.0274204
0.0436079
0.0581944
0.0676628
0.0766282
0.0862024
0.0926516
0.119146
0.122657
0.123486
0.123838
0.12392
0.123938
0.123931
0.123902
0.123847
0.123807
0.123783
0.0267541
0.0429223
0.0589298
0.0704623
0.081545
0.0914539
0.100395
0.120686
0.122954
0.12359
0.123781
0.123824
0.123829
0.123819
0.12378
0.123737
0.123714
0.123704
0.0279295
0.0418304
0.0604336
0.0725995
0.0869789
0.0958255
0.119746
0.122393
0.123168
0.123505
0.123665
0.123713
0.123737
0.12375
0.123754
0.123757
0.123765
0.123771
0.0288757
0.0420361
0.060687
0.0731172
0.0887005
0.115763
0.121594
0.122676
0.123186
0.123464
0.123651
0.123783
0.123825
0.123867
0.123887
0.123905
0.123924
0.12393
0.0297372
0.0435076
0.061658
0.0744581
0.089198
0.119683
0.122309
0.122929
0.123302
0.123566
0.123816
0.123898
0.123964
0.124021
0.124049
0.124057
0.12406
0.124059
0.0305848
0.0463313
0.065069
0.0765261
0.118136
0.121984
0.122815
0.123208
0.123453
0.123665
0.123847
0.123968
0.124043
0.124071
0.124078
0.124077
0.12407
0.12405
0.0325023
0.0513557
0.0768792
0.118217
0.121972
0.122746
0.123024
0.123247
0.123489
0.123689
0.123828
0.123906
0.12393
0.123934
0.123931
0.123916
0.123894
0.123874
0.0397391
0.0789487
0.118561
0.121891
0.122646
0.122971
0.123158
0.123288
0.123454
0.123582
0.12365
0.123667
0.123669
0.123668
0.123658
0.12365
0.123649
0.12365
0.0652985
0.118217
0.12179
0.12255
0.122889
0.123052
0.123153
0.123244
0.123342
0.123402
0.12343
0.123439
0.123446
0.123455
0.123462
0.123471
0.123481
0.12349
0.113839
0.121002
0.122319
0.122634
0.122817
0.122946
0.123045
0.123154
0.123223
0.123263
0.123289
0.123323
0.123339
0.123357
0.12337
0.123384
0.123402
0.123415
0.0350037
0.0357723
0.0371323
0.0389544
0.0411123
0.0434499
0.0460582
0.0490694
0.052124
0.0554687
0.0589158
0.0624725
0.0663913
0.0703078
0.0741166
0.0777585
0.0811807
0.0843441
0.0871886
0.0897522
0.0919476
0.0937963
0.0953733
0.096696
0.0977753
0.0987594
0.0996122
0.10034
0.100993
0.101571
0.102108
0.102599
0.103023
0.103402
0.103791
0.104151
0.104491
0.104818
0.105124
0.105411
0.105678
0.105906
0.106129
0.106367
0.106578
0.106778
0.106971
0.10716
0.107335
0.1075
0.107654
0.107802
0.107947
0.108085
0.108216
0.108341
0.108458
0.10857
0.108686
0.108798
0.108897
0.108999
0.109099
0.109197
0.109289
0.109371
0.109458
0.109549
0.109633
0.109715
0.109798
0.109877
0.109953
0.110029
0.110103
0.110175
0.110246
0.110317
0.110387
0.110456
0.110523
0.110589
0.110654
0.110718
0.11078
0.110841
0.1109
0.110958
0.111016
0.111072
0.111131
0.111189
0.111247
0.111301
0.111355
0.111409
0.111462
0.111515
0.111566
0.111616
0.111664
0.111716
0.111763
0.111814
0.111859
0.111906
0.111955
0.112006
0.112056
0.1121
0.112146
0.112193
0.112235
0.112281
0.112325
0.112371
0.112415
0.112458
0.112501
0.112544
0.112587
0.112629
0.112671
0.112713
0.112753
0.112793
0.112835
0.112877
0.112918
0.11296
0.113
0.11304
0.113077
0.113117
0.113157
0.113195
0.113234
0.113273
0.113312
0.113351
0.11339
0.113429
0.113468
0.113509
0.113549
0.113589
0.113628
0.11367
0.113712
0.113752
0.113795
0.113835
0.113876
0.113917
0.113957
0.114
0.11404
0.114083
0.114122
0.114162
0.114203
0.114244
0.114286
0.114328
0.114367
0.114407
0.114445
0.114484
0.11452
0.114556
0.114591
0.114624
0.114657
0.114685
0.114711
0.114735
0.114757
0.114774
0.114788
0.114786
0.0389981
0.0399963
0.0417569
0.0439333
0.046331
0.0488316
0.0515189
0.0545247
0.057578
0.0608607
0.0642592
0.0677594
0.0713264
0.0749842
0.0785683
0.0819103
0.0849733
0.0877771
0.0902703
0.0924782
0.0943601
0.0959485
0.0972901
0.0984102
0.0993426
0.100148
0.10088
0.101517
0.102078
0.102568
0.103026
0.103448
0.10383
0.10418
0.104514
0.104828
0.105128
0.105413
0.10568
0.105924
0.106147
0.106355
0.106563
0.10677
0.106962
0.10714
0.107297
0.107446
0.107608
0.107752
0.107893
0.108028
0.108156
0.108278
0.108394
0.108504
0.108611
0.108715
0.108818
0.108917
0.10901
0.109104
0.109196
0.109286
0.109371
0.109449
0.109531
0.109616
0.109697
0.109772
0.109853
0.109929
0.110002
0.110074
0.110145
0.110216
0.110285
0.110355
0.110423
0.110491
0.110557
0.110622
0.110687
0.110751
0.110813
0.110874
0.110933
0.110991
0.11105
0.111109
0.111167
0.111226
0.111283
0.111344
0.111399
0.111454
0.111509
0.111563
0.111617
0.111669
0.11172
0.111772
0.111823
0.111874
0.111923
0.111973
0.112024
0.112076
0.112126
0.112174
0.112222
0.11227
0.112316
0.112362
0.112407
0.112455
0.1125
0.112545
0.11259
0.112634
0.112677
0.112721
0.112763
0.112805
0.112847
0.112888
0.11293
0.112972
0.113013
0.113054
0.113095
0.113134
0.113172
0.11321
0.113251
0.113291
0.11333
0.113369
0.113409
0.113448
0.113487
0.113526
0.113566
0.113607
0.113648
0.113687
0.113727
0.113767
0.113808
0.113848
0.113889
0.113929
0.11397
0.114011
0.114051
0.114092
0.114133
0.114174
0.114214
0.114254
0.114295
0.114337
0.11438
0.114423
0.114465
0.114508
0.114549
0.114591
0.11463
0.114672
0.114712
0.114752
0.114791
0.114825
0.114857
0.114889
0.114917
0.114939
0.11496
0.114968
0.0450189
0.0462423
0.0482409
0.0505313
0.0529142
0.0553583
0.0579258
0.0607391
0.0636308
0.0666974
0.0698564
0.0730783
0.076304
0.079518
0.0826741
0.0856085
0.0882766
0.0906599
0.0928148
0.0946847
0.096283
0.0976335
0.0987692
0.0997205
0.10052
0.101208
0.101829
0.102381
0.102868
0.1033
0.103689
0.104063
0.1044
0.104712
0.105005
0.105283
0.105545
0.105791
0.106021
0.106235
0.106436
0.106626
0.106811
0.10699
0.10716
0.107317
0.10746
0.107596
0.107738
0.107869
0.107989
0.108117
0.108234
0.108345
0.108451
0.108553
0.108653
0.10875
0.108846
0.108938
0.109028
0.109116
0.109204
0.10929
0.109371
0.109449
0.109528
0.109609
0.109689
0.109762
0.109843
0.109917
0.10999
0.110061
0.110132
0.110203
0.110273
0.110342
0.110411
0.110479
0.110546
0.110612
0.110678
0.110742
0.110806
0.110868
0.110929
0.110989
0.111049
0.11111
0.11117
0.11123
0.111289
0.111351
0.11141
0.111467
0.111524
0.111581
0.111636
0.111691
0.111746
0.1118
0.111854
0.111907
0.11196
0.112013
0.112067
0.11212
0.112173
0.112224
0.112275
0.112325
0.112374
0.112422
0.112469
0.11252
0.112567
0.112614
0.11266
0.112705
0.11275
0.112795
0.112839
0.112882
0.112924
0.112967
0.113009
0.113051
0.113093
0.113134
0.113174
0.113214
0.113252
0.11329
0.113331
0.113371
0.11341
0.11345
0.113489
0.113528
0.113568
0.113608
0.113648
0.113689
0.11373
0.11377
0.11381
0.113851
0.113891
0.113932
0.113973
0.114013
0.114054
0.114095
0.114135
0.114176
0.114216
0.114256
0.114295
0.114337
0.114378
0.114419
0.114462
0.114506
0.114549
0.114593
0.114637
0.114681
0.114723
0.114767
0.114812
0.114857
0.114901
0.114942
0.114978
0.115015
0.115049
0.115075
0.115101
0.115121
0.0510776
0.0523846
0.0544051
0.056602
0.0588201
0.0611007
0.0634755
0.0660592
0.068739
0.0715525
0.0744342
0.0773466
0.0802296
0.0830527
0.0857944
0.0883551
0.0906815
0.0927432
0.0946118
0.0962261
0.0976049
0.0987731
0.0997581
0.100588
0.101292
0.1019
0.102445
0.102934
0.103368
0.103757
0.1041
0.104435
0.10474
0.105022
0.105286
0.105536
0.10577
0.10599
0.106197
0.106391
0.106574
0.106749
0.106917
0.107079
0.107233
0.107377
0.10751
0.107638
0.107765
0.107887
0.108002
0.108117
0.10823
0.108334
0.108436
0.108534
0.108629
0.108723
0.108815
0.108904
0.108992
0.109079
0.109165
0.109248
0.109329
0.109408
0.109487
0.109567
0.109647
0.10972
0.109802
0.109877
0.10995
0.110023
0.110095
0.110167
0.110238
0.110309
0.110379
0.110448
0.110517
0.110585
0.110652
0.110718
0.110783
0.110847
0.11091
0.110972
0.111034
0.111096
0.111158
0.11122
0.111281
0.111345
0.111407
0.111466
0.111525
0.111584
0.111642
0.1117
0.111757
0.111814
0.111871
0.111927
0.111983
0.112039
0.112096
0.112152
0.112208
0.112262
0.112316
0.112369
0.112421
0.112472
0.112522
0.112575
0.112625
0.112674
0.112723
0.11277
0.112817
0.112864
0.112909
0.112954
0.112997
0.113041
0.113084
0.113126
0.113168
0.11321
0.113251
0.113291
0.113329
0.113367
0.113408
0.113447
0.113487
0.113526
0.113565
0.113605
0.113645
0.113685
0.113725
0.113767
0.113808
0.113849
0.11389
0.113931
0.113972
0.114013
0.114054
0.114095
0.114136
0.114177
0.114217
0.114258
0.114298
0.114338
0.114376
0.114417
0.114458
0.114499
0.114542
0.114585
0.114629
0.114673
0.114718
0.114763
0.114807
0.114853
0.114901
0.11495
0.114997
0.115041
0.115084
0.115127
0.115163
0.115195
0.115224
0.115253
0.0562768
0.0575926
0.0595669
0.0616465
0.0637091
0.0658361
0.0680429
0.0704258
0.0728994
0.0754794
0.078099
0.0807226
0.0832959
0.0857897
0.088189
0.0904354
0.0924788
0.0942916
0.0959111
0.0973338
0.0985419
0.0995695
0.10044
0.101179
0.10181
0.102358
0.102848
0.103289
0.103683
0.104038
0.10435
0.104653
0.104934
0.105193
0.105435
0.105664
0.105878
0.10608
0.10627
0.10645
0.106621
0.106784
0.10694
0.10709
0.107234
0.107369
0.107496
0.107617
0.107737
0.107852
0.107963
0.108071
0.108181
0.108283
0.108381
0.108476
0.10857
0.108662
0.108752
0.108841
0.108928
0.109015
0.109101
0.109185
0.109267
0.109346
0.109426
0.109507
0.109589
0.109663
0.109746
0.109823
0.109898
0.109972
0.110046
0.11012
0.110193
0.110266
0.110338
0.110409
0.11048
0.110549
0.110619
0.110687
0.110754
0.11082
0.110885
0.110949
0.111013
0.111078
0.111142
0.111205
0.111269
0.111333
0.111398
0.11146
0.111521
0.111582
0.111643
0.111703
0.111763
0.111822
0.111882
0.111941
0.112
0.112059
0.112119
0.112178
0.112237
0.112295
0.112352
0.112409
0.112464
0.112519
0.112572
0.112629
0.112682
0.112734
0.112786
0.112836
0.112886
0.112934
0.112982
0.113028
0.113074
0.113119
0.113163
0.113206
0.113249
0.113291
0.113332
0.113372
0.113411
0.113449
0.113489
0.113528
0.113567
0.113606
0.113645
0.113684
0.113724
0.113764
0.113805
0.113847
0.113888
0.11393
0.113972
0.114014
0.114055
0.114097
0.114139
0.11418
0.114222
0.114263
0.114304
0.114344
0.114384
0.114424
0.114461
0.114502
0.114543
0.114583
0.114625
0.114667
0.114711
0.114755
0.1148
0.114846
0.11489
0.114938
0.114988
0.115039
0.115089
0.115137
0.115184
0.115229
0.115273
0.115307
0.11534
0.115375
0.0604878
0.0617985
0.0637316
0.0657231
0.0676736
0.0696802
0.0717561
0.0739747
0.0762618
0.0786343
0.0810192
0.083387
0.0856934
0.0879145
0.0900365
0.0920245
0.0938357
0.095445
0.0968681
0.0981363
0.0992106
0.100129
0.100911
0.10158
0.102154
0.102656
0.103104
0.103508
0.103871
0.104199
0.10449
0.104767
0.10503
0.105271
0.105496
0.105709
0.105909
0.106098
0.106277
0.106446
0.106607
0.106762
0.10691
0.107052
0.107188
0.107318
0.10744
0.107557
0.107671
0.107783
0.107892
0.107995
0.108104
0.108203
0.1083
0.108395
0.108488
0.108579
0.10867
0.108759
0.108847
0.108934
0.109021
0.109106
0.10919
0.109272
0.109353
0.109436
0.109519
0.109596
0.109681
0.109761
0.109838
0.109915
0.109991
0.110067
0.110143
0.110218
0.110292
0.110366
0.110439
0.110511
0.110583
0.110653
0.110723
0.110791
0.110858
0.110925
0.110991
0.111058
0.111124
0.11119
0.111256
0.111321
0.111389
0.111453
0.111516
0.111579
0.111642
0.111705
0.111767
0.111829
0.111891
0.111952
0.112014
0.112077
0.112139
0.112202
0.112264
0.112325
0.112386
0.112447
0.112506
0.112565
0.112623
0.112683
0.11274
0.112796
0.112851
0.112905
0.112958
0.11301
0.11306
0.113109
0.113158
0.113204
0.11325
0.113295
0.113339
0.113382
0.113423
0.113463
0.113502
0.11354
0.11358
0.113618
0.113656
0.113694
0.113732
0.113771
0.11381
0.11385
0.11389
0.113932
0.113974
0.114016
0.114059
0.114101
0.114143
0.114186
0.114229
0.114271
0.114314
0.114356
0.114397
0.114438
0.114477
0.114517
0.114554
0.114594
0.114634
0.114674
0.114715
0.114756
0.114798
0.114842
0.114886
0.114932
0.114976
0.115024
0.115076
0.115129
0.115181
0.115232
0.115282
0.115331
0.115379
0.115418
0.115454
0.115495
0.0638564
0.0651651
0.0670735
0.0690068
0.0708766
0.0727871
0.0747562
0.0768345
0.0789568
0.0811453
0.0833254
0.0854738
0.0875557
0.089552
0.0914501
0.0932267
0.0948482
0.0962929
0.0975612
0.098706
0.0996758
0.100508
0.101223
0.101837
0.102368
0.102833
0.103249
0.103625
0.103965
0.104273
0.104547
0.104805
0.105053
0.105281
0.105494
0.105695
0.105885
0.106064
0.106234
0.106396
0.10655
0.106698
0.106841
0.106977
0.107109
0.107235
0.107354
0.107468
0.10758
0.107689
0.107796
0.107896
0.108005
0.108104
0.1082
0.108295
0.108388
0.10848
0.108571
0.108661
0.108751
0.10884
0.108928
0.109016
0.109102
0.109186
0.109271
0.109356
0.109442
0.109522
0.10961
0.109692
0.109773
0.109853
0.109932
0.110011
0.11009
0.110168
0.110245
0.110322
0.110398
0.110473
0.110547
0.11062
0.110693
0.110764
0.110834
0.110903
0.110972
0.111041
0.111109
0.111177
0.111246
0.111313
0.111383
0.111449
0.111515
0.11158
0.111644
0.111709
0.111773
0.111837
0.111901
0.111965
0.112029
0.112094
0.112159
0.112224
0.112289
0.112354
0.112419
0.112483
0.112547
0.11261
0.112673
0.112737
0.112799
0.11286
0.11292
0.112978
0.113035
0.113091
0.113146
0.113199
0.11325
0.1133
0.113348
0.113395
0.113441
0.113484
0.113527
0.113568
0.113607
0.113645
0.113683
0.11372
0.113757
0.113794
0.113831
0.113868
0.113906
0.113944
0.113984
0.114025
0.114066
0.114109
0.114152
0.114195
0.114238
0.114282
0.114325
0.114368
0.114413
0.114456
0.114498
0.114539
0.114579
0.114619
0.114656
0.114695
0.114735
0.114774
0.114813
0.114853
0.114894
0.114936
0.114979
0.115025
0.115068
0.115116
0.115168
0.115222
0.115275
0.115329
0.115382
0.115434
0.115486
0.115529
0.115568
0.115615
0.066564
0.0678748
0.0697719
0.0716639
0.0734706
0.0752984
0.0771759
0.0791309
0.0811064
0.0831324
0.0851353
0.087097
0.0889907
0.0908007
0.0925156
0.09412
0.0955873
0.0968993
0.0980457
0.0990923
0.0999805
0.100747
0.101408
0.10198
0.102478
0.102916
0.103308
0.103663
0.103985
0.104277
0.104539
0.104784
0.105021
0.105239
0.105442
0.105635
0.105817
0.10599
0.106154
0.106311
0.106461
0.106604
0.106743
0.106876
0.107004
0.107127
0.107245
0.107358
0.107468
0.107575
0.107681
0.10778
0.107888
0.107988
0.108084
0.10818
0.108273
0.108366
0.108459
0.10855
0.108642
0.108733
0.108825
0.108915
0.109004
0.109092
0.10918
0.109269
0.109358
0.109443
0.109533
0.10962
0.109704
0.109788
0.109871
0.109954
0.110036
0.110118
0.110199
0.110279
0.110358
0.110436
0.110514
0.110591
0.110667
0.110741
0.110815
0.110887
0.110959
0.11103
0.111101
0.111172
0.111243
0.111313
0.111385
0.111453
0.111521
0.111588
0.111654
0.11172
0.111786
0.111851
0.111916
0.111982
0.112048
0.112114
0.112181
0.112248
0.112316
0.112384
0.112452
0.11252
0.112587
0.112655
0.112723
0.112792
0.112859
0.112926
0.112991
0.113055
0.113117
0.113179
0.113238
0.113296
0.113352
0.113406
0.113458
0.113508
0.113555
0.113601
0.113645
0.113687
0.113726
0.113764
0.113802
0.113837
0.113873
0.113908
0.113943
0.113977
0.114013
0.11405
0.114088
0.114127
0.114168
0.11421
0.114253
0.114297
0.114341
0.114386
0.114429
0.114473
0.11452
0.114565
0.114608
0.11465
0.114691
0.114731
0.114767
0.114806
0.114845
0.114883
0.114921
0.11496
0.114999
0.115039
0.115081
0.115125
0.115166
0.115214
0.115266
0.11532
0.115374
0.115429
0.115484
0.115539
0.115595
0.115641
0.115683
0.115735
0.0687613
0.0700749
0.0719661
0.0738256
0.0755799
0.0773323
0.0791269
0.0809702
0.0828151
0.0846962
0.0865455
0.0883478
0.090083
0.0917377
0.0933021
0.0947653
0.096107
0.0973115
0.0983683
0.0993244
0.100155
0.10087
0.101491
0.102031
0.102504
0.102921
0.103296
0.103635
0.103944
0.104226
0.104479
0.104714
0.104943
0.105154
0.105351
0.105538
0.105716
0.105885
0.106045
0.106199
0.106345
0.106486
0.106622
0.106754
0.10688
0.107002
0.107119
0.107232
0.10734
0.107447
0.107552
0.107652
0.107757
0.107859
0.107956
0.108052
0.108147
0.108241
0.108335
0.108429
0.108523
0.108617
0.108711
0.108805
0.108898
0.10899
0.109082
0.109175
0.109269
0.109359
0.109453
0.109544
0.109633
0.109722
0.10981
0.109897
0.109984
0.11007
0.110155
0.110239
0.110323
0.110405
0.110487
0.110568
0.110648
0.110727
0.110804
0.110881
0.110956
0.111031
0.111105
0.11118
0.111254
0.111326
0.1114
0.111471
0.111541
0.11161
0.111678
0.111745
0.111811
0.111877
0.111943
0.112009
0.112076
0.112143
0.11221
0.112278
0.112347
0.112416
0.112486
0.112557
0.112628
0.1127
0.112773
0.112846
0.112919
0.112991
0.113063
0.113133
0.113202
0.11327
0.113336
0.1134
0.113462
0.113521
0.113578
0.113633
0.113684
0.113733
0.113779
0.113823
0.113863
0.113901
0.113939
0.113972
0.114006
0.114039
0.114071
0.114103
0.114136
0.11417
0.114205
0.114242
0.114281
0.114321
0.114364
0.114407
0.114451
0.114497
0.114541
0.114586
0.114635
0.114682
0.114726
0.11477
0.114812
0.114852
0.114889
0.114927
0.114966
0.115004
0.11504
0.115077
0.115114
0.115153
0.115192
0.115234
0.115274
0.115319
0.115371
0.115425
0.115479
0.115534
0.115591
0.115648
0.115707
0.115756
0.115801
0.115858
0.0705617
0.0718759
0.0737621
0.0755932
0.0772998
0.0789805
0.0807
0.0824392
0.0841659
0.0859173
0.0876321
0.0892974
0.0908978
0.092422
0.0938616
0.0952084
0.0964473
0.0975644
0.0985501
0.0994363
0.10022
0.100896
0.101487
0.102004
0.102458
0.102861
0.103223
0.103552
0.103852
0.104127
0.104375
0.104603
0.104828
0.105035
0.105228
0.105412
0.105588
0.105755
0.105914
0.106066
0.106212
0.106352
0.106487
0.106618
0.106744
0.106866
0.106983
0.107095
0.107204
0.10731
0.107416
0.107517
0.10762
0.107723
0.107821
0.107918
0.108014
0.108109
0.108204
0.1083
0.108396
0.108493
0.10859
0.108687
0.108784
0.108881
0.108978
0.109076
0.109175
0.109271
0.109369
0.109466
0.109561
0.109655
0.109749
0.109842
0.109934
0.110026
0.110116
0.110206
0.110294
0.110382
0.110469
0.110555
0.11064
0.110724
0.110807
0.110888
0.110968
0.111048
0.111127
0.111205
0.111283
0.111359
0.111436
0.11151
0.111583
0.111653
0.111722
0.11179
0.111857
0.111923
0.111989
0.112054
0.11212
0.112186
0.112252
0.112319
0.112388
0.112457
0.112527
0.112599
0.112672
0.112747
0.112824
0.1129
0.112978
0.113056
0.113134
0.113212
0.113288
0.113363
0.113437
0.113509
0.113578
0.113645
0.113709
0.11377
0.113827
0.113881
0.11393
0.113977
0.114019
0.114058
0.114095
0.114128
0.11416
0.11419
0.114219
0.114248
0.114276
0.114306
0.114338
0.114371
0.114407
0.114445
0.114485
0.114528
0.114572
0.114618
0.114662
0.114708
0.114759
0.114808
0.114854
0.114899
0.114943
0.114985
0.115022
0.11506
0.115099
0.115136
0.115171
0.115207
0.115242
0.115278
0.115315
0.115354
0.115391
0.115435
0.115484
0.115537
0.11559
0.115646
0.115703
0.115762
0.115823
0.115875
0.115921
0.115983
0.0720484
0.0733586
0.075238
0.0770422
0.0787043
0.0803177
0.0819615
0.0836017
0.0852222
0.0868567
0.0884529
0.0899993
0.0914842
0.0928978
0.0942329
0.0954835
0.0966382
0.0976843
0.0986142
0.0994438
0.100193
0.100839
0.101407
0.101907
0.102349
0.102743
0.103097
0.10342
0.103716
0.103988
0.104234
0.10446
0.104682
0.104888
0.105081
0.105265
0.10544
0.105607
0.105767
0.10592
0.106067
0.106209
0.106345
0.106477
0.106604
0.106728
0.106846
0.10696
0.10707
0.107177
0.107283
0.107386
0.107488
0.107592
0.107691
0.107788
0.107884
0.10798
0.108076
0.108172
0.108269
0.108367
0.108466
0.108566
0.108666
0.108766
0.108868
0.108971
0.109076
0.109179
0.109283
0.109386
0.109488
0.10959
0.10969
0.10979
0.109889
0.109986
0.110083
0.110179
0.110274
0.110369
0.110462
0.110555
0.110647
0.110737
0.110827
0.110914
0.111001
0.111086
0.111171
0.111255
0.111338
0.111419
0.1115
0.111578
0.111653
0.111727
0.111797
0.111866
0.111933
0.111999
0.112063
0.112126
0.112189
0.112252
0.112316
0.11238
0.112445
0.112512
0.11258
0.112651
0.112724
0.112799
0.112878
0.112956
0.113036
0.11312
0.113204
0.113288
0.113372
0.113456
0.113538
0.113619
0.113698
0.113774
0.113847
0.113916
0.113981
0.114041
0.114097
0.114148
0.114194
0.114236
0.114273
0.114305
0.114336
0.114365
0.11439
0.114415
0.114439
0.114463
0.11449
0.114518
0.114549
0.114583
0.114621
0.114661
0.114704
0.114749
0.114792
0.114839
0.114892
0.114943
0.114992
0.115039
0.115084
0.115128
0.115166
0.115203
0.115244
0.11528
0.115315
0.115349
0.115382
0.115416
0.11545
0.115485
0.115519
0.115561
0.115608
0.115658
0.11571
0.115764
0.115822
0.115882
0.115944
0.115999
0.116046
0.116111
0.0732829
0.0745836
0.0764523
0.0782284
0.0798457
0.0813943
0.0829629
0.0845091
0.0860312
0.0875601
0.089051
0.0904934
0.0918787
0.093198
0.0944451
0.0956157
0.0967011
0.0976898
0.0985745
0.0993619
0.100083
0.100708
0.10126
0.10175
0.102185
0.102574
0.102925
0.103247
0.103543
0.103814
0.104062
0.104289
0.104513
0.104721
0.104917
0.105104
0.105282
0.105453
0.105617
0.105773
0.105924
0.106069
0.10621
0.106346
0.106477
0.106604
0.106726
0.106843
0.106956
0.107066
0.107174
0.10728
0.107383
0.107489
0.107589
0.107686
0.107782
0.107877
0.107971
0.108065
0.10816
0.108256
0.108353
0.108452
0.108552
0.108654
0.108758
0.108865
0.108974
0.109084
0.109193
0.109303
0.109414
0.109524
0.109633
0.10974
0.109847
0.109953
0.110058
0.110162
0.110265
0.110367
0.110469
0.11057
0.11067
0.110769
0.110867
0.110963
0.111058
0.111151
0.111244
0.111335
0.111425
0.111514
0.1116
0.111683
0.111763
0.11184
0.111913
0.111983
0.11205
0.112114
0.112176
0.112236
0.112295
0.112353
0.112412
0.11247
0.11253
0.112591
0.112654
0.11272
0.11279
0.112863
0.112941
0.113016
0.113098
0.113185
0.113273
0.113363
0.113454
0.113545
0.113637
0.113727
0.113817
0.113903
0.113987
0.114067
0.114143
0.114213
0.114277
0.114335
0.114387
0.114433
0.114474
0.114506
0.114537
0.114564
0.114587
0.114606
0.114625
0.114644
0.114664
0.114686
0.114711
0.11474
0.114772
0.114809
0.114849
0.114893
0.114934
0.114981
0.115036
0.115088
0.115139
0.115189
0.115236
0.115282
0.115321
0.115359
0.1154
0.115437
0.115472
0.115504
0.115536
0.115567
0.115598
0.11563
0.11566
0.115699
0.115743
0.11579
0.115839
0.115892
0.115948
0.116008
0.116071
0.116128
0.116176
0.116244
0.0743102
0.0755954
0.0774479
0.0791916
0.080762
0.0822473
0.0837412
0.0851964
0.0866284
0.0880606
0.0894573
0.0908084
0.0921074
0.0933461
0.0945191
0.0956233
0.0966518
0.0975943
0.0984431
0.0991979
0.0998979
0.100509
0.101052
0.101536
0.101969
0.102358
0.102712
0.103037
0.103337
0.103614
0.103867
0.1041
0.104329
0.104543
0.104746
0.10494
0.105126
0.105305
0.105476
0.105641
0.1058
0.105954
0.106102
0.106246
0.106386
0.106521
0.106651
0.106776
0.106897
0.107013
0.107127
0.10724
0.107347
0.107456
0.107559
0.107657
0.107753
0.107845
0.107936
0.108024
0.108112
0.108199
0.108288
0.108377
0.108469
0.108563
0.108662
0.108766
0.108877
0.10899
0.109101
0.109218
0.109338
0.109457
0.109575
0.109692
0.109809
0.109925
0.110039
0.110153
0.110266
0.110378
0.11049
0.110601
0.110712
0.110822
0.110931
0.111038
0.111144
0.111248
0.111351
0.111453
0.111553
0.111651
0.111745
0.111836
0.111922
0.112003
0.11208
0.112151
0.112218
0.112281
0.11234
0.112396
0.112449
0.112501
0.112552
0.112602
0.112653
0.112706
0.11276
0.112819
0.112881
0.112948
0.113019
0.113089
0.113168
0.113255
0.113344
0.113436
0.113532
0.11363
0.113729
0.11383
0.11393
0.114029
0.114126
0.114219
0.114307
0.11439
0.114467
0.114535
0.114596
0.114649
0.114695
0.114729
0.114762
0.114789
0.11481
0.114826
0.11484
0.114852
0.114865
0.114879
0.114896
0.114917
0.114943
0.114974
0.11501
0.115051
0.115089
0.115135
0.11519
0.115244
0.115297
0.115349
0.115399
0.115447
0.115489
0.115527
0.11557
0.115607
0.115642
0.115674
0.115704
0.115733
0.115761
0.115789
0.115815
0.115851
0.115891
0.115933
0.115979
0.116029
0.116083
0.116142
0.116205
0.116264
0.116312
0.116381
0.0751649
0.0764287
0.0782563
0.0799593
0.0814797
0.0829044
0.0843237
0.0856884
0.0870387
0.0883818
0.0896941
0.0909648
0.0921889
0.0933587
0.0944692
0.095518
0.0964999
0.0974051
0.0982257
0.0989562
0.0996412
0.100243
0.100783
0.101267
0.101703
0.102098
0.102459
0.102793
0.103104
0.103391
0.103655
0.1039
0.104141
0.104368
0.104584
0.104791
0.10499
0.105182
0.105368
0.105547
0.105721
0.105889
0.106053
0.106212
0.106367
0.106518
0.106665
0.106806
0.106941
0.107072
0.107201
0.107327
0.107445
0.107565
0.107674
0.107777
0.107872
0.107962
0.108044
0.108119
0.10819
0.108258
0.108325
0.108392
0.108462
0.108537
0.108618
0.108707
0.108805
0.108911
0.109016
0.109135
0.109262
0.109388
0.109516
0.109644
0.109772
0.1099
0.110026
0.110152
0.110277
0.110402
0.110527
0.110651
0.110775
0.110898
0.111021
0.111143
0.111264
0.111382
0.111499
0.111614
0.111728
0.111839
0.111945
0.112044
0.112139
0.112228
0.112309
0.112384
0.112452
0.112513
0.112568
0.112619
0.112665
0.112708
0.11275
0.11279
0.112829
0.11287
0.112912
0.112959
0.113009
0.113065
0.113126
0.113186
0.113256
0.113338
0.113423
0.113514
0.11361
0.113711
0.113817
0.113925
0.114036
0.114146
0.114257
0.114365
0.114469
0.114567
0.114659
0.114742
0.114816
0.11488
0.114934
0.114973
0.115011
0.115041
0.115061
0.115075
0.115084
0.11509
0.115095
0.115101
0.115108
0.11512
0.115137
0.11516
0.115189
0.115225
0.11526
0.115303
0.115358
0.115412
0.115466
0.115521
0.115574
0.115625
0.115668
0.115707
0.115751
0.11579
0.115825
0.115857
0.115886
0.115913
0.115939
0.115963
0.115986
0.116017
0.116052
0.11609
0.116131
0.116177
0.116229
0.116286
0.116348
0.116408
0.116455
0.116524
0.0758744
0.0771107
0.0789032
0.0805574
0.0820231
0.0833847
0.0847237
0.085999
0.0872821
0.0885409
0.0897777
0.0909781
0.0921372
0.0932476
0.0943046
0.0953066
0.0962497
0.0971246
0.0979224
0.098636
0.099308
0.0999072
0.100448
0.100938
0.101383
0.101789
0.102165
0.102516
0.102845
0.10315
0.103434
0.1037
0.103961
0.104209
0.104446
0.104674
0.104896
0.10511
0.105318
0.105521
0.105718
0.10591
0.106099
0.106284
0.106465
0.106644
0.10682
0.10699
0.107155
0.107315
0.107472
0.107626
0.107769
0.107912
0.10804
0.108156
0.108258
0.108346
0.108418
0.108475
0.108518
0.108551
0.108576
0.108598
0.108622
0.10865
0.108687
0.108736
0.1088
0.108881
0.108966
0.109072
0.109193
0.109322
0.109456
0.109594
0.109733
0.109874
0.110015
0.110155
0.110296
0.110436
0.110576
0.110716
0.110857
0.110998
0.111139
0.111279
0.111418
0.111555
0.111691
0.111824
0.111956
0.112084
0.112206
0.112318
0.112425
0.112524
0.112613
0.112692
0.112762
0.112822
0.112874
0.112919
0.112957
0.11299
0.11302
0.113047
0.113073
0.113099
0.113126
0.113156
0.11319
0.113229
0.113274
0.113319
0.113376
0.113446
0.113521
0.113604
0.113696
0.113795
0.113902
0.114014
0.114132
0.114253
0.114376
0.114499
0.11462
0.114737
0.114847
0.114949
0.11504
0.11512
0.115186
0.115235
0.11528
0.115316
0.11534
0.115353
0.115359
0.11536
0.115357
0.115354
0.115351
0.115352
0.115358
0.11537
0.115391
0.11542
0.115449
0.115488
0.11554
0.115593
0.115648
0.115704
0.11576
0.115814
0.115861
0.1159
0.115946
0.115986
0.116022
0.116055
0.116083
0.116109
0.116132
0.116153
0.116172
0.1162
0.116229