/*--------------------------------*- C++ -*----------------------------------*\
| =========                 |                                                 |
| \\      /  F ield         | OpenFOAM: The Open Source CFD Toolbox           |
|  \\    /   O peration     | Version:  2.3.0                                 |
|   \\  /    A nd           | Web:      www.OpenFOAM.org                      |
|    \\/     M anipulation  |                                                 |
\*---------------------------------------------------------------------------*/
FoamFile
{
    version     2.0;
    format      ascii;
    class       volScalarField;
    location    "0.08";
    object      k;
}
// * * * * * * * * * * * * * * * * * * * * * * * * * * * * * * * * * * * * * //

dimensions      [0 2 -2 0 0 0 0];

internalField   nonuniform List<scalar> 
12225
(
12.4127
70.4256
67.1989
61.0976
57.6728
55.1171
50.6284
46.3945
42.9889
40.063
37.4268
35.0831
33.1544
31.4892
30.0833
28.7719
27.6218
25.8959
2.02688
13.5164
17.6711
18.4901
18.6856
19.0779
19.0491
18.7378
18.0414
17.3508
16.8094
16.2499
15.6857
15.2007
14.7801
14.3914
14.1667
14.105
0.527729
1.92835
3.74807
4.86209
5.58506
6.16181
6.77687
7.16333
7.27046
7.33108
7.43136
7.51861
7.6092
7.69723
7.75961
7.81019
7.87641
8.00887
0.58807
1.21283
1.87328
2.47211
3.02928
3.35067
3.52635
3.60016
3.58704
3.54045
3.53401
3.54315
3.58169
3.67295
3.82417
3.92554
4.05373
4.21995
1.5629
2.74849
2.82766
2.96905
3.41355
3.64834
3.64747
3.56986
3.31303
2.99532
2.74722
2.56212
2.44682
2.39767
2.39675
2.40575
2.42857
2.48623
1.90684
3.16559
3.28594
3.45154
3.81916
4.18138
4.1914
4.09536
3.75728
3.32878
2.99653
2.74529
2.56079
2.43058
2.34399
2.27593
2.2299
2.20778
1.03781
2.85343
3.32015
3.7076
4.04695
4.41162
4.43973
4.34991
4.00465
3.5704
3.25026
3.02046
2.8587
2.73175
2.6368
2.55232
2.48797
2.42962
0.721882
2.4481
3.29593
3.86126
4.21463
4.39755
4.44169
4.36046
4.02867
3.61398
3.32346
3.12901
3.0035
2.91076
2.83863
2.76763
2.70647
2.64437
0.681774
2.49893
3.33932
3.93364
4.25696
4.29982
4.32574
4.25183
3.94988
3.57626
3.32131
3.16219
3.06833
3.00452
2.95181
2.89385
2.83461
2.77051
0.788263
2.95581
3.54161
3.89506
4.11065
4.07001
4.07896
4.01108
3.7634
3.4647
3.26379
3.14713
3.08555
3.04852
3.01422
2.96689
2.90631
2.83568
1.60087
3.61817
3.66919
3.71623
3.78486
3.78504
3.75275
3.68406
3.50496
3.30053
3.16409
3.09209
3.05927
3.04194
3.02372
2.98961
2.92825
2.84898
2.58507
3.75894
3.53387
3.3133
3.29503
3.28667
3.24729
3.25718
3.2135
3.09919
3.02048
2.98569
2.97535
2.97196
2.96556
2.94883
2.90599
2.82497
2.95237
3.5004
3.10873
2.76999
2.71075
2.72651
2.76096
2.81325
2.8235
2.81393
2.79254
2.78823
2.79367
2.81176
2.82023
2.81877
2.80489
2.76069
2.993
3.68627
3.28516
2.77972
2.54481
2.50595
2.43056
2.4139
2.443
2.45631
2.46032
2.4667
2.4913
2.551
2.59901
2.62388
2.62951
2.62667
2.14138
4.05981
3.80555
3.28901
2.80367
2.46263
2.25849
2.16414
2.13263
2.07758
2.06265
2.07048
2.11925
2.24476
2.35702
2.43391
2.47825
2.49733
1.76201
4.08289
3.86992
3.40055
2.84147
2.42259
2.05871
1.93775
1.88793
1.82448
1.81219
1.82646
1.9028
2.07398
2.21981
2.32482
2.39147
2.42639
1.43296
3.95221
3.83208
3.43022
2.85988
2.44328
2.02432
1.90325
1.85778
1.79797
1.77951
1.78823
1.84692
2.01227
2.17298
2.28673
2.35796
2.39413
2.00911
4.25429
4.05374
3.55387
2.91048
2.474
2.10058
2.04609
2.00625
1.9605
1.95175
1.96597
2.0373
2.17576
2.28572
2.35944
2.40068
2.41667
2.49268
4.49782
4.23665
3.65146
3.09467
2.74199
2.44483
2.4273
2.4105
2.37711
2.35221
2.35084
2.36843
2.42351
2.46999
2.49397
2.50021
2.49835
2.17465
4.10875
3.91111
3.64745
3.40658
3.31062
3.13271
3.09719
3.09886
3.05184
2.94418
2.85082
2.78802
2.74867
2.72366
2.7005
2.66719
2.61225
1.06184
2.96587
2.93557
2.95952
3.0218
3.22026
3.32118
3.33746
3.39296
3.39899
3.36893
3.26568
3.14917
3.04896
2.95416
2.85604
2.74961
2.6343
1.88892
2.11882
1.91245
1.97582
2.33154
2.95513
3.30742
3.44321
3.59103
3.6424
3.63786
3.59376
3.47159
3.30844
3.1356
2.95903
2.78456
2.62035
2.1864
2.16615
1.64898
1.63151
1.94231
2.69998
3.18048
3.55993
3.76434
3.84688
3.85624
3.8383
3.76307
3.57617
3.33803
3.09665
2.86594
2.66063
2.4196
2.4256
1.75992
1.63499
1.82812
2.4238
3.10913
3.57941
3.85775
3.9809
4.01607
4.0132
3.97381
3.8426
3.56976
3.27901
3.00324
2.7616
2.70698
2.73599
2.05667
1.85457
1.94885
2.35602
3.06221
3.55119
3.84774
4.00335
4.06308
4.06896
4.04812
3.95892
3.71091
3.37796
3.06862
2.80234
2.87069
2.93698
2.41229
2.13471
2.13767
2.37783
2.93016
3.37342
3.68213
3.86414
3.93628
3.94336
3.92509
3.85107
3.6314
3.30079
2.99721
2.74253
2.32889
2.55802
2.24077
2.0584
2.12399
2.31881
2.73051
3.12135
3.44914
3.68398
3.81972
3.88555
3.89971
3.87875
3.78082
3.57535
3.39708
3.24073
0.896176
1.12503
1.66879
2.49228
3.11986
3.68507
4.28875
4.71443
5.10819
5.54941
5.91678
6.23218
6.49316
6.59391
6.60767
6.60451
6.58126
6.48928
0.806824
4.73926
9.58779
12.5962
14.2723
15.3023
16.0048
16.2917
16.5538
16.895
17.0109
16.9305
16.7338
16.4563
16.0704
15.662
15.2417
14.8374
5.04048
44.5897
59.6083
60.7195
60.1613
58.8668
56.6188
54.0024
51.5205
48.9398
46.1562
43.3467
40.7483
38.7958
37.1015
35.5983
34.3267
33.3399
0.0407411
0.0459457
0.0551553
0.0675448
0.0817083
0.0966095
0.111654
0.126619
0.141474
0.156256
0.171127
0.186277
0.20187
0.218006
0.234758
0.252196
0.270359
0.289266
0.30889
0.329238
0.350293
0.372086
0.394701
0.418241
0.44285
0.468621
0.495639
0.524029
0.553912
0.585401
0.61855
0.653567
0.69048
0.729386
0.770752
0.814653
0.861639
0.912695
0.966951
1.02402
1.08417
1.14679
1.21158
1.27899
1.34771
1.41786
1.48941
1.56192
1.63541
1.7097
1.78457
1.86009
1.93639
2.01352
2.09146
2.17038
2.25032
2.33132
2.41366
2.49735
2.58209
2.66886
2.75763
2.84854
2.94204
3.03898
3.13957
3.24309
3.35043
3.4619
3.57717
3.69684
3.82077
3.94869
4.08031
4.21522
4.35324
4.49424
4.6376
4.78229
4.92751
5.07262
5.21682
5.35936
5.4992
5.63534
5.76722
5.89382
6.014
6.12632
6.2305
6.32658
6.41331
6.49154
6.5607
6.62056
6.6719
6.71503
6.75
6.77748
6.79841
6.81411
6.82318
6.82887
6.83001
6.82852
6.82516
6.82117
6.81608
6.80989
6.80445
6.79967
6.79529
6.79177
6.78889
6.78569
6.78251
6.7788
6.774
6.7674
6.7583
6.74606
6.73002
6.70939
6.68337
6.65142
6.61322
6.56835
6.51662
6.45775
6.39212
6.32015
6.24218
6.15863
6.07037
5.97912
5.88768
5.79964
5.71591
5.63633
5.55764
5.48007
5.404
5.3299
5.26085
5.2062
5.16214
5.12526
5.09355
5.0656
5.04046
5.01724
4.99529
4.97439
4.95419
4.93455
4.91576
4.89826
4.88263
4.87004
4.86055
4.85368
4.8499
4.85048
4.85787
4.87643
4.89829
4.92113
4.94509
4.97062
4.99777
5.02632
5.05591
5.08598
5.11602
5.14289
5.16694
5.17543
5.1656
5.01762
0.0697489
0.0595056
0.0684375
0.0852251
0.104164
0.123303
0.142028
0.160267
0.178176
0.1959
0.213687
0.231779
0.250357
0.269536
0.289416
0.310104
0.331655
0.3541
0.377497
0.401906
0.427352
0.453934
0.481753
0.510893
0.541458
0.573483
0.606959
0.641961
0.678592
0.717011
0.757123
0.799
0.842708
0.888317
0.935956
0.985648
1.03755
1.09181
1.14827
1.20685
1.26753
1.33024
1.39521
1.46204
1.53029
1.60052
1.67247
1.74598
1.82135
1.89786
1.97582
2.05535
2.13674
2.21983
2.30463
2.39116
2.47947
2.56978
2.66242
2.75721
2.85404
2.95372
3.05591
3.16103
3.26927
3.38073
3.49576
3.61403
3.73584
3.86224
3.99161
4.12571
4.2641
4.40643
4.55256
4.70237
4.85577
5.01263
5.17264
5.3353
5.50011
5.66679
5.83492
6.004
6.17353
6.34314
6.51229
6.6802
6.84629
7.00997
7.16989
7.32658
7.47885
7.62447
7.76589
7.90181
8.03151
8.15486
8.27273
8.38523
8.49275
8.59536
8.69288
8.78626
8.87566
8.96224
9.04667
9.12969
9.21161
9.29289
9.37452
9.45696
9.5402
9.62452
9.70998
9.79545
9.88187
9.96845
10.0546
10.1395
10.2225
10.3027
10.3791
10.4508
10.5167
10.5757
10.6272
10.6701
10.7041
10.7278
10.7407
10.7448
10.7389
10.7232
10.6979
10.665
10.626
10.583
10.5374
10.4901
10.4414
10.3921
10.3432
10.2954
10.2499
10.2086
10.1712
10.1368
10.1048
10.0743
10.0446
10.0148
9.98402
9.95153
9.91649
9.87814
9.83596
9.78968
9.73906
9.68435
9.62574
9.56331
9.49744
9.42905
9.35921
9.28949
9.21983
9.15085
9.08333
9.01835
8.95656
8.89834
8.84349
8.79176
8.74226
8.69431
8.64453
8.59539
8.52159
8.38098
0.112411
0.091469
0.106583
0.133673
0.162414
0.190372
0.21723
0.243286
0.26888
0.294307
0.319893
0.345919
0.37258
0.400006
0.428288
0.457509
0.48778
0.519206
0.551787
0.585662
0.620881
0.657553
0.695784
0.735674
0.777302
0.820681
0.865807
0.912684
0.961445
1.01225
1.06517
1.11991
1.17676
1.23581
1.29719
1.36098
1.42723
1.49589
1.56682
1.64007
1.71574
1.79394
1.87471
1.95789
2.04355
2.13198
2.22288
2.31607
2.41236
2.5105
2.61175
2.71479
2.8209
2.92975
3.04123
3.15533
3.27215
3.39185
3.51448
3.63985
3.76801
3.89927
4.03362
4.17128
4.31233
4.45678
4.60511
4.75726
4.91315
5.07407
5.2378
5.40683
5.58062
5.75883
5.94133
6.1281
6.31912
6.51427
6.71326
6.91572
7.1213
7.3297
7.54061
7.75356
7.96812
8.18378
8.39993
8.61592
8.83135
9.04556
9.25695
9.4656
9.67054
9.86955
10.0644
10.2541
10.4374
10.6139
10.7828
10.9441
11.0977
11.2435
11.3815
11.5121
11.6358
11.7537
11.8667
11.9758
12.0819
12.1859
12.2892
12.3926
12.4968
12.6023
12.7097
12.8179
12.9281
13.0396
13.152
13.2645
13.3762
13.4862
13.5932
13.696
13.7932
13.8834
13.9654
14.0377
14.0994
14.1491
14.1859
14.2086
14.2181
14.2147
14.1974
14.1675
14.1268
14.0772
14.0206
13.9585
13.8921
13.8231
13.753
13.6834
13.6156
13.5513
13.4909
13.4343
13.3812
13.331
13.2828
13.2356
13.1886
13.1406
13.0904
13.037
12.9795
12.917
12.8491
12.7754
12.6959
12.6108
12.5202
12.425
12.326
12.2245
12.1214
12.0179
11.9151
11.8141
11.7162
11.6223
11.5327
11.4475
11.3663
11.2892
11.2136
11.1439
11.0583
10.9577
0.159533
0.130314
0.155175
0.193948
0.232715
0.269326
0.304036
0.33756
0.370465
0.403203
0.436207
0.469787
0.504152
0.539414
0.575663
0.612968
0.651484
0.69135
0.732488
0.775074
0.81919
0.864932
0.912415
0.961765
1.01306
1.06632
1.12159
1.1789
1.23838
1.30022
1.36468
1.43119
1.50023
1.57194
1.64645
1.72382
1.80406
1.88714
1.97302
2.06178
2.15354
2.24832
2.34612
2.44695
2.55097
2.65824
2.76854
2.88192
2.999
3.11894
3.24253
3.36896
3.49857
3.63205
3.76893
3.90919
4.05287
4.2
4.35051
4.50426
4.66124
4.82153
4.98518
5.15227
5.32275
5.49665
5.67444
5.85616
6.04163
6.23218
6.42524
6.62355
6.82667
7.03428
7.24624
7.46257
7.68327
7.90829
8.13741
8.37037
8.60693
8.84689
9.09006
9.33615
9.58485
9.83573
10.0883
10.3421
10.5969
10.8519
11.106
11.3585
11.6086
11.8544
12.0959
12.3326
12.5629
12.7853
12.9982
13.2012
13.3928
13.5732
13.7422
13.8999
14.0468
14.1838
14.3121
14.433
14.5479
14.6582
14.7658
14.8723
14.9789
15.0867
15.1972
15.3093
15.4249
15.5436
15.6652
15.7891
15.9145
16.0402
16.1651
16.2877
16.4063
16.5191
16.6244
16.7204
16.8053
16.8773
16.9349
16.9764
17.0007
17.0087
16.9992
16.9724
16.9299
16.8731
16.8043
16.7253
16.6382
16.5454
16.4492
16.352
16.2558
16.1626
16.0735
15.9894
15.9102
15.8356
15.765
15.6974
15.6319
15.5671
15.5016
15.4341
15.3633
15.288
15.2072
15.12
15.0263
14.9259
14.8189
14.7057
14.587
14.4639
14.3377
14.2095
14.081
13.9531
13.8276
13.7058
13.5888
13.4772
13.371
13.2711
13.1762
13.0909
12.9991
12.9189
0.207597
0.172361
0.209336
0.260326
0.309017
0.353957
0.396022
0.436367
0.475799
0.514902
0.554251
0.594207
0.635002
0.67676
0.719596
0.763594
0.808903
0.855684
0.903928
0.953653
1.0051
1.05835
1.11355
1.17084
1.23032
1.29204
1.3561
1.42257
1.49156
1.56329
1.63815
1.71558
1.79587
1.87934
1.96609
2.05607
2.1493
2.24578
2.34556
2.44871
2.55534
2.66545
2.77908
2.89631
3.01731
3.14213
3.27064
3.40294
3.53946
3.67982
3.82446
3.97302
4.12483
4.28141
4.44217
4.60695
4.77568
4.94827
5.12455
5.30433
5.48744
5.67385
5.86352
6.05639
6.25234
6.45138
6.65391
6.86005
7.06963
7.28395
7.50042
7.72171
7.94768
8.17806
8.41279
8.65197
8.89574
9.14415
9.39717
9.65472
9.91673
10.1832
10.454
10.7292
11.0086
11.292
11.5789
11.8692
12.1627
12.4586
12.7558
13.0533
13.3501
13.6443
13.9345
14.2206
14.4996
14.7695
15.0288
15.2751
15.5071
15.724
15.925
16.11
16.2791
16.4333
16.5737
16.7019
16.8197
16.9292
17.0327
17.1326
17.2311
17.33
17.4318
17.5359
17.6448
17.7591
17.8788
18.0037
18.1333
18.2665
18.4021
18.5385
18.6738
18.806
18.9327
19.0516
19.1602
19.256
19.3366
19.3998
19.4435
19.4666
19.469
19.4494
19.4087
19.348
19.2694
19.1751
19.0678
18.9506
18.8266
18.6991
18.5711
18.4451
18.3234
18.2074
18.098
17.9951
17.8985
17.8074
17.7207
17.6372
17.5552
17.4732
17.3894
17.3021
17.2102
17.1119
17.0069
16.8946
16.7748
16.6475
16.5133
16.3729
16.2276
16.0787
15.9279
15.7764
15.6261
15.4788
15.3364
15.1998
15.07
14.9483
14.8346
14.7335
14.6339
14.5587
0.256711
0.216473
0.266845
0.330249
0.388775
0.441864
0.491002
0.537764
0.583181
0.627931
0.672749
0.718071
0.764183
0.811247
0.859431
0.908863
0.959685
1.01208
1.06614
1.12175
1.17931
1.23891
1.30071
1.36488
1.43157
1.50085
1.57286
1.6477
1.72549
1.80645
1.89099
1.97874
2.06963
2.16423
2.26262
2.36469
2.47045
2.57993
2.69317
2.81026
2.93124
3.05616
3.18508
3.31814
3.45552
3.59728
3.74337
3.8939
4.04924
4.20937
4.37446
4.54444
4.71797
4.897
5.08094
5.26945
5.46234
5.65939
5.86027
6.06465
6.27224
6.48283
6.69626
6.91233
7.13084
7.35176
7.57542
7.80204
8.03146
8.26502
8.50024
8.73966
8.98342
9.23142
9.48375
9.74066
10.0025
10.2694
10.5417
10.8195
11.103
11.3923
11.6877
11.9894
12.2975
12.6119
12.9324
13.2589
13.5914
13.9292
14.2712
14.616
14.9624
15.3086
15.6515
15.9911
16.3238
16.6469
16.9574
17.2523
17.5304
17.789
18.0268
18.2432
18.4378
18.6112
18.7645
18.8995
19.0182
19.1232
19.2175
19.3042
19.3864
19.467
19.5496
19.6346
19.7253
19.8233
19.9294
20.0442
20.1674
20.2985
20.4364
20.5796
20.7259
20.873
21.0183
21.1587
21.2911
21.412
21.5182
21.6066
21.674
21.7179
21.7371
21.7301
21.6966
21.637
21.5531
21.447
21.322
21.1815
21.0298
20.8709
20.7088
20.5473
20.3894
20.2377
20.0939
19.9586
19.8321
19.7138
19.6027
19.4978
19.3972
19.2991
19.2014
19.1021
18.9995
18.8913
18.7766
18.6545
18.5242
18.3856
18.2386
18.084
17.9226
17.7556
17.5852
17.4124
17.2393
17.0681
16.9013
16.7406
16.5874
16.4439
16.3109
16.1929
16.0825
16.0016
0.309552
0.262144
0.325845
0.401523
0.4697
0.530719
0.586658
0.639457
0.690376
0.740175
0.789742
0.839611
0.890142
0.94157
0.99413
1.048
1.10335
1.1604
1.21936
1.28002
1.34291
1.40816
1.47594
1.54646
1.61989
1.69636
1.77602
1.859
1.94544
2.03551
2.12966
2.22764
2.32918
2.43493
2.54497
2.65917
2.77749
2.89997
3.02665
3.15759
3.29288
3.43257
3.57679
3.7257
3.87952
4.03836
4.20223
4.37125
4.54579
4.72603
4.91205
5.10399
5.29997
5.50209
5.70978
5.92254
6.13998
6.36166
6.58708
6.8157
7.04703
7.28065
7.51622
7.7534
7.99187
8.23156
8.4728
8.71588
8.96074
9.20883
9.45796
9.71043
9.96674
10.2271
10.4917
10.7611
11.0358
11.3163
11.6031
11.8966
12.1973
12.5057
12.8223
13.1476
13.4819
13.8254
14.1783
14.5405
14.912
15.2924
15.6805
16.0748
16.4735
16.8749
17.2748
17.6728
18.0648
18.447
18.8155
19.1671
19.4982
19.8057
20.0874
20.3416
20.5676
20.7652
20.9355
21.0799
21.2007
21.3008
21.3837
21.4532
21.5133
21.5681
21.6221
21.6773
21.7379
21.807
21.8865
21.9779
22.082
22.1989
22.3279
22.4678
22.6166
22.7719
22.9304
23.0889
23.2433
23.3894
23.5228
23.6393
23.7347
23.8049
23.8472
23.8592
23.8396
23.788
23.7049
23.5927
23.4544
23.294
23.1164
22.9266
22.7299
22.5309
22.3342
22.1434
21.9613
21.7896
21.6292
21.4798
21.3405
21.2108
21.0889
20.9725
20.8593
20.747
20.6333
20.5156
20.392
20.2614
20.1225
19.9747
19.8174
19.6511
19.4762
19.2939
19.1064
18.9146
18.7207
18.5272
18.3373
18.1531
17.977
17.8114
17.6583
17.522
17.3978
17.3046
0.368047
0.308724
0.384682
0.472245
0.549813
0.618506
0.680984
0.739499
0.795529
0.849926
0.903734
0.957588
1.01194
1.06712
1.12342
1.18111
1.2404
1.30157
1.36495
1.43026
1.49816
1.56881
1.64241
1.71921
1.7994
1.88314
1.97061
2.06197
2.15733
2.25687
2.36099
2.46962
2.58225
2.69962
2.82178
2.94859
3.08
3.21602
3.35672
3.50216
3.65244
3.80766
3.968
4.13367
4.30493
4.48198
4.66488
4.85383
5.04921
5.25127
5.46006
5.67595
5.89661
6.12397
6.35754
6.59658
6.84042
7.08831
7.33946
7.59304
7.84826
8.10441
8.36085
8.61708
8.87273
9.12767
9.38222
9.63687
9.89173
10.1483
10.405
10.6642
10.9265
11.1925
11.4629
11.7382
12.0195
12.3074
12.6028
12.9065
13.2192
13.5418
13.8751
14.2199
14.5769
14.9466
15.3293
15.7253
16.1347
16.5572
16.9917
17.4364
17.8896
18.3489
18.8096
19.2707
19.7275
20.175
20.6086
21.0234
21.4151
21.7795
22.113
22.413
22.6778
22.9069
23.1004
23.2598
23.3871
23.4853
23.558
23.6097
23.6453
23.6695
23.688
23.7044
23.7241
23.7516
23.7907
23.8441
23.9141
24.0019
24.1078
24.2311
24.3703
24.5231
24.6864
24.8563
25.0282
25.1971
25.3575
25.5039
25.6306
25.7323
25.8042
25.8426
25.8442
25.8092
25.7351
25.6242
25.4792
25.3043
25.1048
24.8868
24.6564
24.4198
24.1828
23.9505
23.7271
23.5153
23.3171
23.1326
22.9613
22.8033
22.6567
22.5192
22.3884
22.2615
22.1359
22.0083
21.8762
21.738
21.592
21.4368
21.2716
21.096
20.9105
20.7156
20.5137
20.3055
20.0931
19.8794
19.6679
19.4615
19.2629
19.0754
18.9016
18.7458
18.6053
18.4952
0.432076
0.355317
0.441972
0.540919
0.627606
0.703737
0.772533
0.836539
0.897456
0.956228
1.01404
1.07164
1.12959
1.18828
1.24811
1.30943
1.37252
1.43773
1.50542
1.57556
1.64853
1.72477
1.80447
1.8879
1.97529
2.06681
2.16268
2.26304
2.36803
2.4778
2.59267
2.71276
2.83737
2.96726
3.1025
3.24291
3.38845
3.53915
3.69507
3.8563
4.02297
4.19526
4.37339
4.55767
4.74844
4.94597
5.15046
5.36217
5.58151
5.80876
6.04393
6.28735
6.53725
6.79382
7.0574
7.32675
7.60078
7.8783
8.15805
8.43875
8.71913
8.99799
9.27445
9.54775
9.81735
10.0831
10.3453
10.6049
10.8622
11.119
11.3747
11.6315
11.8907
12.1534
12.4205
12.6932
12.9727
13.26
13.5563
13.8629
14.1807
14.511
14.855
15.2138
15.5884
15.9798
16.3885
16.8151
17.2598
17.7224
18.2022
18.6974
19.2056
19.7245
20.2487
20.7764
21.3021
21.82
22.3243
22.8088
23.268
23.6964
24.0894
24.4432
24.7551
25.0237
25.2486
25.4306
25.5714
25.6737
25.7414
25.7788
25.7915
25.7848
25.7649
25.7371
25.7077
25.683
25.6689
25.6698
25.6897
25.7316
25.7971
25.8871
26.0009
26.1368
26.292
26.4626
26.6437
26.8295
27.0136
27.189
27.3488
27.4857
27.5932
27.6655
27.6972
27.6865
27.6323
27.532
27.3891
27.2073
26.9924
26.7508
26.4901
26.2176
25.9406
25.6659
25.3991
25.1445
24.9052
24.6822
24.4753
24.2854
24.1107
23.9492
23.7981
23.6546
23.5156
23.3776
23.2368
23.0916
22.9396
22.7787
22.6076
22.4255
22.232
22.0276
21.8142
21.5925
21.3644
21.133
20.902
20.675
20.4551
20.2461
20.0513
19.875
19.7166
19.5867
0.501691
0.401347
0.496799
0.60658
0.702148
0.785564
0.860609
0.93006
0.995852
1.05905
1.12096
1.18245
1.24414
1.30655
1.37013
1.43536
1.50258
1.5722
1.64463
1.72005
1.79867
1.88111
1.96762
2.05844
2.15385
2.25405
2.35925
2.46963
2.58532
2.70644
2.83327
2.96601
3.10388
3.24764
3.39734
3.55282
3.71407
3.88112
4.05407
4.23306
4.41828
4.60999
4.80854
5.01432
5.22781
5.44944
5.67952
5.91842
6.16658
6.42431
6.69164
6.96868
7.25403
7.54651
7.84672
8.15291
8.46337
8.77627
9.08968
9.40156
9.70995
10.0132
10.3098
10.5986
10.8787
11.15
11.4129
11.6687
11.9184
12.1644
12.407
12.6489
12.8923
13.1391
13.3908
13.6491
13.9155
14.1916
14.4787
14.7786
15.0926
15.4223
15.7692
16.1346
16.5202
16.927
17.3562
17.8084
18.2841
18.7834
19.3057
19.8492
20.4115
20.9898
21.5787
22.1745
22.7717
23.3633
23.9422
24.5011
25.033
25.5312
25.9898
26.404
26.7702
27.0861
27.3505
27.5637
27.7268
27.8421
27.913
27.9439
27.9402
27.9075
27.8516
27.7795
27.6979
27.6146
27.5379
27.4739
27.4289
27.408
27.4148
27.4522
27.5214
27.6218
27.7517
27.9076
28.0847
28.2769
28.477
28.677
28.8684
29.042
29.1892
29.3021
29.3724
29.3956
29.3705
29.2934
29.1632
28.9845
28.7629
28.5052
28.2198
27.9155
27.601
27.2849
26.9743
26.6754
26.393
26.1288
25.8832
25.6581
25.4522
25.2636
25.0896
24.9271
24.773
24.6235
24.4737
24.3216
24.1643
23.9992
23.8241
23.6378
23.4394
23.2284
23.0069
22.775
22.5344
22.2882
22.0405
21.7949
21.5553
21.3258
21.1104
20.9133
20.7357
20.5843
0.576787
0.446452
0.54871
0.668848
0.773182
0.863912
0.945308
1.02042
1.09138
1.15939
1.22587
1.29178
1.35783
1.42459
1.49264
1.56251
1.63465
1.7095
1.78755
1.86917
1.95442
2.04409
2.13846
2.23781
2.34245
2.4526
2.56847
2.69024
2.81805
2.95199
3.09229
3.23925
3.39201
3.55133
3.71726
3.8897
4.06866
4.25422
4.44655
4.64587
4.85249
5.06678
5.28925
5.52046
5.76108
6.01172
6.2729
6.54512
6.82884
7.12443
7.43193
7.75119
8.08078
8.41851
8.76478
9.11717
9.47311
9.82987
10.1845
10.534
10.8757
11.2068
11.5252
11.8291
12.1172
12.3891
12.6452
12.8872
13.1172
13.338
13.552
13.7624
13.9728
14.1865
14.4063
14.6342
14.8724
15.123
15.3878
15.6687
15.9674
16.2858
16.6254
16.9882
17.3759
17.7902
18.2322
18.7031
19.2035
19.7339
20.2939
20.8818
21.4951
22.1306
22.783
23.4469
24.116
24.7825
25.4379
26.0734
26.6807
27.2519
27.7798
28.2586
28.6839
29.0527
29.3634
29.6155
29.8099
29.948
30.0328
30.068
30.0586
30.0104
29.9269
29.8172
29.6872
29.5455
29.4026
29.2665
29.1455
29.0472
28.9782
28.944
28.9474
28.9903
29.0736
29.1944
29.3491
29.5318
29.7351
29.9501
30.167
30.3751
30.5632
30.7211
30.8372
30.9046
30.9174
30.8757
30.7718
30.6083
30.3912
30.1273
29.8256
29.4961
29.1491
28.7946
28.4421
28.0991
27.7728
27.466
27.1798
26.917
26.6772
26.4587
26.2591
26.0754
25.9042
25.7417
25.5821
25.423
25.2609
25.0926
24.9154
24.7272
24.5265
24.3123
24.086
23.8474
23.598
23.3405
23.0791
22.8177
22.5605
22.3122
22.0772
21.8595
21.6622
21.4899
0.65717
0.490596
0.597739
0.727924
0.841123
0.939438
1.02758
1.10889
1.18569
1.2593
1.33125
1.40257
1.47404
1.54631
1.62002
1.69577
1.77409
1.8555
1.94052
2.0297
2.12301
2.22138
2.32514
2.4346
2.55008
2.67183
2.80005
2.93492
3.0766
3.22512
3.38068
3.54364
3.71316
3.88994
4.07412
4.26563
4.46456
4.6711
4.8855
5.10813
5.33946
5.58003
5.8306
6.09195
6.36501
6.65064
6.94967
7.26272
7.59037
7.93302
8.29067
8.6629
9.04798
9.44278
9.84721
10.258
10.6713
11.0832
11.4895
11.8861
12.2688
12.6338
12.9778
13.2983
13.5933
13.8622
14.1052
14.324
14.5216
14.7017
14.869
15.0279
15.1839
15.3426
15.5084
15.6846
15.8745
16.0809
16.306
16.5519
16.8205
17.1137
17.4335
17.7819
18.1606
18.5717
19.0168
19.4971
20.0137
20.5672
21.1575
21.7835
22.4424
23.1306
23.8429
24.5727
25.3124
26.0531
26.7847
27.497
28.18
28.8243
29.4218
29.9659
30.4515
30.8754
31.2357
31.5319
31.7645
31.9346
32.0443
32.0963
32.0944
32.0458
31.949
31.8148
31.6478
31.4561
31.2518
31.0441
30.8431
30.6589
30.501
30.3777
30.2955
30.2599
30.2718
30.333
30.4419
30.5934
30.7807
30.9949
31.2255
31.4604
31.6861
31.89
32.0565
32.1758
32.2391
32.24
32.1786
32.0447
31.8456
31.5881
31.2811
30.9358
30.5637
30.1767
29.7862
29.4015
29.0325
28.6832
28.3555
28.0537
27.7781
27.5276
27.3001
27.0929
26.9025
26.7257
26.5552
26.3886
26.2217
26.051
25.8731
25.685
25.4847
25.2705
25.043
24.8015
24.5471
24.2822
24.0107
23.7368
23.4649
23.2
22.9468
22.7095
22.4928
22.2994
0.743427
0.534229
0.644423
0.784601
0.907043
1.01355
1.1092
1.19768
1.28142
1.36192
1.44075
1.51902
1.59754
1.67703
1.75815
1.8416
1.92798
2.01785
2.11179
2.21049
2.31389
2.42304
2.53828
2.65996
2.7884
2.92385
3.0665
3.21653
3.37406
3.53909
3.71179
3.8926
4.08068
4.2768
4.48111
4.69367
4.91472
5.14457
5.38364
5.63249
5.89182
6.16239
6.4452
6.74141
7.05222
7.37888
7.72254
8.0841
8.46424
8.86345
9.28168
9.71825
10.171
10.6357
11.1118
11.5948
12.0794
12.5602
13.0314
13.4873
13.9222
14.3307
14.7083
15.0508
15.3551
15.6203
15.8462
16.0348
16.1895
16.3148
16.418
16.505
16.5833
16.6616
16.7467
16.8448
16.9608
17.0988
17.2617
17.4518
17.6712
17.9219
18.2058
18.5246
18.8803
19.2749
19.7102
20.1878
20.7089
21.2745
21.8849
22.5394
23.2355
23.9695
24.7357
25.5271
26.3341
27.1465
27.9526
28.7403
29.4974
30.213
30.8776
31.484
32.0271
32.5036
32.9124
33.2533
33.5272
33.7352
33.8789
33.9599
33.9797
33.9464
33.8561
33.716
33.5305
33.3056
33.0537
32.7843
32.5087
32.2389
31.9869
31.764
31.5805
31.445
31.3638
31.3417
31.3756
31.4691
31.6151
31.8059
32.031
32.2782
32.5319
32.7779
32.9955
33.1715
33.2939
33.3519
33.3397
33.2552
33.0896
32.8533
32.5548
32.2057
31.8189
31.408
30.986
30.5644
30.1558
29.766
29.3978
29.0569
28.7448
28.4611
28.2041
27.9716
27.7601
27.5674
27.3848
27.2099
27.0382
26.8654
26.6878
26.5016
26.3042
26.0928
25.8677
25.6272
25.3719
25.1038
24.8263
24.5436
24.2604
23.9817
23.7128
23.4574
23.2222
23.0086
0.835842
0.5781
0.689815
0.840249
0.972656
1.08843
1.19285
1.28996
1.38232
1.47159
1.55937
1.64679
1.7347
1.82385
1.91494
2.00871
2.10583
2.20693
2.31263
2.42375
2.54019
2.66308
2.79279
2.92964
3.07391
3.2258
3.38546
3.55301
3.72851
3.91194
4.10347
4.30359
4.51154
4.72825
4.95386
5.18866
5.43307
5.68766
5.95306
6.22997
6.51942
6.82238
7.14004
7.47398
7.82579
8.19699
8.58917
9.00356
9.44108
9.90237
10.3875
10.8958
11.4248
11.9695
12.5291
13.0978
13.6688
14.2344
14.787
15.3187
15.8213
16.2876
16.7114
17.0867
17.4097
17.6773
17.8894
18.0477
18.1554
18.2176
18.2438
18.2424
18.2227
18.1958
18.1731
18.1643
18.1761
18.2167
18.2897
18.3978
18.5439
18.7301
18.9575
19.2278
19.5425
19.9034
20.3124
20.7712
21.2812
21.8437
22.4596
23.1288
23.8495
24.6182
25.4289
26.275
27.1443
28.025
28.9032
29.7641
30.5933
31.3776
32.1057
32.7695
33.3639
33.8866
34.3376
34.7185
35.0315
35.2785
35.4613
35.5805
35.6362
35.6313
35.5692
35.4456
35.2655
35.0311
34.7538
34.4423
34.108
33.7636
33.4229
33.0997
32.8077
32.5594
32.3654
32.2341
32.171
32.1768
32.2488
32.3872
32.5803
32.8151
33.077
33.3532
33.6176
33.8527
34.0418
34.1679
34.2192
34.1926
34.0829
33.885
33.6111
33.2732
32.885
32.4615
32.0175
31.5664
31.1234
30.6973
30.2914
29.9132
29.5652
29.2482
28.9611
28.7021
28.468
28.258
28.0622
27.8781
27.7009
27.5263
27.3496
27.1668
26.9742
26.7686
26.5491
26.3135
26.0616
25.7946
25.5156
25.2285
24.9378
24.6488
24.3671
24.0961
23.844
23.6116
0.934676
0.623226
0.735489
0.896928
1.04055
1.16708
1.28214
1.39005
1.49333
1.59406
1.69368
1.79336
1.89397
1.99626
2.10095
2.20883
2.32069
2.43716
2.55894
2.68688
2.82099
2.96223
3.11101
3.2675
3.43183
3.60405
3.78413
3.97205
4.16777
4.37126
4.58264
4.8025
5.0304
5.2673
5.51363
5.77
6.03707
6.31557
6.60638
6.91038
7.22866
7.56256
7.91327
8.2824
8.6719
9.08354
9.51907
9.98005
10.4677
10.9831
11.527
12.0995
12.6985
13.3194
13.9623
14.6211
15.2886
15.9567
16.6136
17.2479
17.8475
18.4012
18.8998
19.336
19.6986
19.9849
20.1951
20.3313
20.3986
20.4016
20.3514
20.2547
20.1255
19.9781
19.8268
19.6852
19.5655
19.4779
19.4299
19.4258
19.4674
19.5626
19.7078
19.9056
20.1566
20.4619
20.8232
21.2418
21.7195
22.2577
22.858
23.5216
24.2477
25.0332
25.8726
26.7597
27.6807
28.6233
29.5716
30.5072
31.4109
32.2644
33.0542
33.7714
34.4109
34.9716
35.4556
35.8674
36.2118
36.4932
36.7146
36.8765
36.9777
37.0166
36.9958
36.9151
36.7664
36.551
36.2769
35.9511
35.5834
35.1863
34.7741
34.3619
33.9659
33.602
33.2851
33.0283
32.8422
32.7332
32.7064
32.7526
32.8739
33.0637
33.3088
33.5937
33.8888
34.1708
34.4247
34.6289
34.7633
34.8127
34.7755
34.6422
34.4117
34.1024
33.7289
33.3071
32.8535
32.3831
31.9138
31.4575
31.0189
30.6068
30.2253
29.8764
29.5598
29.2743
29.0166
28.7882
28.5782
28.384
28.2009
28.0241
27.8489
27.6704
27.4844
27.287
27.0763
26.8494
26.6051
26.3439
26.068
25.781
25.4873
25.1921
24.9011
24.6178
24.351
24.102
1.04159
0.671163
0.783468
0.95733
1.11395
1.25343
1.3817
1.50328
1.62088
1.73669
1.85213
1.96835
2.08624
2.20654
2.33002
2.45752
2.58995
2.72806
2.87258
3.02439
3.18375
3.35099
3.52663
3.71043
3.90208
4.10113
4.30703
4.51945
4.73825
4.96332
5.1949
5.43373
5.67966
5.93374
6.19718
6.47096
6.75606
7.05339
7.36388
7.68847
8.02806
8.38372
8.7565
9.1474
9.55796
9.98989
10.4446
10.9235
11.4281
11.9602
12.5221
13.1165
13.7434
14.3999
15.0876
15.8024
16.5393
17.2931
18.0588
18.8274
19.5842
20.3103
20.9793
21.5609
22.0301
22.3868
22.6337
22.78
22.8269
22.7914
22.6721
22.492
22.2621
21.9958
21.7104
21.4244
21.1543
20.9143
20.7165
20.5697
20.4805
20.4524
20.4811
20.577
20.7362
20.9584
21.2442
21.5947
22.0111
22.4955
23.0499
23.6774
24.3794
25.1538
25.9964
26.9014
27.8534
28.8403
29.8443
30.8439
31.8171
32.7437
33.6045
34.3836
35.0729
35.6714
36.1836
36.6182
36.985
37.2932
37.5494
37.7557
37.9108
38.0107
38.047
38.0247
37.9374
37.771
37.5319
37.2248
36.8565
36.4376
35.9815
35.5037
35.0211
34.5521
34.1149
33.7269
33.4039
33.1582
32.9991
32.9287
32.951
33.0619
33.2556
33.5199
33.8259
34.1419
34.4496
34.7229
34.9372
35.0709
35.1091
35.0586
34.9049
34.6495
34.3135
33.9122
33.4643
32.9881
32.503
32.0251
31.561
31.1206
30.7098
30.3319
29.9879
29.677
29.3959
29.1481
28.9229
28.7177
28.5277
28.3484
28.1748
28.0016
27.8237
27.637
27.4384
27.2238
26.9913
26.7406
26.4727
26.1908
25.8989
25.6021
25.306
25.0141
24.7356
24.4728
1.1584
0.724065
0.836744
1.02509
1.19726
1.35261
1.49747
1.6365
1.77279
1.90843
2.04485
2.18316
2.32422
2.46887
2.61791
2.7724
2.93349
3.10216
3.27934
3.46599
3.66255
3.86875
4.08487
4.30988
4.54246
4.78095
5.02371
5.26965
5.51803
5.76828
6.02094
6.27708
6.53748
6.80362
7.07749
7.36034
7.65368
7.95874
8.27624
8.6067
8.95035
9.30715
9.6768
10.0589
10.4533
10.8604
11.2805
11.7138
12.1621
12.6286
13.1184
13.6375
14.1957
14.7959
15.4405
16.1296
16.8584
17.6304
18.4477
19.3064
20.1966
21.1046
22.0086
22.8817
23.6958
24.377
24.8712
25.1475
25.2381
25.2086
25.0636
24.8291
24.5251
24.1632
23.7625
23.3443
22.9274
22.5301
22.1691
21.8584
21.6084
21.4258
21.3146
21.2768
21.3044
21.4085
21.5855
21.8323
22.1498
22.5395
23.0097
23.5617
24.1969
24.9163
25.7199
26.6089
27.5658
28.5803
29.6326
30.6975
31.7465
32.7505
33.6836
34.527
35.2691
35.907
36.4462
36.899
37.2807
37.6054
37.8851
38.1261
38.3285
38.4889
38.6008
38.6593
38.654
38.5794
38.4151
38.1659
37.834
37.4302
36.966
36.4555
35.9156
35.3651
34.8242
34.3135
33.8534
33.4612
33.1493
32.938
32.8295
32.827
32.9176
33.1205
33.4047
33.729
34.0753
34.4144
34.7151
34.9476
35.0873
35.1189
35.0526
34.8718
34.5895
34.2293
33.8089
33.3453
32.8599
32.3723
31.8925
31.4316
30.9972
30.5946
30.2262
29.892
29.5887
29.3224
29.0831
28.8673
28.6706
28.4886
28.3166
28.1488
27.9796
27.8046
27.62
27.4217
27.2059
26.9709
26.7169
26.4458
26.1613
25.8682
25.572
25.276
24.9895
24.7162
1.29104
0.784979
0.898809
1.1046
1.29581
1.47096
1.63674
1.79813
1.95847
2.11965
2.28298
2.44956
2.6202
2.79578
2.97739
3.16647
3.36487
3.57418
3.79589
4.03152
4.28199
4.54637
4.82455
5.11404
5.4114
5.71289
6.01452
6.31315
6.60645
6.89322
7.17402
7.45065
7.7255
8.00018
8.27891
8.56329
8.85461
9.1542
9.46249
9.77882
10.1016
10.4284
10.7563
11.082
11.4022
11.7143
12.0171
12.31
12.5961
12.8839
13.1847
13.5336
13.9231
14.3535
14.831
15.3647
15.9658
16.6385
17.3945
18.2527