/*--------------------------------*- C++ -*----------------------------------*\
| =========                 |                                                 |
| \\      /  F ield         | OpenFOAM: The Open Source CFD Toolbox           |
|  \\    /   O peration     | Version:  2.3.0                                 |
|   \\  /    A nd           | Web:      www.OpenFOAM.org                      |
|    \\/     M anipulation  |                                                 |
\*---------------------------------------------------------------------------*/
FoamFile
{
    version     2.0;
    format      ascii;
    class       volScalarField;
    location    "0.08";
    object      N2;
}
// * * * * * * * * * * * * * * * * * * * * * * * * * * * * * * * * * * * * * //

dimensions      [0 0 0 0 0 0 0];

internalField   nonuniform List<scalar> 
12225
(
0.724799
0.724799
0.724799
0.724798
0.724795
0.724794
0.724794
0.724796
0.724797
0.724798
0.724798
0.724797
0.724795
0.724793
0.724791
0.724789
0.724791
0.72484
0.724799
0.724799
0.724799
0.724796
0.724786
0.724779
0.724779
0.724782
0.724789
0.724794
0.724797
0.724797
0.724797
0.724795
0.724793
0.72479
0.724787
0.724796
0.724799
0.724799
0.724797
0.724786
0.724753
0.724724
0.724721
0.724726
0.724748
0.724773
0.724787
0.724794
0.724796
0.724796
0.724796
0.724794
0.724789
0.724782
0.724799
0.724798
0.724793
0.724748
0.724658
0.724577
0.724554
0.724564
0.724616
0.724695
0.724748
0.724776
0.724789
0.724794
0.724795
0.724794
0.724792
0.724786
0.724799
0.724798
0.724776
0.724717
0.724471
0.724314
0.724255
0.724268
0.72436
0.724537
0.724658
0.724723
0.724766
0.724785
0.724791
0.724791
0.72479
0.724786
0.724799
0.724795
0.724653
0.724539
0.724311
0.724043
0.723982
0.724008
0.724173
0.724322
0.724529
0.724669
0.724723
0.724765
0.724783
0.724786
0.724785
0.724781
0.724799
0.724778
0.723825
0.723802
0.723955
0.723952
0.723917
0.723985
0.7241
0.724329
0.724499
0.72465
0.724715
0.724762
0.724778
0.724781
0.72478
0.724775
0.724798
0.724729
0.721518
0.722095
0.723449
0.723976
0.724061
0.724134
0.724286
0.724425
0.724587
0.724692
0.724746
0.724771
0.72478
0.72478
0.724778
0.724772
0.724799
0.724777
0.723776
0.723825
0.724185
0.724305
0.724323
0.724348
0.724442
0.724595
0.724673
0.724736
0.724766
0.724779
0.724783
0.724781
0.724777
0.72477
0.724799
0.724796
0.724663
0.72462
0.724586
0.724566
0.724566
0.724575
0.724624
0.724698
0.724747
0.724772
0.724784
0.724788
0.724787
0.724782
0.724775
0.724769
0.7248
0.724799
0.724787
0.724737
0.72469
0.724692
0.724702
0.724717
0.724742
0.724766
0.724782
0.724789
0.724792
0.724792
0.724791
0.724787
0.724774
0.724765
0.724799
0.724799
0.724786
0.724472
0.724404
0.724573
0.724701
0.724763
0.724784
0.724791
0.724795
0.724796
0.724795
0.724794
0.724792
0.724788
0.724781
0.724771
0.724799
0.724798
0.724731
0.722763
0.722437
0.723544
0.724412
0.724715
0.724782
0.724794
0.724796
0.724796
0.724796
0.724794
0.724791
0.724786
0.72478
0.724771
0.724799
0.724799
0.72479
0.724577
0.724538
0.724649
0.724759
0.724786
0.724792
0.724793
0.724793
0.724793
0.724792
0.724791
0.724788
0.724781
0.724773
0.724765
0.724799
0.724798
0.724798
0.724788
0.724786
0.724788
0.724784
0.724778
0.724765
0.72476
0.72476
0.724762
0.724767
0.724769
0.724769
0.724766
0.724757
0.724748
0.724799
0.724798
0.724798
0.724797
0.72479
0.724767
0.724675
0.724617
0.724545
0.724519
0.72452
0.724542
0.7246
0.724644
0.72467
0.724682
0.724686
0.724687
0.724799
0.724799
0.724797
0.72479
0.724757
0.72463
0.72411
0.723787
0.723475
0.723377
0.723387
0.723593
0.723818
0.724024
0.724163
0.724264
0.724329
0.724383
0.724799
0.724799
0.724798
0.724797
0.724789
0.724767
0.724678
0.72461
0.724515
0.724447
0.724358
0.724212
0.724023
0.72385
0.723736
0.723692
0.723689
0.723709
0.724799
0.724798
0.724798
0.724798
0.724795
0.724785
0.724726
0.724677
0.724573
0.724427
0.724297
0.724189
0.724102
0.724044
0.724015
0.724008
0.72401
0.724026
0.724799
0.724799
0.724798
0.724796
0.724787
0.724753
0.724558
0.724415
0.72408
0.72369
0.723431
0.723327
0.723324
0.723415
0.723525
0.723609
0.723707
0.723812
0.724799
0.724799
0.724798
0.724794
0.724778
0.724718
0.724422
0.724172
0.723705
0.723354
0.723203
0.723203
0.723321
0.723425
0.723576
0.723805
0.723972
0.724087
0.724799
0.724799
0.724798
0.724793
0.72477
0.724689
0.724404
0.723995
0.723599
0.723387
0.723356
0.723443
0.723559
0.723664
0.723861
0.724068
0.7242
0.724268
0.724799
0.724799
0.724798
0.724796
0.724784
0.724723
0.724611
0.724336
0.724041
0.723858
0.723795
0.723805
0.723834
0.723877
0.723965
0.724048
0.7241
0.724132
0.724799
0.724799
0.724798
0.724797
0.724791
0.72477
0.724711
0.72456
0.724306
0.724079
0.723899
0.72379
0.72376
0.723746
0.723746
0.723753
0.723769
0.723806
0.724799
0.724799
0.724798
0.724796
0.724789
0.72477
0.72472
0.724584
0.724313
0.724011
0.723695
0.723594
0.723515
0.723468
0.723457
0.723466
0.723506
0.723531
0.724799
0.724799
0.724798
0.724796
0.724789
0.724767
0.724709
0.724455
0.72419
0.723914
0.723659
0.723496
0.723418
0.723405
0.723419
0.723444
0.723484
0.723566
0.724799
0.724799
0.724799
0.724797
0.724791
0.724737
0.724691
0.724564
0.72427
0.723985
0.723796
0.723712
0.7237
0.723714
0.723739
0.7238
0.723883
0.723952
0.724799
0.724799
0.724799
0.724796
0.724792
0.724777
0.72474
0.724648
0.724446
0.724284
0.724214
0.724208
0.724224
0.724242
0.724289
0.724339
0.72436
0.724369
0.724799
0.724799
0.724799
0.724798
0.724796
0.724789
0.72477
0.72471
0.724621
0.724569
0.724554
0.724555
0.724565
0.724578
0.72459
0.724599
0.724603
0.724607
0.724799
0.724799
0.724799
0.724799
0.724797
0.724791
0.724772
0.724729
0.724698
0.724683
0.724678
0.724677
0.724678
0.72468
0.724682
0.724688
0.724695
0.724699
0.754817
0.754555
0.75409
0.753468
0.752731
0.751932
0.751041
0.750012
0.748969
0.747826
0.746647
0.745432
0.744092
0.742752
0.741449
0.740203
0.739032
0.737949
0.736975
0.736097
0.735344
0.73471
0.73417
0.733716
0.733346
0.733008
0.732716
0.732466
0.732243
0.732044
0.731861
0.731692
0.731547
0.731418
0.731285
0.731161
0.731045
0.730933
0.730828
0.73073
0.730639
0.730561
0.730484
0.730403
0.73033
0.730262
0.730196
0.730131
0.730071
0.730015
0.729962
0.729911
0.729862
0.729814
0.72977
0.729727
0.729687
0.729649
0.729609
0.729571
0.729538
0.729503
0.729469
0.729436
0.729405
0.729377
0.729347
0.729316
0.729288
0.72926
0.729232
0.729206
0.72918
0.729154
0.729129
0.729105
0.729081
0.729057
0.729033
0.72901
0.728987
0.728965
0.728943
0.728921
0.7289
0.728879
0.728859
0.72884
0.72882
0.728801
0.728781
0.728762
0.728742
0.728723
0.728705
0.728687
0.728669
0.728651
0.728634
0.728617
0.7286
0.728583
0.728567
0.72855
0.728534
0.728519
0.728502
0.728485
0.728468
0.728453
0.728438
0.728422
0.728408
0.728392
0.728377
0.728362
0.728347
0.728332
0.728318
0.728303
0.728289
0.728275
0.72826
0.728246
0.728233
0.728219
0.728205
0.728191
0.728177
0.728163
0.728149
0.728136
0.728123
0.72811
0.728096
0.728083
0.72807
0.728057
0.728043
0.72803
0.728017
0.728004
0.72799
0.727976
0.727963
0.727949
0.727936
0.727922
0.727907
0.727894
0.727879
0.727865
0.727851
0.727837
0.727824
0.727809
0.727795
0.727781
0.727767
0.727754
0.72774
0.727725
0.727711
0.727697
0.727683
0.727669
0.727656
0.727643
0.72763
0.727618
0.727605
0.727594
0.727582
0.727572
0.727563
0.727554
0.727547
0.72754
0.727535
0.727535
0.753453
0.753112
0.752511
0.751767
0.750948
0.750093
0.749175
0.748147
0.747104
0.745981
0.744819
0.743622
0.742402
0.741151
0.739925
0.738781
0.737732
0.736772
0.735918
0.735162
0.734517
0.733972
0.733512
0.733128
0.732809
0.732532
0.732281
0.732063
0.731871
0.731703
0.731546
0.731402
0.731271
0.731151
0.731037
0.73093
0.730827
0.73073
0.730638
0.730555
0.730478
0.730407
0.730336
0.730265
0.730199
0.730138
0.730084
0.730033
0.729978
0.729928
0.729881
0.729834
0.729791
0.729749
0.729709
0.729672
0.729636
0.7296
0.729565
0.729531
0.7295
0.729468
0.729437
0.729406
0.729377
0.729351
0.729323
0.729294
0.729267
0.729242
0.729214
0.729188
0.729164
0.729139
0.729115
0.729091
0.729068
0.729044
0.729021
0.728998
0.728976
0.728953
0.728931
0.72891
0.728889
0.728868
0.728848
0.728828
0.728808
0.728788
0.728768
0.728749
0.728729
0.728709
0.72869
0.728671
0.728653
0.728634
0.728616
0.728599
0.728581
0.728564
0.728546
0.728529
0.728513
0.728496
0.728478
0.728461
0.728444
0.728428
0.728412
0.728396
0.72838
0.728364
0.728349
0.728333
0.728318
0.728303
0.728288
0.728273
0.728258
0.728244
0.728229
0.728215
0.728201
0.728187
0.728173
0.728159
0.728145
0.728131
0.728118
0.728104
0.728092
0.728079
0.728065
0.728051
0.728038
0.728025
0.728011
0.727998
0.727985
0.727971
0.727958
0.727944
0.72793
0.727917
0.727903
0.727889
0.727876
0.727862
0.727848
0.727834
0.72782
0.727806
0.727793
0.727779
0.727765
0.727751
0.727737
0.727723
0.727709
0.727695
0.727681
0.727666
0.727651
0.727637
0.727622
0.727608
0.727594
0.72758
0.727566
0.727552
0.727539
0.727527
0.727515
0.727504
0.727494
0.727486
0.727479
0.727475
0.751397
0.750979
0.750295
0.749512
0.748698
0.747862
0.746984
0.746022
0.745034
0.743985
0.742904
0.741802
0.740698
0.739599
0.738518
0.737514
0.7366
0.735784
0.735046
0.734405
0.733857
0.733395
0.733005
0.732679
0.732405
0.732169
0.731957
0.731767
0.731601
0.731453
0.73132
0.731192
0.731076
0.730969
0.730869
0.730774
0.730685
0.7306
0.730522
0.730448
0.73038
0.730314
0.730251
0.73019
0.730132
0.730078
0.730029
0.729982
0.729934
0.729889
0.729848
0.729804
0.729765
0.729727
0.729691
0.729656
0.729622
0.729589
0.729556
0.729525
0.729494
0.729464
0.729434
0.729405
0.729378
0.729351
0.729325
0.729297
0.72927
0.729245
0.729218
0.729192
0.729168
0.729144
0.72912
0.729096
0.729072
0.729048
0.729025
0.729002
0.728979
0.728957
0.728934
0.728912
0.728891
0.72887
0.728849
0.728829
0.728808
0.728787
0.728767
0.728747
0.728727
0.728705
0.728686
0.728666
0.728647
0.728628
0.728609
0.72859
0.728572
0.728553
0.728535
0.728517
0.728499
0.728481
0.728463
0.728445
0.728427
0.72841
0.728393
0.728376
0.72836
0.728343
0.728327
0.72831
0.728295
0.728279
0.728263
0.728248
0.728233
0.728218
0.728203
0.728189
0.728175
0.72816
0.728146
0.728132
0.728118
0.728104
0.728091
0.728077
0.728065
0.728052
0.728038
0.728024
0.728011
0.727998
0.727985
0.727971
0.727958
0.727944
0.727931
0.727917
0.727903
0.727889
0.727875
0.727861
0.727848
0.727834
0.72782
0.727806
0.727792
0.727779
0.727765
0.727751
0.727737
0.727724
0.72771
0.727696
0.727682
0.727668
0.727654
0.727639
0.727624
0.727609
0.727594
0.727579
0.727564
0.727549
0.727534
0.727518
0.727503
0.727489
0.727476
0.727463
0.727451
0.727442
0.727432
0.727425
0.749327
0.74888
0.748189
0.747437
0.746679
0.745899
0.745087
0.744203
0.743286
0.742324
0.741338
0.740341
0.739354
0.738388
0.73745
0.736573
0.735776
0.73507
0.73443
0.733877
0.733404
0.733004
0.732666
0.732382
0.732141
0.731932
0.731746
0.731578
0.73143
0.731297
0.731179
0.731064
0.73096
0.730864
0.730773
0.730688
0.730608
0.730532
0.730462
0.730395
0.730332
0.730272
0.730215
0.73016
0.730107
0.730058
0.730012
0.729968
0.729925
0.729883
0.729844
0.729805
0.729766
0.729731
0.729696
0.729663
0.72963
0.729598
0.729567
0.729537
0.729507
0.729477
0.729448
0.72942
0.729392
0.729365
0.729339
0.729311
0.729284
0.729259
0.729232
0.729206
0.729181
0.729157
0.729132
0.729108
0.729083
0.729059
0.729036
0.729012
0.728989
0.728966
0.728943
0.72892
0.728898
0.728876
0.728855
0.728834
0.728812
0.728791
0.72877
0.728749
0.728728
0.728707
0.728686
0.728665
0.728645
0.728625
0.728606
0.728586
0.728567
0.728547
0.728528
0.728509
0.72849
0.728471
0.728452
0.728433
0.728414
0.728396
0.728378
0.72836
0.728342
0.728325
0.728308
0.728291
0.728274
0.728257
0.728241
0.728225
0.728209
0.728194
0.728179
0.728164
0.728149
0.728135
0.72812
0.728106
0.728092
0.728078
0.728065
0.728051
0.728038
0.728026
0.728012
0.727999
0.727985
0.727972
0.727959
0.727946
0.727932
0.727918
0.727905
0.727891
0.727877
0.727863
0.727849
0.727835
0.727821
0.727807
0.727793
0.727779
0.727765
0.727751
0.727737
0.727724
0.72771
0.727696
0.727683
0.727669
0.727656
0.727642
0.727627
0.727613
0.727598
0.727583
0.727567
0.727552
0.727537
0.727521
0.727505
0.727488
0.727472
0.727456
0.727441
0.727426
0.727414
0.727403
0.727392
0.727382
0.74755
0.7471
0.746424
0.745713
0.745007
0.744279
0.743524
0.742709
0.741863
0.74098
0.740083
0.739185
0.738305
0.737451
0.736629
0.73586
0.73516
0.734539
0.733985
0.733497
0.733083
0.732731
0.732433
0.732179
0.731963
0.731776
0.731608
0.731457
0.731322
0.731201
0.731094
0.73099
0.730894
0.730805
0.730722
0.730644
0.730571
0.730502
0.730436
0.730375
0.730316
0.730261
0.730207
0.730156
0.730107
0.73006
0.730017
0.729976
0.729935
0.729895
0.729857
0.729821
0.729783
0.729748
0.729715
0.729682
0.72965
0.729619
0.729588
0.729558
0.729528
0.729499
0.72947
0.729441
0.729413
0.729386
0.729359
0.729332
0.729304
0.729279
0.72925
0.729224
0.729199
0.729173
0.729148
0.729123
0.729098
0.729073
0.729049
0.729025
0.729001
0.728977
0.728953
0.72893
0.728907
0.728885
0.728862
0.72884
0.728819
0.728797
0.728775
0.728753
0.728731
0.728709
0.728687
0.728666
0.728645
0.728625
0.728604
0.728584
0.728563
0.728543
0.728523
0.728503
0.728483
0.728463
0.728443
0.728422
0.728403
0.728383
0.728364
0.728345
0.728326
0.728308
0.72829
0.728271
0.728253
0.728235
0.728218
0.728201
0.728185
0.728168
0.728153
0.728137
0.728122
0.728107
0.728092
0.728078
0.728064
0.72805
0.728036
0.728023
0.72801
0.727997
0.727984
0.727971
0.727958
0.727945
0.727932
0.727919
0.727905
0.727892
0.727878
0.727864
0.727849
0.727835
0.727821
0.727807
0.727793
0.727778
0.727764
0.72775
0.727736
0.727722
0.727708
0.727694
0.727681
0.727667
0.727655
0.727641
0.727627
0.727614
0.7276
0.727585
0.727571
0.727555
0.72754
0.727525
0.72751
0.727493
0.727476
0.727459
0.727442
0.727425
0.727409
0.727393
0.727378
0.727366
0.727354
0.727342
0.746111
0.745662
0.745
0.744319
0.743651
0.742964
0.742254
0.741495
0.740712
0.7399
0.739084
0.738273
0.737484
0.736723
0.735996
0.735316
0.734695
0.734144
0.733657
0.733222
0.732854
0.73254
0.732271
0.732042
0.731846
0.731674
0.73152
0.731382
0.731258
0.731145
0.731046
0.730951
0.730861
0.730779
0.730702
0.730629
0.73056
0.730495
0.730434
0.730376
0.730321
0.730268
0.730218
0.730169
0.730123
0.730078
0.730036
0.729996
0.729957
0.729919
0.729882
0.729847
0.72981
0.729775
0.729742
0.72971
0.729678
0.729647
0.729617
0.729586
0.729556
0.729526
0.729497
0.729468
0.729439
0.729412
0.729384
0.729355
0.729327
0.729301
0.729272
0.729245
0.729219
0.729192
0.729166
0.72914
0.729115
0.729089
0.729064
0.729039
0.729014
0.728989
0.728965
0.728941
0.728917
0.728893
0.72887
0.728848
0.728825
0.728802
0.72878
0.728757
0.728735
0.728712
0.728689
0.728667
0.728646
0.728624
0.728603
0.728581
0.72856
0.728539
0.728518
0.728497
0.728476
0.728455
0.728434
0.728413
0.728392
0.728371
0.72835
0.72833
0.72831
0.72829
0.728271
0.72825
0.728231
0.728212
0.728194
0.728176
0.728158
0.728141
0.728124
0.728108
0.728092
0.728076
0.728061
0.728046
0.728032
0.728018
0.728004
0.727991
0.727978
0.727965
0.727952
0.72794
0.727927
0.727915
0.727902
0.727889
0.727876
0.727863
0.727849
0.727835
0.727821
0.727806
0.727792
0.727777
0.727763
0.727748
0.727734
0.72772
0.727705
0.727691
0.727677
0.727663
0.727649
0.727636
0.727623
0.72761
0.727596
0.727583
0.727569
0.727555
0.727541
0.727527
0.727512
0.727496
0.727481
0.727465
0.727447
0.727429
0.727411
0.727394
0.727377
0.72736
0.727343
0.727329
0.727317
0.727302
0.744959
0.744511
0.743857
0.743196
0.742556
0.741902
0.741228
0.740516
0.73979
0.739041
0.738294
0.737559
0.736846
0.736162
0.735512
0.734904
0.734348
0.733854
0.733419
0.733027
0.732695
0.732409
0.732165
0.731954
0.731772
0.731613
0.731471
0.731342
0.731226
0.73112
0.731027
0.730938
0.730853
0.730775
0.730703
0.730634
0.730569
0.730507
0.730449
0.730394
0.730341
0.73029
0.730241
0.730195
0.73015
0.730107
0.730066
0.730027
0.729989
0.729951
0.729915
0.72988
0.729843
0.729809
0.729776
0.729744
0.729712
0.729681
0.72965
0.729619
0.729589
0.729558
0.729528
0.729498
0.729469
0.72944
0.729411
0.729382
0.729353
0.729326
0.729296
0.729268
0.72924
0.729213
0.729186
0.729159
0.729132
0.729105
0.729079
0.729053
0.729027
0.729001
0.728976
0.728951
0.728926
0.728902
0.728878
0.728854
0.72883
0.728807
0.728783
0.72876
0.728737
0.728714
0.72869
0.728667
0.728645
0.728622
0.7286
0.728578
0.728556
0.728535
0.728513
0.728491
0.728469
0.728447
0.728425
0.728403
0.728381
0.728359
0.728337
0.728315
0.728293
0.728272
0.728251
0.728229
0.728208
0.728188
0.728168
0.728149
0.728129
0.728111
0.728093
0.728075
0.728058
0.728042
0.728026
0.72801
0.727995
0.727981
0.727967
0.727954
0.727941
0.727929
0.727916
0.727904
0.727892
0.72788
0.727868
0.727856
0.727843
0.72783
0.727817
0.727803
0.727789
0.727775
0.72776
0.727746
0.727731
0.727716
0.727701
0.727687
0.727671
0.727657
0.727642
0.727628
0.727615
0.727601
0.727589
0.727576
0.727562
0.727549
0.727536
0.727523
0.727509
0.727495
0.72748
0.727465
0.727451
0.727434
0.727417
0.727398
0.72738
0.727362
0.727344
0.727326
0.727308
0.727293
0.727279
0.727263
0.744033
0.743584
0.742934
0.742287
0.741668
0.741042
0.7404
0.73973
0.739054
0.73836
0.737675
0.737003
0.736354
0.735735
0.735147
0.734598
0.734095
0.733646
0.733253
0.732895
0.73259
0.732328
0.732101
0.731905
0.731735
0.731585
0.731451
0.731329
0.731219
0.731119
0.731029
0.730946
0.730864
0.73079
0.73072
0.730654
0.730592
0.730533
0.730476
0.730423
0.730371
0.730322
0.730275
0.730229
0.730185
0.730143
0.730103
0.730064
0.730027
0.72999
0.729954
0.72992
0.729883
0.729849
0.729816
0.729783
0.729751
0.729719
0.729688
0.729657
0.729625
0.729594
0.729563
0.729532
0.729502
0.729472
0.729442
0.729411
0.729381
0.729352
0.729321
0.729292
0.729263
0.729234
0.729206
0.729178
0.729149
0.729122
0.729094
0.729067
0.729039
0.729013
0.728986
0.72896
0.728934
0.728908
0.728883
0.728858
0.728834
0.728809
0.728785
0.72876
0.728736
0.728712
0.728687
0.728664
0.728641
0.728618
0.728595
0.728573
0.72855
0.728528
0.728505
0.728483
0.72846
0.728438
0.728415
0.728392
0.728369
0.728346
0.728323
0.7283
0.728277
0.728254
0.728231
0.728208
0.728185
0.728163
0.728141
0.72812
0.728099
0.728078
0.728058
0.728039
0.728021
0.728003
0.727986
0.727969
0.727954
0.727939
0.727925
0.727911
0.727898
0.727886
0.727874
0.727863
0.727851
0.72784
0.727829
0.727818
0.727806
0.727794
0.727781
0.727768
0.727755
0.72774
0.727726
0.727711
0.727696
0.727681
0.727666
0.727651
0.727635
0.72762
0.727605
0.727591
0.727577
0.727563
0.727551
0.727538
0.727525
0.727512
0.727499
0.727487
0.727473
0.72746
0.727446
0.727432
0.727418
0.727402
0.727384
0.727366
0.727348
0.727329
0.72731
0.727291
0.727272
0.727256
0.727242
0.727224
0.743281
0.742831
0.742184
0.741547
0.740946
0.740346
0.739732
0.739101
0.738469
0.737825
0.737192
0.736575
0.73598
0.735414
0.734878
0.734377
0.733917
0.733505
0.733143
0.732815
0.732531
0.732286
0.732073
0.731888
0.731726
0.731583
0.731455
0.731339
0.731233
0.731137
0.73105
0.730969
0.730891
0.730819
0.730751
0.730687
0.730626
0.730569
0.730514
0.730461
0.730411
0.730362
0.730316
0.730271
0.730228
0.730186
0.730146
0.730107
0.73007
0.730034
0.729998
0.729963
0.729927
0.729893
0.729859
0.729826
0.729794
0.729762
0.72973
0.729698
0.729666
0.729633
0.729601
0.729569
0.729538
0.729506
0.729475
0.729443
0.729411
0.72938
0.729348
0.729317
0.729286
0.729256
0.729226
0.729196
0.729166
0.729137
0.729108
0.729079
0.72905
0.729022
0.728994
0.728966
0.728939
0.728912
0.728885
0.728859
0.728833
0.728808
0.728782
0.728756
0.728731
0.728706
0.728681
0.728656
0.728632
0.728609
0.728585
0.728562
0.72854
0.728517
0.728494
0.728472
0.728449
0.728426
0.728403
0.728379
0.728356
0.728332
0.728308
0.728284
0.72826
0.728236
0.728211
0.728186
0.728161
0.728137
0.728113
0.728089
0.728066
0.728043
0.728021
0.728
0.72798
0.72796
0.727941
0.727923
0.727907
0.727891
0.727876
0.727862
0.727849
0.727837
0.727825
0.727815
0.727804
0.727794
0.727784
0.727774
0.727763
0.727752
0.727741
0.727729
0.727716
0.727702
0.727688
0.727674
0.727659
0.727643
0.727628
0.727613
0.727596
0.72758
0.727565
0.72755
0.727536
0.727522
0.727509
0.727497
0.727483
0.727471
0.727459
0.727446
0.727434
0.727421
0.727408
0.727395
0.727381
0.727366
0.727349
0.727331
0.727313
0.727294
0.727275
0.727255
0.727236
0.727219
0.727203
0.727183
0.742665
0.742215
0.741569
0.740942
0.740358
0.739782
0.739194
0.738598
0.738007
0.737407
0.73682
0.736249
0.735701
0.735179
0.734686
0.734225
0.733801
0.733418
0.73308
0.732777
0.732508
0.732277
0.732074
0.731897
0.731742
0.731604
0.73148
0.731367
0.731264
0.73117
0.731085
0.731007
0.73093
0.73086
0.730793
0.73073
0.73067
0.730613
0.730558
0.730506
0.730456
0.730408
0.730362
0.730317
0.730274
0.730232
0.730192
0.730154
0.730116
0.73008
0.730044
0.730009
0.729974
0.729938
0.729905
0.729872
0.729839
0.729806
0.729774
0.729741
0.729708
0.729675
0.729642
0.729609
0.729576
0.729543
0.72951
0.729476
0.729442
0.729409
0.729376
0.729343
0.72931
0.729278
0.729246
0.729214
0.729183
0.729151
0.72912
0.72909
0.729059
0.729029
0.728999
0.72897
0.72894
0.728912
0.728883
0.728855
0.728828
0.728801
0.728774
0.728747
0.72872
0.728694
0.728667
0.728642
0.728617
0.728593
0.728569
0.728545
0.728522
0.7285
0.728477
0.728454
0.728432
0.728409
0.728386
0.728363
0.72834
0.728316
0.728292
0.728267
0.728242
0.728216
0.72819
0.728164
0.728138
0.728111
0.728085
0.728059
0.728033
0.728008
0.727983
0.727959
0.727936
0.727914
0.727893
0.727873
0.727854
0.727837
0.727821
0.727806
0.727793
0.72778
0.727769
0.727759
0.727749
0.72774
0.727731
0.727723
0.727714
0.727704
0.727695
0.727684
0.727672
0.72766
0.727647
0.727632
0.727618
0.727602
0.727587
0.727571
0.727554
0.727537
0.727521
0.727506
0.727491
0.727477
0.727464
0.727451
0.727438
0.727426
0.727414
0.727402
0.72739
0.727379
0.727366
0.727354
0.727342
0.727327
0.727311
0.727293
0.727276
0.727257
0.727238
0.727218
0.727197
0.727179
0.727163
0.727142
0.742157
0.741708
0.741064
0.740446
0.739877
0.739325
0.738762
0.7382
0.737645
0.737085
0.736539
0.736009
0.735501
0.735016
0.734559
0.734131
0.733735
0.733377
0.733058
0.732774
0.732518
0.732296
0.732102
0.73193
0.731779
0.731644
0.731523
0.731412
0.731311
0.731218
0.731134
0.731056
0.73098
0.73091
0.730844
0.730781
0.73072
0.730663
0.730608
0.730556
0.730506
0.730457
0.73041
0.730365
0.730321
0.730279
0.730238
0.730199
0.730162
0.730125
0.730089
0.730053
0.730018
0.729983
0.729949
0.729916
0.729883
0.72985
0.729817
0.729784
0.729751
0.729718
0.729684
0.72965
0.729615
0.729581
0.729546
0.729511
0.729475
0.72944
0.729405
0.729369
0.729334
0.7293
0.729265
0.729231
0.729197
0.729164
0.729131
0.729098
0.729065
0.729033
0.729001
0.728969
0.728937
0.728906
0.728876
0.728846
0.728816
0.728787
0.728758
0.728729
0.7287
0.728672
0.728645
0.728618
0.728592
0.728567
0.728542
0.728519
0.728496
0.728473
0.728451
0.728429
0.728407
0.728385
0.728363
0.72834
0.728318
0.728295
0.728271
0.728247
0.728221
0.728195
0.728168
0.728142
0.728114
0.728085
0.728057
0.728028
0.728
0.727971
0.727944
0.727917
0.72789
0.727865
0.727841
0.727818
0.727797
0.727777
0.727759
0.727743
0.727729
0.727716
0.727704
0.727695
0.727686
0.727677
0.72767
0.727663
0.727656
0.727649
0.727641
0.727633
0.727623
0.727612
0.7276
0.727587
0.727573
0.727557
0.727543
0.727527
0.727508
0.727491
0.727474
0.727458
0.727443
0.727428
0.727415
0.727402
0.727388
0.727376
0.727364
0.727353
0.727342
0.727331
0.72732
0.727309
0.727298
0.727284
0.727269
0.727252
0.727235
0.727217
0.727198
0.727178
0.727157
0.727138
0.727122
0.7271
0.741734
0.741289
0.740649
0.740041
0.739487
0.738956
0.738419
0.73789
0.737368
0.736845
0.736334
0.73584
0.735366
0.734914
0.734486
0.734085
0.733714
0.733375
0.733072
0.732802
0.732555
0.732341
0.732152
0.731984
0.731835
0.731702
0.731582
0.731472
0.73137
0.731277
0.731192
0.731115
0.731038
0.730967
0.7309
0.730836
0.730774
0.730716
0.73066
0.730606
0.730554
0.730504
0.730456
0.73041
0.730365
0.730321
0.730279
0.730239
0.7302
0.730162
0.730125
0.730089
0.730053
0.730017
0.729983
0.72995
0.729917
0.729884
0.729852
0.72982
0.729787
0.729755
0.729721
0.729688
0.729653
0.729619
0.729583
0.729547
0.729509
0.729472
0.729435
0.729397
0.729359
0.729322
0.729284
0.729247
0.729211
0.729175
0.729139
0.729103
0.729068
0.729033
0.728998
0.728963
0.728929
0.728895
0.728862
0.728829
0.728796
0.728764
0.728732
0.728701
0.72867
0.72864
0.72861
0.728582
0.728554
0.728528
0.728503
0.728479
0.728456
0.728433
0.728412
0.728391
0.72837
0.72835
0.728329
0.728308
0.728288
0.728266
0.728244
0.728221
0.728196
0.728171
0.728144
0.728118
0.72809
0.728059
0.728029
0.727999
0.727968
0.727936
0.727905
0.727875
0.727845
0.727815
0.727787
0.727761
0.727736
0.727713
0.727692
0.727674
0.727658
0.727644
0.727631
0.727622
0.727613
0.727606
0.7276
0.727595
0.72759
0.727585
0.72758
0.727574
0.727566
0.727558
0.727548
0.727536
0.727523
0.727508
0.727494
0.727478
0.72746
0.727442
0.727424
0.727407
0.727391
0.727375
0.727362
0.727349
0.727335
0.727322
0.72731
0.7273
0.727289
0.727279
0.727269
0.727259
0.727249
0.727237
0.727223
0.727207
0.727191
0.727174
0.727155
0.727136
0.727114
0.727095
0.727079
0.727056
0.741383
0.740943
0.740308
0.739711
0.739173
0.738664
0.738153
0.737654
0.737164
0.736673
0.736195
0.735732
0.735287
0.734863
0.734461
0.734083
0.733731
0.733408
0.733117
0.732858
0.732619
0.732409
0.732223
0.732058
0.731909
0.731776
0.731655
0.731544
0.731441
0.731346
0.731259
0.731179
0.731101
0.731027
0.730958
0.730891
0.730828
0.730766
0.730707
0.730651
0.730596
0.730544
0.730493
0.730443
0.730395
0.730349
0.730304
0.730261
0.73022
0.730179
0.73014
0.730102
0.730065
0.730027
0.729992
0.729958
0.729925
0.729893
0.729863
0.729832
0.729802
0.729773
0.729742
0.729712
0.729681
0.729649
0.729615
0.72958
0.729542
0.729503
0.729466
0.729425
0.729384
0.729344
0.729303
0.729263
0.729223
0.729184
0.729145
0.729106
0.729067
0.729029
0.72899
0.728952
0.728914
0.728877
0.72884
0.728803
0.728767
0.728731
0.728696
0.728661
0.728627
0.728594
0.728562
0.728531
0.728501
0.728473
0.728447
0.728422
0.728399
0.728377
0.728357
0.728337
0.728318
0.7283
0.728281
0.728263
0.728245
0.728226
0.728207
0.728186
0.728164
0.72814
0.728115
0.72809
0.728062
0.728032
0.728001
0.727969
0.727936
0.727903
0.727869
0.727834
0.7278
0.727767
0.727734
0.727703
0.727674
0.727647
0.727622
0.7276
0.727581
0.727564
0.72755
0.72754
0.727531
0.727524
0.727519
0.727516
0.727513
0.727511
0.727508
0.727505
0.727501
0.727496
0.727488
0.727479
0.727467
0.727454
0.727441
0.727426
0.727407
0.727389
0.727371
0.727353
0.727335
0.727319
0.727304
0.727291
0.727277
0.727264
0.727252
0.727241
0.727231
0.727222
0.727213
0.727204
0.727195
0.727184
0.727172
0.727158
0.727144
0.727127
0.72711
0.72709
0.727069
0.72705
0.727034
0.72701
0.741091
0.740658
0.740032
0.739448
0.738928
0.73844
0.737953
0.737486
0.737024
0.736563
0.736114
0.735679
0.735259
0.734859
0.734478
0.734119
0.733783
0.733473
0.733191
0.732941
0.732707
0.7325
0.732316
0.73215
0.732
0.731865
0.731741
0.731627
0.731521
0.731422
0.731332
0.731248
0.731165
0.731087
0.731014
0.730942
0.730874
0.730808
0.730744
0.730683
0.730623
0.730565
0.730509
0.730454
0.730401
0.730349
0.730298
0.73025
0.730203
0.730158
0.730114
0.73007
0.730029
0.729988
0.72995
0.729915
0.729882
0.729851
0.729823
0.729797
0.729773
0.72975
0.729727
0.729705
0.729681
0.729656
0.729629
0.729599
0.729566
0.72953
0.729494
0.729453
0.72941
0.729367
0.729323
0.72928
0.729236
0.729192
0.729149
0.729106
0.729063
0.72902
0.728978
0.728936
0.728893
0.728851
0.728809
0.728768
0.728727
0.728687
0.728647
0.728608
0.728569
0.728531
0.728495
0.728462
0.728429
0.728399
0.728371
0.728345
0.728322
0.728301
0.728281
0.728263
0.728246
0.728231
0.728216
0.728201
0.728186
0.728171
0.728155
0.728138
0.728119
0.728099
0.728077
0.728055
0.72803
0.728001
0.727971
0.727939
0.727906
0.72787
0.727834
0.727797
0.727759
0.727721
0.727684
0.727647
0.727613
0.72758
0.72755
0.727523
0.727499
0.727479
0.727463
0.727451
0.72744
0.727433
0.727428
0.727426
0.727425
0.727425
0.727426
0.727427
0.727426
0.727424
0.72742
0.727414
0.727405
0.727394
0.727383
0.727369
0.72735
0.727332
0.727313
0.727295
0.727276
0.727258
0.727243
0.72723
0.727214
0.727201
0.727189
0.727178
0.727168
0.727159
0.727151
0.727143
0.727136
0.727127
0.727116
0.727104
0.727091
0.727076
0.72706
0.727041
0.727021
0.727001
0.726986
0.726962
0.740848
0.740424
0.73981
0.739244
0.738742
0.738275
0.737817
0.73738
0.73694
0.736509
0.736085
0.735674
0.735277
0.734897
0.734535
0.734191
0.733868
0.733569
0.733295
0.733051
0.732821
0.732616
0.732431
0.732263
0.73211
0.731971
0.731843
0.731722
0.73161
0.731505
0.731408
0.731317
0.731227
0.731142
0.731061
0.730982
0.730906
0.730833
0.730761
0.730692
0.730624
0.730557
0.730493
0.730429
0.730366
0.730305
0.730244
0.730185
0.730128
0.730073
0.730019
0.729965
0.729915
0.729866
0.729821
0.729781
0.729745
0.729715
0.72969
0.72967
0.729656
0.729645
0.729637
0.72963
0.729623
0.729614
0.729602
0.729586
0.729565
0.729538
0.72951
0.729474
0.729433
0.729389
0.729344
0.729297
0.729249
0.729201
0.729153
0.729105
0.729057
0.729009
0.728962
0.728914
0.728866
0.728818
0.72877
0.728723
0.728676
0.728629
0.728583
0.728538
0.728494
0.728451
0.728409
0.728372
0.728335
0.728302
0.728271
0.728244
0.72822
0.728199
0.728181
0.728165
0.728151
0.728138
0.728127
0.728116
0.728106
0.728095
0.728084
0.728072
0.728059
0.728043
0.728026
0.728009
0.727988
0.727962
0.727935
0.727905
0.727873
0.727838
0.727801
0.727761
0.727721
0.727679
0.727637
0.727595
0.727555
0.727515
0.727479
0.727445
0.727416
0.72739
0.72737
0.727355
0.727342
0.727332
0.727327
0.727325
0.727326
0.727328
0.727332
0.727336
0.72734
0.727342
0.727343
0.727341
0.727335
0.727327
0.727318
0.727305
0.727288
0.72727
0.727252
0.727232
0.727213
0.727194
0.727178
0.727164
0.727148
0.727134
0.727121
0.72711
0.7271
0.727092
0.727084
0.727077
0.727072
0.727063
0.727054
0.727045
0.727034
0.727021
0.727006
0.726989
0.726969
0.726949
0.726935
0.726912
0.740648
0.740236
0.739638
0.739091
0.738611
0.738167
0.737739
0.737327
0.736913
0.736505
0.736105
0.735715
0.735337
0.734974
0.734628
0.734299
0.733988
0.733697
0.73343
0.73319
0.732965
0.732759
0.732573
0.732402
0.732244
0.732099
0.731963
0.731834
0.731711
0.731596
0.731488
0.731386
0.731285
0.731188
0.731096
0.731006
0.730919
0.730833