/*--------------------------------*- C++ -*----------------------------------*\
| =========                 |                                                 |
| \\      /  F ield         | OpenFOAM: The Open Source CFD Toolbox           |
|  \\    /   O peration     | Version:  2.3.0                                 |
|   \\  /    A nd           | Web:      www.OpenFOAM.org                      |
|    \\/     M anipulation  |                                                 |
\*---------------------------------------------------------------------------*/
FoamFile
{
    version     2.0;
    format      ascii;
    class       volScalarField;
    location    "0.08";
    object      O2;
}
// * * * * * * * * * * * * * * * * * * * * * * * * * * * * * * * * * * * * * //

dimensions      [0 0 0 0 0 0 0];

internalField   nonuniform List<scalar> 
12225
(
0.0166827
0.00544907
0.00318697
0.00257794
0.00212076
0.0018627
0.00175237
0.00159652
0.00147429
0.00139539
0.00134083
0.00127386
0.00121064
0.00116298
0.00113362
0.00109094
0.00108553
0.0013432
0.0191109
0.00498889
0.00278883
0.0021805
0.00184287
0.00159658
0.00152215
0.00144505
0.00134687
0.0012779
0.00122234
0.00117951
0.00114904
0.00110833
0.00107861
0.0010459
0.00101909
0.0010653
0.10164
0.0100579
0.00372572
0.00235655
0.00180802
0.00146506
0.0013326
0.00127592
0.00119415
0.00112085
0.00107367
0.00103712
0.00100393
0.000981709
0.000967469
0.000950772
0.000925875
0.000910442
0.145659
0.0584103
0.00818832
0.00338489
0.00223453
0.00168184
0.00135633
0.00125931
0.00115529
0.00104908
0.000982668
0.000937737
0.000904638
0.000878477
0.000861042
0.000850352
0.000837724
0.000819778
0.160356
0.110294
0.0716071
0.00838699
0.00324222
0.00211079
0.00156599
0.00136222
0.00121325
0.00106494
0.000973186
0.00091711
0.000865898
0.000828113
0.000802912
0.000790031
0.000781232
0.00076763
0.164793
0.12112
0.095278
0.0562988
0.00642815
0.0026458
0.00171245
0.00146957
0.00126327
0.00114929
0.00102341
0.000930176
0.000883796
0.000829092
0.000788965
0.000768962
0.000759552
0.000745263
0.164696
0.122774
0.0960149
0.0763961
0.0109008
0.00380197
0.00201609
0.00160133
0.00138808
0.00119482
0.0010779
0.000968286
0.000908959
0.00084295
0.000798549
0.000776406
0.000764393
0.000745407
0.165334
0.123266
0.0984369
0.0841409
0.0438753
0.00568105
0.00247843
0.00175377
0.00146824
0.00128913
0.00111557
0.000999824
0.000924283
0.000860022
0.000816291
0.000796176
0.000777945
0.000751048
0.165916
0.124619
0.100513
0.0869508
0.0611976
0.00699146
0.00283178
0.0020293
0.00164937
0.00131088
0.00115646
0.00102488
0.00094925
0.000880344
0.000837436
0.000816772
0.000785822
0.000756051
0.166453
0.127458
0.106377
0.0885617
0.0682384
0.0104581
0.00356894
0.00244237
0.00184109
0.00142793
0.00119933
0.00105919
0.000964907
0.000897431
0.000865863
0.000825569
0.000787926
0.000763481
0.168677
0.132305
0.10884
0.0954693
0.0666485
0.0446139
0.00686124
0.00275371
0.0018686
0.00146979
0.00123624
0.00109223
0.000995199
0.000944135
0.000898049
0.000842014
0.000784954
0.000756159
0.16904
0.137
0.113679
0.0969668
0.0770286
0.0639775
0.00960157
0.00315033
0.00195516
0.00151442
0.00126778
0.00113088
0.0010738
0.000995832
0.000907281
0.000849279
0.000800322
0.000765382
0.170394
0.141037
0.11944
0.102705
0.0865652
0.0733247
0.0329277
0.00525614
0.00243799
0.00171705
0.00138532
0.00124829
0.00113643
0.00101537
0.000929641
0.000867264
0.000817653
0.000779227
0.169189
0.142362
0.121387
0.104995
0.0915668
0.0767461
0.0586343
0.00839323
0.00297069
0.00198787
0.00158528
0.00126843
0.00111582
0.0010222
0.000949842
0.000885675
0.000833153
0.000792182
0.164841
0.139725
0.118077
0.108913
0.0944112
0.0847295
0.0753392
0.0186932
0.00405436
0.00199183
0.00153804
0.00136024
0.00114352
0.00102003
0.00097578
0.000928106
0.000864764
0.00080917
0.162752
0.136741
0.114235
0.105597
0.0976049
0.0879775
0.0777252
0.0258757
0.00463065
0.00209649
0.0016437
0.00141802
0.00119285
0.00104168
0.00094527
0.000879732
0.000840943
0.000812711
0.163045
0.136802
0.118352
0.108002
0.100411
0.0912155
0.0812788
0.0355195
0.00537435
0.00223524
0.00170255
0.00139628
0.00121327
0.00107398
0.000977909
0.000900363
0.000843718
0.000798412
0.163409
0.139779
0.119044
0.10726
0.101299
0.0871252
0.0774289
0.0409725
0.00586738
0.00247401
0.00164649
0.00131667
0.00113987
0.00101738
0.000918666
0.000846991
0.000818605
0.000794899
0.16517
0.133471
0.116666
0.103292
0.0939802
0.0803672
0.0718967
0.0383512
0.00596438
0.00253002
0.00167448
0.00132591
0.00114835
0.00102406
0.000916325
0.000849317
0.0008259
0.000795831
0.167762
0.140061
0.115697
0.101191
0.0885884
0.0740625
0.0646751
0.0126578
0.00376994
0.00210866
0.00153755
0.00123574
0.00113655
0.00104209
0.000966723
0.000917334
0.000867406
0.000814744
0.171396
0.142644
0.116736
0.0999216
0.0840103
0.0670523
0.0558337
0.00897465
0.00311103
0.00191894
0.00141551
0.00126914
0.00114301
0.00107212
0.00100398
0.000918548
0.000854788
0.000805549
0.17258
0.143862
0.11543
0.0949503
0.0752832
0.0577478
0.0420944
0.0063802
0.00266795
0.00170876
0.00139296
0.0012483
0.00114558
0.00108039
0.000992147
0.000902195
0.000838458
0.000802192
0.170492
0.145801
0.112759
0.0911517
0.06562
0.0499556
0.00755785
0.00307654
0.00193496
0.00148299
0.00124832
0.00115561
0.00109094
0.00103264
0.000955825
0.000882743
0.000826927
0.000790411
0.168811
0.145436
0.112309
0.0902313
0.0625569
0.0145061
0.00419429
0.0023935
0.00169072
0.001379
0.00119109
0.00104272
0.000992333
0.000929559
0.000893522
0.000855891
0.000809573
0.00077021
0.167281
0.142823
0.110584
0.0878501
0.0616744
0.00754254
0.0029188
0.00192428
0.00147925
0.00125218
0.00106144
0.000996946
0.000941464
0.000878185
0.0008366
0.00081527
0.000778087
0.000759942
0.165776
0.137807
0.104525
0.0841773
0.0102741
0.00345833
0.00202786
0.00153349
0.00131003
0.00115338
0.00103403
0.000949764
0.00087829
0.000840074
0.000816206
0.000797077
0.000778494
0.0007481
0.16237
0.128883
0.0835478
0.0101252
0.00346
0.00212842
0.00167088
0.00137622
0.00118225
0.00105342
0.000957849
0.000887432
0.000853769
0.000835902
0.000821847
0.000798812
0.000773044
0.000751414
0.149516
0.0798719
0.00951243
0.00360032
0.00226076
0.00169705
0.00139334
0.00123593
0.00110366
0.00100514
0.000940617
0.000914987
0.000898493
0.000886545
0.00086552
0.00084013
0.000825894
0.000817323
0.104117
0.0101235
0.00377671
0.0024281
0.00182712
0.00154368
0.00137977
0.00126522
0.00116257
0.00109672
0.00106003
0.00104342
0.00102304
0.00099588
0.000973987
0.000951703
0.000929602
0.000910139
0.0178994
0.00517599
0.00283687
0.00227811
0.00195373
0.00173015
0.00156903
0.00140972
0.00131316
0.00125293
0.00121138
0.00115164
0.00112236
0.00108836
0.00106417
0.00103415
0.000996927
0.000969597
0.167423
0.165978
0.163422
0.159996
0.15594
0.151545
0.146642
0.140982
0.13524
0.128953
0.122473
0.115788
0.108423
0.101062
0.0939034
0.0870592
0.0806283
0.0746837
0.069339
0.0645223
0.0603977
0.0569247
0.0539622
0.0514775
0.0494502
0.0476016
0.0459996
0.0446326
0.0434061
0.0423189
0.0413107
0.0403877
0.0395908
0.0388785
0.0381484
0.0374713
0.0368318
0.0362175
0.0356419
0.0351038
0.0346011
0.0341723
0.0337543
0.0333077
0.03291
0.032534
0.0321715
0.0318179
0.0314875
0.0311789
0.0308893
0.0306107
0.0303394
0.0300792
0.0298331
0.0295983
0.0293775
0.0291666
0.0289491
0.0287385
0.0285525
0.0283604
0.0281709
0.0279876
0.0278147
0.0276601
0.0274961
0.0273248
0.0271661
0.0270123
0.0268566
0.0267079
0.0265632
0.026421
0.0262821
0.0261462
0.0260121
0.0258787
0.0257464
0.025617
0.0254907
0.0253667
0.0252444
0.0251239
0.025006
0.0248918
0.0247811
0.0246717
0.0245623
0.0244574
0.024345
0.0242374
0.0241279
0.0240249
0.0239234
0.0238227
0.0237217
0.0236227
0.0235262
0.0234329
0.0233413
0.023244
0.0231562
0.0230599
0.022974
0.0228855
0.0227949
0.0226977
0.0226035
0.0225205
0.0224346
0.0223451
0.0222664
0.0221797
0.0220971
0.0220102
0.0219281
0.0218463
0.0217647
0.0216839
0.0216037
0.0215242
0.021445
0.0213667
0.0212906
0.0212154
0.0211369
0.0210574
0.0209795
0.0209016
0.0208258
0.02075
0.0206807
0.0206056
0.0205303
0.0204579
0.0203853
0.0203115
0.020238
0.0201652
0.0200924
0.0200191
0.0199449
0.0198681
0.0197919
0.0197177
0.0196436
0.0195654
0.0194856
0.0194104
0.0193299
0.0192554
0.0191766
0.0190996
0.0190253
0.0189438
0.0188687
0.0187879
0.0187145
0.0186401
0.0185635
0.0184853
0.0184061
0.0183289
0.018255
0.0181794
0.0181078
0.0180361
0.0179686
0.0179012
0.0178361
0.0177729
0.0177127
0.0176593
0.0176115
0.0175657
0.0175257
0.0174934
0.0174672
0.0174719
0.159914
0.158037
0.154728
0.150637
0.14613
0.141429
0.136378
0.130728
0.124989
0.118819
0.112431
0.105853
0.0991487
0.0922744
0.0855387
0.0792584
0.0735026
0.0682343
0.0635497
0.0594014
0.0558658
0.0528818
0.0503614
0.0482574
0.0465057
0.0449929
0.0436169
0.0424216
0.0413663
0.0404467
0.0395848
0.0387915
0.0380746
0.0374161
0.0367897
0.0361981
0.0356359
0.0350993
0.0345984
0.0341395
0.0337207
0.0333303
0.0329386
0.0325502
0.032189
0.0318548
0.0315596
0.0312792
0.0309747
0.0307036
0.0304401
0.0301856
0.0299458
0.0297164
0.0294981
0.0292898
0.0290899
0.028894
0.028699
0.0285129
0.028338
0.0281614
0.0279879
0.0278188
0.0276594
0.0275115
0.0273577
0.0271984
0.0270453
0.0269046
0.026751
0.0266091
0.0264714
0.0263355
0.0262015
0.026069
0.0259377
0.0258073
0.0256782
0.0255512
0.0254264
0.0253032
0.0251816
0.0250616
0.024944
0.0248296
0.0247184
0.0246086
0.0244977
0.0243866
0.0242773
0.0241664
0.0240602
0.0239459
0.0238412
0.0237371
0.0236338
0.0235319
0.0234319
0.0233337
0.0232365
0.0231388
0.0230437
0.0229477
0.0228547
0.0227606
0.0226647
0.0225669
0.0224715
0.0223813
0.0222921
0.0222014
0.0221148
0.0220279
0.0219428
0.0218523
0.0217668
0.0216825
0.0215988
0.0215159
0.0214336
0.0213518
0.0212713
0.0211919
0.0211139
0.0210364
0.0209578
0.0208786
0.0208003
0.0207228
0.0206469
0.0205718
0.0205018
0.0204294
0.0203516
0.0202772
0.0202035
0.0201295
0.0200558
0.0199823
0.0199085
0.0198344
0.0197596
0.0196829
0.0196062
0.0195316
0.0194575
0.0193815
0.0193052
0.0192295
0.0191515
0.0190771
0.0190001
0.0189231
0.0188481
0.0187694
0.018694
0.0186158
0.0185416
0.018465
0.0183881
0.0183093
0.0182289
0.0181484
0.0180696
0.0179891
0.0179113
0.0178329
0.0177584
0.0176813
0.0176057
0.0175303
0.0174576
0.0173932
0.0173333
0.0172752
0.0172223
0.017182
0.0171427
0.0171279
0.148595
0.146296
0.142539
0.138234
0.133755
0.129161
0.124336
0.119048
0.113613
0.10785
0.101912
0.0958573
0.0897951
0.0837552
0.0778242
0.0723101
0.0672965
0.0628184
0.0587695
0.0552563
0.0522536
0.0497163
0.0475828
0.0457957
0.0442935
0.0430013
0.0418349
0.0407965
0.0398815
0.0390701
0.0383384
0.0376367
0.0370026
0.0364159
0.0358652
0.0353444
0.0348522
0.0343888
0.0339566
0.0335544
0.0331775
0.0328191
0.0324714
0.0321354
0.031817
0.031521
0.0312535
0.0309976
0.0307306
0.0304849
0.0302576
0.0300176
0.0297986
0.02959
0.02939
0.0291973
0.0290103
0.0288269
0.0286471
0.0284733
0.0283048
0.0281378
0.027973
0.0278121
0.0276587
0.0275123
0.0273632
0.0272104
0.0270595
0.026923
0.0267703
0.0266302
0.026494
0.0263594
0.0262257
0.0260931
0.0259615
0.0258308
0.0257014
0.0255735
0.0254473
0.0253225
0.0251991
0.0250775
0.024958
0.0248412
0.0247271
0.024614
0.0245003
0.0243862
0.0242732
0.0241599
0.0240499
0.0239323
0.0238219
0.0237139
0.0236067
0.0235005
0.0233957
0.0232921
0.0231895
0.0230874
0.0229865
0.022886
0.0227864
0.0226863
0.0225853
0.0224839
0.0223843
0.0222878
0.0221931
0.0220985
0.0220063
0.0219152
0.0218264
0.0217315
0.0216419
0.021554
0.0214672
0.0213813
0.0212963
0.0212121
0.0211293
0.0210481
0.020968
0.0208886
0.0208092
0.0207298
0.020651
0.0205734
0.020497
0.0204219
0.0203505
0.0202786
0.0202011
0.0201262
0.0200523
0.0199783
0.0199042
0.01983
0.0197554
0.0196805
0.0196048
0.0195279
0.0194508
0.019375
0.0192998
0.0192233
0.0191472
0.0190714
0.0189934
0.0189182
0.0188413
0.0187647
0.0186895
0.0186124
0.0185369
0.0184602
0.0183868
0.0183091
0.0182321
0.0181535
0.018073
0.0179914
0.0179101
0.017827
0.0177451
0.0176622
0.017583
0.0174995
0.0174154
0.017331
0.0172492
0.0171726
0.0171049
0.0170351
0.0169723
0.0169227
0.0168744
0.0168385
0.137206
0.13475
0.130952
0.126823
0.122655
0.118368
0.113905
0.109049
0.104013
0.0987253
0.0933096
0.0878364
0.0824186
0.0771135
0.0719614
0.0671497
0.0627782
0.0589046
0.0553936
0.0523606
0.0497701
0.0475754
0.0457247
0.0441651
0.0428433
0.0417009
0.0406769
0.0397575
0.0389425
0.0382121
0.0375671
0.0369367
0.0363643
0.0358333
0.0353372
0.034869
0.0344281
0.0340144
0.0336267
0.0332621
0.032917
0.0325879
0.0322721
0.0319688
0.0316799
0.0314087
0.0311578
0.0309183
0.0306785
0.0304497
0.0302339
0.0300168
0.0298052
0.0296085
0.0294185
0.0292342
0.0290544
0.0288782
0.0287056
0.0285371
0.0283719
0.0282085
0.0280471
0.0278891
0.0277368
0.0275892
0.0274406
0.0272894
0.0271387
0.0270014
0.0268477
0.026706
0.0265682
0.0264318
0.0262961
0.0261612
0.0260272
0.0258942
0.0257624
0.0256319
0.0255028
0.0253751
0.0252489
0.0251243
0.0250017
0.0248816
0.0247637
0.0246468
0.0245298
0.0244125
0.0242957
0.0241793
0.0240644
0.0239454
0.023829
0.0237168
0.0236054
0.023495
0.0233854
0.0232768
0.0231691
0.023062
0.0229556
0.0228497
0.022744
0.0226381
0.0225316
0.0224253
0.0223202
0.0222175
0.0221166
0.0220166
0.0219186
0.0218219
0.021728
0.0216281
0.0215334
0.0214409
0.0213498
0.0212599
0.0211713
0.0210838
0.0209981
0.020914
0.0208314
0.0207498
0.0206688
0.0205884
0.0205088
0.0204306
0.0203537
0.0202783
0.0202058
0.0201339
0.0200571
0.0199822
0.0199084
0.0198345
0.0197604
0.0196858
0.0196108
0.0195352
0.0194587
0.0193812
0.0193033
0.0192261
0.0191494
0.019072
0.0189953
0.0189183
0.01884
0.0187639
0.0186861
0.0186093
0.0185337
0.0184575
0.0183823
0.0183065
0.0182346
0.0181568
0.0180801
0.0180023
0.0179226
0.0178413
0.0177593
0.0176753
0.0175915
0.0175058
0.017424
0.0173366
0.0172464
0.0171553
0.0170674
0.0169839
0.0169038
0.0168234
0.0167562
0.0166971
0.0166416
0.016589
0.127433
0.12496
0.12125
0.117342
0.113465
0.109468
0.105321
0.100843
0.0961941
0.0913457
0.0864228
0.0814926
0.0766568
0.0719706
0.0674622
0.0632411
0.0594016
0.0559955
0.0529526
0.0502797
0.0480097
0.0460792
0.0444429
0.0430547
0.0418693
0.0408396
0.0399192
0.0390905
0.0383507
0.0376839
0.037096
0.0365274
0.0359994
0.0355117
0.0350571
0.0346282
0.0342246
0.0338451
0.0334879
0.0331502
0.0328293
0.0325228
0.0322292
0.0319473
0.031678
0.0314232
0.0311842
0.0309564
0.0307325
0.0305151
0.030306
0.0301038
0.0298964
0.029706
0.0295213
0.0293414
0.0291652
0.0289924
0.0288226
0.0286557
0.0284912
0.0283284
0.0281672
0.028009
0.0278551
0.0277048
0.0275544
0.0274019
0.0272492
0.0271092
0.026953
0.026808
0.0266669
0.0265272
0.0263879
0.0262494
0.0261119
0.0259754
0.0258401
0.025706
0.0255733
0.0254419
0.0253119
0.0251836
0.0250573
0.0249332
0.0248112
0.0246903
0.0245697
0.0244489
0.0243285
0.0242084
0.0240891
0.0239679
0.0238462
0.0237299
0.0236144
0.0234997
0.0233857
0.0232725
0.0231599
0.0230479
0.0229363
0.0228249
0.0227135
0.0226018
0.0224897
0.0223777
0.0222667
0.0221574
0.0220498
0.0219433
0.0218386
0.0217353
0.021635
0.0215287
0.0214279
0.0213296
0.0212329
0.0211378
0.0210443
0.0209524
0.0208626
0.0207748
0.0206887
0.0206041
0.0205208
0.0204386
0.0203578
0.0202786
0.020201
0.0201252
0.0200521
0.0199801
0.0199042
0.0198301
0.0197569
0.0196837
0.0196101
0.019536
0.0194611
0.0193853
0.0193084
0.0192304
0.0191517
0.0190733
0.018995
0.0189164
0.0188384
0.0187596
0.0186808
0.0186036
0.0185242
0.0184466
0.0183704
0.0182944
0.0182194
0.0181442
0.0180738
0.0179966
0.0179205
0.017844
0.0177657
0.0176857
0.0176044
0.0175207
0.0174364
0.0173495
0.0172665
0.0171768
0.0170823
0.0169862
0.0168933
0.0168033
0.0167151
0.0166292
0.016547
0.0164845
0.0164221
0.0163563
0.119518
0.117055
0.113422
0.10968
0.106014
0.102244
0.0983426
0.0941732
0.0898752
0.085417
0.0809353
0.0764858
0.0721518
0.0679782
0.0639909
0.0602554
0.0568523
0.0538285
0.0511547
0.0487719
0.0467534
0.0450288
0.0435583
0.0423023
0.0412225
0.0402803
0.0394385
0.0386791
0.0379969
0.0373797
0.0368337
0.0363135
0.0358196
0.0353655
0.0349425
0.034543
0.0341664
0.0338113
0.0334759
0.0331578
0.0328547
0.0325649
0.0322868
0.0320196
0.0317636
0.0315198
0.0312893
0.0310696
0.0308553
0.0306455
0.0304409
0.030247
0.0300422
0.0298547
0.0296726
0.0294945
0.0293197
0.0291477
0.0289782
0.0288108
0.0286451
0.0284807
0.0283176
0.028157
0.028
0.0278458
0.0276918
0.0275362
0.02738
0.0272353
0.0270757
0.026926
0.0267804
0.026636
0.0264921
0.026349
0.0262069
0.026066
0.0259262
0.0257877
0.0256505
0.0255147
0.0253803
0.0252477
0.0251169
0.0249883
0.0248618
0.0247366
0.0246119
0.0244873
0.024363
0.024239
0.0241153
0.0239918
0.0238651
0.0237446
0.0236253
0.0235066
0.0233885
0.0232711
0.0231542
0.0230376
0.0229213
0.0228049
0.0226883
0.0225711
0.0224535
0.0223358
0.0222186
0.0221026
0.0219879
0.0218742
0.0217621
0.0216511
0.0215428
0.0214294
0.0213211
0.0212154
0.0211117
0.0210098
0.0209099
0.0208121
0.0207167
0.0206238
0.0205331
0.0204445
0.0203578
0.020273
0.0201901
0.0201094
0.0200308
0.0199544
0.019881
0.0198089
0.0197342
0.0196617
0.0195897
0.0195179
0.0194458
0.019373
0.0192993
0.0192242
0.0191478
0.0190698
0.0189907
0.0189113
0.0188315
0.0187516
0.0186719
0.0185911
0.0185115
0.0184328
0.018351
0.018272
0.0181947
0.0181184
0.0180434
0.0179686
0.0178992
0.0178232
0.0177479
0.0176729
0.0175966
0.0175185
0.0174388
0.0173566
0.0172732
0.0171863
0.0171034
0.0170129
0.0169155
0.0168157
0.0167189
0.0166233
0.0165288
0.0164365
0.0163463
0.0162734
0.0162064
0.0161295
0.113187
0.110728
0.107141
0.103508
0.0999947
0.0964046
0.0927043
0.0887989
0.0848109
0.0806982
0.0766016
0.0725646
0.0686526
0.0649015
0.061335
0.0579966
0.0549499
0.0522355
0.0498524
0.0477014
0.0458794
0.0443151
0.042973
0.0418193
0.0408212
0.0399465
0.0391648
0.0384584
0.0378206
0.0372417
0.036727
0.0362415
0.0357754
0.0353467
0.0349475
0.0345698
0.0342128
0.0338753
0.0335556
0.0332517
0.0329615
0.0326836
0.0324165
0.0321594
0.0319123
0.0316759
0.0314511
0.0312363
0.0310276
0.0308227
0.0306213
0.0304323
0.0302286
0.0300421
0.0298607
0.0296828
0.0295076
0.0293348
0.0291639
0.0289944
0.0288261
0.0286585
0.028492
0.0283274
0.0281657
0.0280065
0.0278475
0.027687
0.0275257
0.0273748
0.0272107
0.0270553
0.0269038
0.0267535
0.0266038
0.026455
0.0263072
0.0261608
0.0260156
0.0258717
0.0257292
0.0255881
0.0254485
0.0253106
0.0251746
0.0250408
0.0249091
0.024779
0.0246497
0.0245208
0.0243922
0.0242638
0.0241357
0.0240089
0.0238778
0.0237533
0.0236302
0.0235079
0.0233862
0.0232652
0.0231447
0.0230244
0.0229041
0.0227836
0.0226627
0.022541
0.0224186
0.0222957
0.0221729
0.0220505
0.0219288
0.0218077
0.0216877
0.0215684
0.0214508
0.0213294
0.0212122
0.0210976
0.0209851
0.0208747
0.0207666
0.020661
0.0205583
0.0204585
0.0203614
0.0202672
0.0201757
0.0200869
0.0200009
0.0199178
0.0198376
0.0197603
0.0196863
0.0196142
0.019541
0.0194709
0.0194008
0.0193313
0.0192616
0.0191914
0.01912
0.019047
0.018972
0.0188951
0.0188164
0.0187366
0.0186558
0.0185746
0.0184933
0.0184104
0.0183298
0.0182491
0.0181645
0.0180833
0.0180044
0.0179271
0.0178515
0.0177767
0.017708
0.0176335
0.0175588
0.0174855
0.0174115
0.017336
0.0172587
0.017179
0.0170976
0.0170121
0.0169305
0.0168403
0.0167415
0.0166394
0.0165396
0.0164397
0.0163401
0.0162417
0.0161442
0.0160642
0.0159901
0.0159032
0.108098
0.105635
0.10207
0.0985148
0.0951197
0.0916851
0.088157
0.0844834
0.0807712
0.0769643
0.0732006
0.0695145
0.0659561
0.0625551
0.0593329
0.0563182
0.0535612
0.0510961
0.0489422
0.0469756
0.0453068
0.0438669
0.042624
0.041549
0.0406138
0.0397908
0.0390543
0.0383876
0.037783
0.0372332
0.0367412
0.0362816
0.0358363
0.0354267
0.0350446
0.0346826
0.0343396
0.0340145
0.0337058
0.0334116
0.0331303
0.0328604
0.0326007
0.0323503
0.0321091
0.0318774
0.031656
0.0314439
0.031238
0.0310363
0.0308373
0.030651
0.0304476
0.0302606
0.0300788
0.0299
0.0297235
0.0295487
0.0293752
0.0292026
0.0290305
0.0288586
0.0286873
0.0285174
0.0283498
0.0281841
0.0280187
0.0278517
0.0276837
0.0275248
0.027355
0.0271925
0.0270337
0.0268762
0.0267193
0.0265635
0.0264089
0.0262557
0.0261039
0.0259535
0.0258045
0.025657
0.025511
0.0253668
0.0252245
0.0250844
0.0249465
0.0248106
0.0246759
0.0245417
0.024408
0.0242747
0.0241418
0.0240109
0.0238755
0.0237469
0.02362
0.0234943
0.0233696
0.0232457
0.0231225
0.0229995
0.0228767
0.0227535
0.0226297
0.022505
0.0223792
0.0222526
0.0221253
0.0219978
0.0218701
0.0217422
0.0216146
0.0214869
0.0213592
0.0212292
0.0211023
0.0209774
0.0208545
0.0207338
0.0206154
0.0204999
0.0203876
0.0202786
0.0201731
0.0200711
0.0199727
0.019878
0.0197871
0.0197002
0.0196173
0.0195383
0.0194633
0.0193911
0.0193194
0.0192522
0.0191846
0.0191182
0.0190522
0.0189858
0.0189182
0.0188487
0.0187769
0.0187025
0.0186255
0.0185464
0.0184654
0.0183833
0.0183006
0.0182158
0.0181342
0.0180512
0.0179632
0.0178792
0.017798
0.017719
0.0176423
0.0175669
0.0174984
0.0174253
0.0173511
0.0172795
0.0172078
0.0171352
0.0170611
0.0169846
0.0169063
0.0168235
0.0167446
0.0166558
0.0165569
0.0164542
0.0163526
0.0162497
0.016146
0.0160423
0.0159384
0.015852
0.015772
0.0156746
0.103968
0.1015
0.0979462
0.0944521
0.0911558
0.0878629
0.0844907
0.081027
0.0775602
0.0740255
0.0705508
0.0671641
0.0639037
0.0607945
0.0578551
0.0551058
0.0525848
0.0503216
0.048336
0.0465397
0.0449791
0.0436353
0.0424685
0.0414533
0.0405655
0.0397811
0.0390777
0.0384399
0.0378594
0.0373301
0.0368543
0.036413
0.0359825
0.035586
0.0352155
0.034864
0.0345302
0.034213
0.0339111
0.033623
0.0333471
0.033082
0.0328266
0.03258
0.0323421
0.0321129
0.0318931
0.0316821
0.0314775
0.0312775
0.0310797
0.0308911
0.0306943
0.0305032
0.0303203
0.0301401
0.0299617
0.0297845
0.029608
0.0294317
0.0292552
0.0290784
0.0289013
0.0287249
0.0285501
0.0283769
0.0282036
0.0280285
0.0278522
0.0276836
0.0275065
0.0273355
0.0271677
0.0270012
0.0268357
0.0266713
0.0265083
0.0263469
0.026187
0.0260286
0.0258717
0.0257163
0.0255625
0.0254105
0.0252604
0.0251126
0.0249671
0.0248238
0.0246822
0.0245416
0.0244016
0.0242622
0.0241234
0.0239875
0.0238474
0.0237142
0.0235834
0.0234545
0.0233271
0.023201
0.0230761
0.0229519
0.022828
0.022704
0.0225794
0.0224538
0.022327
0.0221989
0.0220695
0.0219391
0.0218075
0.0216745
0.0215406
0.0214056
0.021268
0.02113
0.0209932
0.020857
0.0207225
0.0205897
0.0204592
0.0203315
0.020207
0.0200862
0.0199695
0.019857
0.0197491
0.019646
0.0195478
0.019455
0.0193675
0.0192852
0.0192082
0.0191352
0.0190646
0.0190003
0.0189356
0.0188731
0.0188118
0.0187508
0.0186886
0.0186245
0.0185576
0.0184875
0.018414
0.0183372
0.0182573
0.0181755
0.0180921
0.0180058
0.0179236
0.0178382
0.0177463
0.017659
0.0175748
0.0174933
0.0174147
0.0173379
0.0172692
0.0171973
0.0171232
0.0170529
0.0169836
0.0169141
0.0168435
0.016771
0.0166967
0.0166179
0.0165427
0.0164564
0.0163589
0.0162572
0.0161553
0.0160508
0.0159441
0.0158361
0.0157268
0.0156342
0.0155498
0.0154424
0.100584
0.0981151
0.094571
0.0911303
0.0879236
0.0847654
0.0815345
0.0782665
0.075022
0.0717311
0.068509
0.0653799
0.0623727
0.0595088
0.0568038
0.0542732
0.0519453
0.0498466
0.0479944
0.0463294
0.0448561
0.0435858
0.0424764
0.0415055
0.040652
0.039895
0.0392149
0.0385967
0.038032
0.0375159
0.03705
0.0366203
0.036199
0.0358101
0.0354461
0.0351001
0.0347709
0.0344574
0.0341586
0.0338728
0.0335988
0.0333354
0.0330814
0.0328359
0.0325987
0.0323698
0.0321498
0.0319384
0.0317339
0.0315341
0.0313367
0.0311454
0.0309528
0.0307588
0.0305745
0.030393
0.0302129
0.0300336
0.0298544
0.0296748
0.0294944
0.0293127
0.0291299
0.0289469
0.0287646
0.0285831
0.0284009
0.0282165
0.0280301
0.0278498
0.0276642
0.0274828
0.0273041
0.0271266
0.0269504
0.0267756
0.0266025
0.026431
0.0262612
0.026093
0.0259263
0.0257612
0.0255976
0.0254358
0.0252759
0.0251183
0.0249632
0.0248106
0.02466
0.0245109
0.0243627
0.0242155
0.0240693
0.0239261
0.0237813
0.0236421
0.0235067
0.0233742
0.0232442
0.0231166
0.0229909
0.0228669
0.0227438
0.0226212
0.0224983
0.0223747
0.0222499
0.0221236
0.0219956
0.0218656
0.0217335
0.0215986
0.021461
0.0213204
0.0211756
0.0210319
0.0208863
0.0207384
0.0205918
0.0204462
0.0203019
0.02016
0.020021
0.0198856
0.0197546
0.0196284
0.0195076
0.0193926
0.019284
0.0191821
0.0190873
0.0189995
0.0189185
0.0188434
0.0187729
0.018711
0.0186489
0.0185906
0.018535
0.0184805
0.0184255
0.0183686
0.0183088
0.0182453
0.0181774
0.0181051
0.0180283
0.0179482
0.0178654
0.0177785
0.0176964
0.017609
0.017513
0.0174219
0.0173342
0.0172495
0.0171681
0.0170893
0.0170196
0.0169485
0.0168739
0.0168045
0.0167373
0.0166707
0.0166039
0.0165358
0.0164663
0.0163926
0.0163224
0.0162394
0.016145
0.016046
0.0159453
0.0158406
0.0157324
0.0156213
0.0155075
0.0154092
0.0153216
0.0152057
0.0977904
0.0953286
0.0917972
0.0884073
0.0852842
0.0822525
0.0791637
0.0760819
0.0730369
0.0699658
0.0669664
0.0640609
0.0612707
0.0586147
0.0561062
0.0537563
0.0515867
0.0496211
0.0478741
0.0463152
0.0449084
0.0436932
0.0426261
0.0416866
0.0408564
0.040117
0.0394508
0.0388436
0.0382872
0.0377774
0.0373153
0.0368906
0.0364728
0.036086
0.0357232
0.0353777
0.0350483
0.0347339
0.0344337
0.0341462
0.0338703
0.0336047
0.0333485
0.0331007
0.0328612
0.0326298
0.0324072
0.0321933
0.0319868
0.0317856
0.0315869
0.0313926
0.0312016
0.0310054
0.03082
0.0306377
0.0304569
0.0302769
0.030097
0.0299163
0.029734
0.0295498
0.0293636
0.0291759
0.0289875
0.0287986
0.0286079
0.0284139
0.0282166
0.0280229
0.0278278
0.0276341
0.0274419
0.0272513
0.0270622
0.0268748
0.0266892
0.0265055
0.0263235
0.0261432
0.0259645
0.0257872
0.0256114
0.0254372
0.0252649
0.0250948
0.0249272
0.0247623
0.0246
0.0244395
0.0242806
0.0241229
0.0239668
0.0238135
0.0236623
0.0235154
0.0233741
0.023237
0.023104
0.0229749
0.0228493
0.0227266
0.0226063
0.0224875
0.0223692
0.0222509
0.0221318
0.0220115
0.0218892
0.0217646
0.0216367
0.021504
0.0213669
0.0212249
0.021077
0.0209317
0.0207797
0.0206218
0.0204643
0.0203061
0.0201479
0.0199905
0.0198351
0.0196828
0.0195344
0.019391
0.0192534
0.0191225
0.0189992
0.0188843
0.0187783
0.0186815
0.0185936
0.018514
0.0184416
0.0183807
0.0183203
0.0182658
0.0182162
0.0181693
0.0181228
0.018075
0.0180245
0.0179702
0.0179107
0.0178455
0.0177743
0.0176981
0.0176176
0.0175316
0.0174507
0.017362
0.0172623
0.0171674
0.0170756
0.016987
0.0169021
0.0168204
0.0167488
0.016678
0.0166023
0.0165332
0.0164675
0.0164037
0.0163406
0.0162771
0.0162128
0.0161452
0.016081
0.0160022
0.0159125
0.0158179
0.0157202
0.0156169
0.0155086
0.0153958
0.0152788
0.0151753
0.0150858
0.0149631
0.0954703
0.0930264
0.0895152
0.0861781
0.0831392
0.0802295
0.0772821
0.0743766
0.0715168
0.068644
0.0658426
0.0631324
0.0605295
0.0580506
0.0557073
0.0535078
0.0514685
0.0496108
0.0479485
0.0464692
0.0451149
0.0439399
0.0429018
0.0419824
0.0411654
0.0404345
0.0397737
0.0391694
0.0386134
0.0381028
0.0376379
0.0372108
0.0367906
0.0363997
0.0360318
0.0356808
0.0353453
0.0350244
0.0347172
0.0344225
0.0341393
0.0338663
0.0336028
0.0333479
0.0331012
0.0328627
0.0326331
0.0324127
0.0322006
0.0319944
0.0317914
0.0315921
0.031399
0.0312001
0.0310131
0.0308303
0.0306502
0.030472
0.030295
0.0301179
0.0299399
0.0297599
0.0295771
0.0293913
0.0292026
0.0290109
0.0288153
0.0286143
0.0284081
0.0282018
0.0279981
0.02779
0.0275819
0.0273757
0.0271713
0.0269686
0.0267678
0.026569
0.026372
0.0261768
0.0259831
0.0257908
0.0255998
0.0254102
0.0252222
0.025036
0.0248522
0.0246711
0.0244929
0.0243173
0.0241437
0.0239719
0.0238023
0.0236357
0.0234741
0.0233176
0.0231678
0.0230243
0.0228871
0.022756
0.0226305
0.0225102
0.0223943
0.0222817
0.0221713
0.022062
0.021953
0.0218432
0.0217318
0.0216179
0.0214999
0.0213754
0.0212447
0.0211077
0.0209628
0.0208212
0.0206679
0.020504
0.0203389
0.0201706
0.0199998
0.0198276
0.0196554
0.0194844
0.0193163
0.0191524
0.0189942
0.018843
0.0187002
0.0185672
0.018445
0.0183343
0.0182353
0.0181474
0.0180699
0.0180078
0.0179471
0.0178949
0.0178507
0.0178116
0.0177745
0.0177374
0.0176984
0.0176557
0.0176076
0.0175527
0.0174902
0.0174208
0.0173451
0.0172619
0.017184
0.0170952
0.0169927
0.0168942
0.0167984
0.0167053
0.0166161
0.0165306
0.0164564
0.0163855
0.0163079
0.0162383
0.0161734
0.0161117
0.016052
0.0159931
0.0159342
0.0158734
0.0158161
0.0157422
0.0156589
0.0155705
0.0154773
0.0153773
0.0152706
0.0151576
0.0150388
0.0149308
0.0148406
0.014713
0.0935397
0.0911249
0.0876441
0.0843679
0.0814172
0.0786263
0.0758194
0.0730852
0.0703944
0.0677034
0.065079
0.0625405
0.0600998
0.0577723
0.0555683
0.0534937
0.0515612
0.0497903
0.0481955
0.0467771
0.045462
0.0443143
0.0432938
0.0423839
0.0415705
0.0408391
0.0401747
0.0395642
0.0390001
0.0384805
0.0380049
0.0375668
0.0371361
0.0367333
0.0363523
0.0359879
0.0356384
0.035303
0.034981
0.0346711
0.0343724
0.0340841
0.0338052
0.0335349
0.0332729
0.0330191
0.0327742
0.0325393
0.0323136
0.032095
0.0318804
0.0316698
0.031469
0.0312627
0.0310708
0.0308859
0.0307067
0.0305327
0.0303628
0.0301964
0.0300318
0.0298672
0.029701
0.0295321
0.0293598
0.0291825
0.0289968
0.0288003
0.0285928
0.0283794
0.0281713
0.0279503
0.0277251
0.0275019
0.0272798
0.027059
0.0268398
0.0266225
0.026407
0.0261933
0.025981
0.0257699
0.0255599
0.0253508
0.0251428
0.0249362
0.0247316
0.0245296
0.0243306
0.0241347
0.0239413
0.0237502
0.0235619
0.0233774
0.0232001
0.0230306
0.0228688
0.0227159
0.0225723
0.0224379
0.0223124
0.022195
0.0220849
0.0219806
0.0218809
0.0217843
0.0216895
0.0215952
0.0215001
0.0214027
0.0213011
0.0211921
0.0210755
0.0209513
0.0208174
0.0206866
0.0205392
0.0203762
0.0202096
0.0200365
0.0198573
0.0196732
0.0194858
0.0192968
0.0191081
0.0189217
0.0187396
0.0185638
0.0183964
0.0182395
0.018095
0.0179644
0.0178485
0.017747
0.0176597
0.017593
0.0175285
0.0174757
0.0174349
0.0174028
0.0173753
0.0173499
0.0173239
0.0172952
0.0172615
0.0172203
0.0171702
0.0171111
0.0170432
0.0169655
0.0168927
0.0168057
0.016702
0.0166009
0.0165012
0.0164036
0.0163095
0.0162194
0.0161418
0.0160704
0.0159902
0.0159192
0.0158543
0.015794
0.0157371
0.0156824
0.0156289
0.0155753
0.0155252
0.0154573
0.0153818
0.0153011
0.0152142
0.0151192
0.015016
0.0149046
0.0147855
0.0146739
0.0145844
0.0144538
0.0919334
0.0895588
0.086125
0.0829251
0.0800684
0.0773914
0.0747248
0.0721604
0.0696234
0.0670998
0.0646341
0.0622464
0.0599464
0.0577485
0.055662
0.0536914
0.0518466
0.0501456
0.0486039
0.0472314
0.0459442
0.044813
0.0437996
0.0428893
0.0420695
0.0413276
0.0406493