/*--------------------------------*- C++ -*----------------------------------*\
| =========                 |                                                 |
| \\      /  F ield         | OpenFOAM: The Open Source CFD Toolbox           |
|  \\    /   O peration     | Version:  2.3.0                                 |
|   \\  /    A nd           | Web:      www.OpenFOAM.org                      |
|    \\/     M anipulation  |                                                 |
\*---------------------------------------------------------------------------*/
FoamFile
{
    version     2.0;
    format      ascii;
    class       volScalarField;
    location    "0.08";
    object      p;
}
// * * * * * * * * * * * * * * * * * * * * * * * * * * * * * * * * * * * * * //

dimensions      [1 -1 -2 0 0 0 0];

internalField   nonuniform List<scalar> 
12225
(
99694.9
99644.7
99651
99650.4
99642.1
99636.8
99635.1
99634.5
99634.3
99634.2
99634.2
99634.2
99634.2
99634.4
99634.8
99635.7
99637.4
99639.1
99692.5
99644.8
99650.9
99650.6
99641.9
99636.6
99635
99634.4
99634.3
99634.1
99634.2
99634.2
99634.2
99634.4
99634.8
99635.7
99637.2
99638.9
99691.2
99646.4
99650.9
99651
99641.7
99636.5
99634.8
99634.3
99634.2
99634
99634.1
99634.1
99634.2
99634.4
99634.7
99635.6
99636.8
99638.2
99689.6
99647.7
99651.3
99652
99641.1
99636.1
99634.4
99634.1
99634
99634
99634
99634
99634.2
99634.3
99634.7
99635.3
99636.3
99637.2
99687.8
99649
99651.4
99654.6
99640.3
99635.4
99634
99633.8
99633.8
99633.8
99633.8
99633.8
99634.1
99634.2
99634.5
99635
99635.7
99636.3
99686.5
99650.1
99650.3
99659.7
99639.6
99634.6
99633.4
99633.3
99633.4
99633.6
99633.6
99633.7
99633.8
99634
99634.2
99634.6
99635.1
99635.5
99686.1
99651.5
99646.7
99670.6
99638
99633.9
99632.6
99632.7
99633
99633.3
99633.4
99633.5
99633.6
99633.8
99634
99634.3
99634.6
99634.9
99686.1
99653
99651.4
99661.8
99640.4
99634.4
99632
99632.2
99632.6
99633
99633.2
99633.3
99633.5
99633.6
99633.7
99634
99634.2
99634.5
99686
99654.2
99653.7
99659.4
99641.4
99634.9
99631.5
99631.6
99632.2
99632.7
99633
99633.2
99633.3
99633.4
99633.5
99633.7
99634
99634.3
99685.8
99655.1
99654.8
99655.2
99644.4
99636
99631.5
99631.1
99631.7
99632.3
99632.8
99633
99633.1
99633.2
99633.3
99633.5
99633.7
99634
99685.5
99655.8
99655.2
99654.2
99645.3
99639.4
99633.1
99630.9
99631.1
99631.9
99632.5
99632.8
99632.9
99633
99633.1
99633.2
99633.4
99633.7
99685.5
99656.2
99655.5
99653.2
99647.4
99641.8
99635.1
99631.2
99630.6
99631.5
99632.2
99632.6
99632.8
99632.8
99632.9
99633
99633.2
99633.5
99685.8
99656.4
99655.9
99653.5
99647.6
99643.1
99635.7
99632
99630
99630.8
99631.9
99632.5
99632.7
99632.7
99632.7
99632.8
99633
99633.2
99686.2
99656.9
99656.6
99653.6
99647.9
99643
99638
99633.3
99629.7
99630.2
99631.7
99632.5
99632.7
99632.6
99632.6
99632.7
99632.8
99633
99685.7
99657.4
99658.1
99655
99649.3
99643.5
99639.4
99633
99630.5
99630.4
99631.8
99632.6
99632.8
99632.7
99632.6
99632.5
99632.6
99632.8
99685
99657.9
99659.5
99656
99650.5
99644.8
99639.7
99633.1
99632.4
99631.5
99632.4
99633
99633.1
99632.8
99632.6
99632.5
99632.5
99632.5
99687.6
99658.3
99659.8
99656.6
99651.9
99646.7
99641.5
99636.6
99636.3
99633.6
99633.5
99633.7
99633.5
99633.1
99632.7
99632.5
99632.3
99632.3
99690.4
99661
99662.2
99658.5
99653.5
99648.6
99644.1
99640.7
99638.9
99635.2
99634.6
99634.5
99634.1
99633.4
99632.9
99632.5
99632.2
99632
99692.5
99659.1
99666.8
99659.7
99654.9
99649.7
99645.1
99641.8
99639
99635.5
99635
99634.9
99634.3
99633.6
99632.9
99632.4
99632.1
99631.8
99694.1
99665.5
99666.6
99662.3
99657.7
99653.5
99648.7
99643
99637.1
99635.5
99635.6
99635.2
99634.7
99633.8
99633
99632.4
99631.9
99631.6
99696.3
99666.7
99668.5
99664.2
99659.2
99654.4
99649.1
99642.9
99637.5
99636.3
99636.2
99635.7
99634.9
99633.9
99633
99632.3
99631.8
99631.4
99698.7
99669.2
99670.7
99665.8
99660.6
99654.9
99649
99642.9
99638.7
99637.5
99637
99636.2
99635.2
99634
99633.1
99632.3
99631.6
99631.2
99701.4
99672.2
99671.5
99667
99660.4
99654.3
99647.7
99642.4
99639.8
99638.7
99637.8
99636.7
99635.5
99634.3
99633.2
99632.2
99631.5
99631
99704.4
99673.8
99672.4
99668.1
99662.1
99655.6
99646.6
99643.1
99641.2
99639.8
99638.5
99637.1
99635.7
99634.4
99633.2
99632.3
99631.5
99630.8
99707.3
99674.7
99673.3
99668.1
99660.7
99653.7
99647.3
99644.3
99642.4
99640.7
99639
99637.5
99636
99634.6
99633.3
99632.3
99631.4
99630.7
99710.3
99675
99674.2
99668.7
99660
99653.1
99648.5
99645.6
99643.3
99641.3
99639.4
99637.8
99636.2
99634.7
99633.4
99632.3
99631.3
99630.5
99714.3
99674.8
99674.9
99667
99659
99653.8
99649.6
99646.4
99643.9
99641.6
99639.7
99638.1
99636.4
99634.8
99633.4
99632.1
99631.1
99630.2
99718.4
99673.8
99673.1
99666.7
99659.9
99654.6
99650.3
99646.9
99644.3
99641.9
99639.9
99638.3
99636.5
99634.9
99633.4
99632.1
99631
99630
99715
99671
99672.6
99667.7
99660.4
99654.9
99650.6
99647.3
99644.5
99642.1
99640
99638.3
99636.6
99634.9
99633.4
99632
99630.9
99630
99718.7
99670
99673
99668.2
99660.7
99655.1
99650.7
99647.5
99644.6
99642.1
99640.1
99638.4
99636.6
99634.9
99633.3
99632
99630.9
99629.9
99656.6
99656.7
99656.8
99657.1
99657.4
99657.9
99658.4
99659
99659.7
99660.5
99661.4
99662.4
99663.5
99664.7
99665.9
99667.3
99668.8
99670.3
99672
99673.7
99675.6
99677.5
99679.6
99681.7
99684
99686.3
99688.7
99691.2
99693.9
99696.6
99699.4
99702.2
99705.2
99708.3
99711.4
99714.7
99718
99721.4
99724.8
99728.4
99732
99735.7
99739.5
99743.3
99747.2
99751.2
99755.4
99759.2
99763.5
99767.8
99772.1
99776.4
99780.8
99785.3
99789.9
99794.5
99799.1
99803.8
99808.6
99813.4
99818.3
99823.2
99828.2
99833.2
99838.2
99843.3
99848.4
99853.5
99858.6
99863.7
99868.9
99874
99879.1
99884.2
99889.2
99894.2
99899.2
99904.1
99908.9
99913.7
99918.4
99923.1
99927.7
99932.1
99936.5
99940.8
99945.1
99949.2
99953.2
99957.1
99961
99964.7
99968.4
99971.9
99975.3
99978.7
99981.9
99985.1
99988.1
99991.1
99993.9
99996.5
99999.1
100001
100004
100006
100008
100009
100011
100012
100013
100013
100014
100014
100014
100013
100012
100011
100010
100008
100006
100004
100001
99998.1
99995
99991.6
99988.1
99984.3
99980.4
99976.3
99972
99967.7
99963.2
99958.7
99954.1
99949.4
99944.6
99939.8
99934.9
99929.9
99924.8
99919.7
99914.4
99909.1
99903.6
99898
99892.2
99886.3
99880.3
99874.1
99867.8
99861.3
99854.7
99847.9
99841
99834
99826.9
99819.7
99812.5
99805.2
99797.9
99790.7
99783.6
99776.5
99769.6
99762.9
99756.4
99750.1
99744.2
99738.6
99733.3
99728.5
99724.1
99720.2
99716.7
99713.8
99711.4
99709.5
99708.2
99707.4
99656.5
99656.6
99656.7
99657
99657.3
99657.8
99658.3
99658.9
99659.6
99660.4
99661.3
99662.3
99663.4
99664.6
99665.8
99667.2
99668.7
99670.2
99671.9
99673.6
99675.5
99677.4
99679.5
99681.6
99683.8
99686.2
99688.6
99691.1
99693.7
99696.4
99699.2
99702.1
99705.1
99708.1
99711.3
99714.5
99717.8
99721.2
99724.7
99728.2
99731.8
99735.5
99739.3
99743.1
99747
99751
99755.1
99759.1
99763.3
99767.6
99771.9
99776.2
99780.6
99785.1
99789.6
99794.2
99798.9
99803.6
99808.4
99813.2
99818.1
99823
99828
99833
99838.1
99843.1
99848.2
99853.3
99858.5
99863.6
99868.7
99873.9
99879
99884
99889.1
99894.1
99899.1
99904
99908.8
99913.6
99918.3
99923
99927.6
99932
99936.4
99940.7
99944.9
99949.1
99953.1
99957
99960.9
99964.6
99968.2
99971.8
99975.2
99978.5
99981.8
99984.9
99988
99990.9
99993.7
99996.4
99998.9
100001
100004
100006
100007
100009
100010
100012
100013
100013
100014
100014
100014
100013
100012
100011
100010
100008
100006
100004
100001
99998.1
99994.9
99991.6
99988
99984.3
99980.3
99976.2
99972
99967.7
99963.2
99958.7
99954.1
99949.4
99944.6
99939.8
99934.9
99929.9
99924.8
99919.7
99914.4
99909.1
99903.6
99898
99892.2
99886.3
99880.3
99874.1
99867.8
99861.3
99854.6
99847.8
99841
99833.9
99826.8
99819.7
99812.4
99805.2
99797.9
99790.7
99783.6
99776.5
99769.6
99762.9
99756.4
99750.1
99744.2
99738.6
99733.4
99728.5
99724.2
99720.2
99716.8
99713.9
99711.5
99709.6
99708.2
99707.4
99656.2
99656.3
99656.5
99656.7
99657.1
99657.5
99658
99658.7
99659.4
99660.2
99661.1
99662.1
99663.1
99664.3
99665.6
99667
99668.4
99670
99671.6
99673.4
99675.2
99677.2
99679.2
99681.4
99683.6
99685.9
99688.4
99690.9
99693.5
99696.2
99699
99701.8
99704.8
99707.9
99711
99714.2
99717.5
99720.9
99724.4
99727.9
99731.5
99735.2
99739
99742.8
99746.7
99750.7
99754.7
99758.8
99763
99767.2
99771.5
99775.8
99780.2
99784.7
99789.3
99793.9
99798.6
99803.3
99808.1
99812.9
99817.8
99822.8
99827.7
99832.8
99837.8
99842.9
99848
99853.1
99858.3
99863.4
99868.6
99873.7
99878.8
99883.9
99888.9
99894
99898.9
99903.8
99908.7
99913.5
99918.2
99922.8
99927.4
99931.9
99936.2
99940.5
99944.7
99948.9
99952.9
99956.8
99960.6
99964.4
99968
99971.6
99975
99978.3
99981.6
99984.7
99987.8
99990.7
99993.5
99996.2
99998.8
100001
100003
100005
100007
100009
100010
100011
100012
100013
100013
100014
100013
100013
100012
100011
100010
100008
100006
100003
100001
99998
99994.9
99991.6
99988
99984.3
99980.3
99976.3
99972
99967.7
99963.3
99958.7
99954.1
99949.4
99944.7
99939.8
99934.9
99929.9
99924.9
99919.7
99914.4
99909.1
99903.6
99898
99892.2
99886.3
99880.3
99874.1
99867.7
99861.2
99854.6
99847.8
99840.9
99833.9
99826.8
99819.6
99812.4
99805.2
99797.9
99790.7
99783.6
99776.5
99769.6
99762.9
99756.4
99750.2
99744.3
99738.7
99733.4
99728.6
99724.2
99720.3
99716.9
99713.9
99711.5
99709.6
99708.3
99707.5
99655.8
99655.9
99656.1
99656.3
99656.7
99657.1
99657.6
99658.3
99659
99659.8
99660.7
99661.7
99662.8
99663.9
99665.2
99666.6
99668.1
99669.6
99671.3
99673
99674.9
99676.8
99678.9
99681
99683.2
99685.6
99688
99690.5
99693.1
99695.8
99698.7
99701.3
99704.4
99707.5
99710.6
99713.8
99717.1
99720.5
99723.9
99727.5
99731.1
99734.7
99738.5
99742.3
99746.2
99750.1
99754.2
99758.3
99762.5
99766.7
99771
99775.3
99779.7
99784.2
99788.8
99793.4
99798.1
99802.8
99807.6
99812.5
99817.4
99822.4
99827.4
99832.4
99837.5
99842.6
99847.7
99852.9
99858
99863.2
99868.3
99873.5
99878.6
99883.7
99888.7
99893.8
99898.7
99903.6
99908.5
99913.3
99918
99922.6
99927.1
99931.6
99936
99940.3
99944.5
99948.6
99952.6
99956.5
99960.3
99964.1
99967.7
99971.2
99974.7
99978
99981.3
99984.5
99987.5
99990.5
99993.3
99996
99998.5
100001
100003
100005
100007
100009
100010
100011
100012
100013
100013
100013
100013
100013
100012
100011
100009
100008
100006
100003
100001
99998
99994.9
99991.6
99988
99984.3
99980.4
99976.3
99972.1
99967.8
99963.4
99958.8
99954.2
99949.5
99944.8
99939.9
99935
99930
99924.9
99919.8
99914.5
99909.1
99903.6
99898
99892.2
99886.3
99880.3
99874.1
99867.7
99861.2
99854.6
99847.8
99840.9
99833.9
99826.8
99819.6
99812.4
99805.2
99797.9
99790.7
99783.6
99776.6
99769.7
99763
99756.5
99750.3
99744.3
99738.8
99733.5
99728.7
99724.3
99720.4
99717
99714.1
99711.6
99709.8
99708.4
99707.6
99655.3
99655.3
99655.5
99655.8
99656.1
99656.5
99657.1
99657.7
99658.4
99659.2
99660.1
99661.1
99662.2
99663.4
99664.7
99666.1
99667.5
99669.1
99670.7
99672.5
99674.3
99676.3
99678.3
99680.5
99682.7
99685
99687.5
99690
99692.6
99695.3
99698.1
99700.9
99703.9
99706.9
99710.1
99713.3
99716.6
99719.9
99723.4
99726.9
99730.5
99734.1
99737.9
99741.7
99745.5
99749.5
99753.5
99757.6
99761.8
99766
99770.3
99774.6
99779.1
99783.6
99788.1
99792.8
99797.5
99802.2
99807.1
99811.9
99816.9
99821.9
99826.9
99832
99837.1
99842.2
99847.3
99852.5
99857.7
99862.9
99868
99873.2
99878.3
99883.4
99888.5
99893.5
99898.5
99903.4
99908.2
99913
99917.7
99922.3
99926.8
99931.3
99935.7
99939.9
99944.1
99948.2
99952.2
99956.1
99960
99963.7
99967.3
99970.9
99974.3
99977.7
99980.9
99984.1
99987.2
99990.1
99993
99995.7
99998.3
100001
100003
100005
100007
100009
100010
100011
100012
100013
100013
100013
100013
100013
100012
100011
100009
100008
100006
100003
100001
99998
99994.9
99991.6
99988.1
99984.4
99980.5
99976.4
99972.2
99967.9
99963.5
99959
99954.4
99949.7
99944.9
99940.1
99935.2
99930.2
99925.1
99919.9
99914.6
99909.2
99903.7
99898.1
99892.3
99886.4
99880.3
99874.1
99867.8
99861.3
99854.6
99847.8
99840.9
99833.9
99826.8
99819.6
99812.4
99805.2
99798
99790.8
99783.6
99776.6
99769.8
99763.1
99756.6
99750.4
99744.5
99738.9
99733.7
99728.9
99724.5
99720.6
99717.1
99714.2
99711.8
99709.9
99708.5
99707.7
99654.5
99654.6
99654.8
99655
99655.4
99655.8
99656.4
99657
99657.7
99658.5
99659.4
99660.4
99661.5
99662.7
99664
99665.4
99666.8
99668.4
99670
99671.8
99673.6
99675.6
99677.6
99679.8
99682
99684.4
99686.8
99689.3
99691.9
99694.6
99697.4
99700.3
99703.2
99706.3
99709.4
99712.6
99715.9
99719.2
99722.7
99726.2
99729.7
99733.4
99737.1
99740.9
99744.8
99748.7
99752.7
99756.8
99760.9
99765.2
99769.5
99773.8
99778.3
99782.8
99787.3
99792
99796.7
99801.5
99806.3
99811.3
99816.2
99821.2
99826.3
99831.4
99836.5
99841.7
99846.9
99852.1
99857.3
99862.5
99867.7
99872.9
99878
99883.1
99888.2
99893.2
99898.2
99903.1
99907.9
99912.7
99917.4
99922
99926.5
99930.9
99935.3
99939.5
99943.7
99947.8
99951.8
99955.7
99959.5
99963.2
99966.9
99970.4
99973.9
99977.2
99980.5
99983.7
99986.8
99989.8
99992.7
99995.4
99998
100000
100003
100005
100007
100008
100010
100011
100012
100013
100013
100013
100013
100013
100012
100011
100009
100008
100006
100003
100001
99998
99995
99991.7
99988.2
99984.5
99980.6
99976.6
99972.4
99968.1
99963.7
99959.2
99954.6
99949.9
99945.2
99940.3
99935.4
99930.4
99925.3
99920.1
99914.8
99909.4
99903.9
99898.2
99892.5
99886.5
99880.4
99874.2
99867.9
99861.3
99854.7
99847.9
99841
99834
99826.9
99819.7
99812.5
99805.2
99798
99790.8
99783.7
99776.7
99769.9
99763.2
99756.7
99750.5
99744.6
99739
99733.8
99729
99724.7
99720.7
99717.3
99714.4
99712
99710.1
99708.7
99707.8
99653.7
99653.7
99653.9
99654.2
99654.5
99655
99655.5
99656.1
99656.8
99657.7
99658.6
99659.6
99660.7
99661.9
99663.1
99664.5
99666
99667.5
99669.2
99671
99672.8
99674.8
99676.8
99679
99681.2
99683.5
99686
99688.5
99691.1
99693.8
99696.6
99699.5
99702.4
99705.5
99708.6
99711.8
99715.1
99718.4
99721.9
99725.4
99728.9
99732.6
99736.3
99740
99743.9
99747.8
99751.8
99755.9
99760
99764.2
99768.5
99772.9
99777.3
99781.8
99786.4
99791.1
99795.8
99800.6
99805.5
99810.5
99815.5
99820.5
99825.6
99830.8
99836
99841.2
99846.4
99851.6
99856.9
99862.1
99867.3
99872.5
99877.7
99882.8
99887.9
99892.9
99897.8
99902.7
99907.6
99912.3
99917
99921.6
99926.1
99930.5
99934.8
99939.1
99943.2
99947.3
99951.3
99955.2
99959
99962.7
99966.3
99969.9
99973.3
99976.7
99980
99983.3
99986.4
99989.4
99992.3
99995
99997.7
100000
100002
100005
100006
100008
100010
100011
100012
100013
100013
100013
100013
100012
100012
100011
100009
100008
100006
100003
100001
99998.1
99995.1
99991.8
99988.3
99984.7
99980.8
99976.8
99972.7
99968.4
99964
99959.5
99954.9
99950.2
99945.4
99940.6
99935.7
99930.7
99925.6
99920.4
99915.1
99909.6
99904.1
99898.4
99892.6
99886.7
99880.6
99874.3
99868
99861.4
99854.8
99848
99841
99834
99826.9
99819.8
99812.6
99805.3
99798.1
99790.9
99783.8
99776.8
99770
99763.3
99756.9
99750.7
99744.8
99739.2
99734
99729.2
99724.9
99721
99717.5
99714.6
99712.2
99710.3
99708.9
99708
99652.7
99652.8
99652.9
99653.2
99653.6
99654
99654.5
99655.2
99655.9
99656.7
99657.6
99658.6
99659.7
99660.9
99662.2
99663.5
99665
99666.6
99668.2
99670
99671.9
99673.8
99675.9
99678
99680.3
99682.6
99685
99687.6
99690.2
99692.9
99695.7
99698.6
99701.6
99704.6
99707.7
99710.9
99714.2
99717.6
99721
99724.5
99728
99731.6
99735.3
99739.1
99742.9
99746.8
99750.8
99754.9
99759
99763.2
99767.5
99771.8
99776.3
99780.8
99785.4
99790.1
99794.8
99799.7
99804.6
99809.6
99814.6
99819.7
99824.9
99830.1
99835.3
99840.6
99845.9
99851.1
99856.4
99861.7
99866.9
99872.1
99877.3
99882.4
99887.5
99892.5
99897.5
99902.4
99907.2
99911.9
99916.6
99921.1
99925.6
99930
99934.3
99938.5
99942.7
99946.7
99950.7
99954.6
99958.4
99962.1
99965.7
99969.3
99972.8
99976.2
99979.5
99982.7
99985.9
99988.9
99991.9
99994.7
99997.3
99999.8
100002
100004
100006
100008
100010
100011
100012
100012
100013
100013
100013
100012
100012
100011
100009
100008
100006
100003
100001
99998.2
99995.2
99992
99988.5
99984.9
99981.1
99977.1
99972.9
99968.7
99964.3
99959.8
99955.2
99950.5
99945.8
99940.9
99936
99931
99925.9
99920.7
99915.4
99909.9
99904.4
99898.7
99892.8
99886.9
99880.8
99874.5
99868.1
99861.5
99854.9
99848.1
99841.1
99834.1
99827
99819.8
99812.6
99805.4
99798.2
99791
99784
99777
99770.1
99763.5
99757.1
99750.9
99745
99739.4
99734.2
99729.5
99725.1
99721.2
99717.8
99714.8
99712.4
99710.5
99709.1
99708.2
99651.6
99651.7
99651.9
99652.2
99652.5
99653
99653.5
99654.1
99654.8
99655.7
99656.6
99657.6
99658.7
99659.8
99661.1
99662.5
99663.9
99665.5
99667.2
99668.9
99670.8
99672.8
99674.8
99677
99679.2
99681.6
99684
99686.6
99689.2
99691.9
99694.7
99697.6
99700.6
99703.6
99706.8
99710
99713.3
99716.6
99720
99723.5
99727.1
99730.7
99734.3
99738.1
99741.9
99745.8
99749.7
99753.7
99757.8
99762
99766.3
99770.7
99775.1
99779.6
99784.2
99788.9
99793.7
99798.6
99803.5
99808.6
99813.7
99818.8
99824
99829.3
99834.6
99839.9
99845.2
99850.6
99855.9
99861.2
99866.5
99871.7
99876.9
99882.1
99887.1
99892.2
99897.1
99902
99906.8
99911.5
99916.1
99920.7
99925.1
99929.5
99933.8
99938
99942.1
99946.1
99950
99953.9
99957.7
99961.4
99965.1
99968.6
99972.1
99975.5
99978.9
99982.2
99985.3
99988.4
99991.4
99994.3
99997
99999.5
100002
100004
100006
100008
100009
100011
100012
100012
100013
100013
100013
100012
100012
100011
100009
100008
100006
100004
100001
99998.4
99995.4
99992.2
99988.8
99985.1
99981.3
99977.4
99973.2
99969
99964.6
99960.2
99955.6
99950.9
99946.2
99941.3
99936.4
99931.4
99926.2
99921
99915.7
99910.2
99904.7
99898.9
99893.1
99887.1
99881
99874.7
99868.3
99861.7
99855
99848.2
99841.2
99834.2
99827.1
99819.9
99812.7
99805.5
99798.3
99791.2
99784.1
99777.1
99770.3
99763.7
99757.3
99751.1
99745.2
99739.7
99734.5
99729.7
99725.3
99721.4
99718
99715.1
99712.6
99710.7
99709.3
99708.4
99650.5
99650.6
99650.8
99651.1
99651.4
99651.9
99652.4
99653
99653.8
99654.6
99655.5
99656.5
99657.6
99658.7
99660
99661.4
99662.8
99664.4
99666
99667.8
99669.6
99671.6
99673.7
99675.8
99678.1
99680.4
99682.9
99685.5
99688.1
99690.8
99693.7
99696.6
99699.6
99702.6
99705.8
99709
99712.3
99715.6
99719.1
99722.5
99726.1
99729.7
99733.3
99737
99740.8
99744.7
99748.6
99752.6
99756.6
99760.8
99765
99769.4
99773.8
99778.3
99782.9
99787.7
99792.5
99797.4
99802.4
99807.5
99812.6
99817.8
99823.1
99828.5
99833.8
99839.2
99844.6
99850
99855.4
99860.7
99866
99871.3
99876.5
99881.7
99886.8
99891.8
99896.7
99901.6
99906.4
99911.1
99915.7
99920.2
99924.6
99928.9
99933.2
99937.4
99941.4
99945.4
99949.4
99953.2
99957
99960.7
99964.3
99967.9
99971.4
99974.8
99978.2
99981.5
99984.8
99987.9
99990.9
99993.8
99996.6
99999.2
100002
100004
100006
100008
100009
100011
100012
100012
100013
100013
100013
100012
100012
100011
100009
100008
100006
100004
100001
99998.5
99995.6
99992.4
99989
99985.4
99981.6
99977.7
99973.6
99969.4
99965
99960.6
99956
99951.4
99946.6
99941.8
99936.8
99931.8
99926.7
99921.4
99916.1
99910.6
99905
99899.3
99893.4
99887.4
99881.2
99874.9
99868.5
99861.9
99855.2
99848.3
99841.4
99834.3
99827.2
99820.1
99812.9
99805.7
99798.5
99791.3
99784.3
99777.3
99770.5
99763.9
99757.5
99751.3
99745.5
99739.9
99734.8
99730
99725.6
99721.7
99718.3
99715.3
99712.9
99710.9
99709.5
99708.6
99649.4
99649.5
99649.7
99650
99650.3
99650.8
99651.3
99651.9
99652.6
99653.5
99654.3
99655.3
99656.4
99657.6
99658.9
99660.2
99661.7
99663.2
99664.9
99666.6
99668.4
99670.4
99672.5
99674.6
99676.9
99679.3
99681.7
99684.3
99687
99689.7
99692.6
99695.5
99698.5
99701.6
99704.8
99708
99711.3
99714.6
99718.1
99721.5
99725.1
99728.6
99732.3
99736
99739.7
99743.5
99747.4
99751.4
99755.4
99759.5
99763.7
99768
99772.4
99776.9
99781.6
99786.3
99791.1
99796.1
99801.1
99806.3
99811.5
99816.8
99822.1
99827.5
99833
99838.5
99843.9
99849.4
99854.8
99860.2
99865.6
99870.9
99876.1
99881.3
99886.4
99891.4
99896.3
99901.2
99905.9
99910.6
99915.2
99919.7
99924.1
99928.4
99932.6
99936.7
99940.7
99944.7
99948.6
99952.4
99956.2
99959.9
99963.5
99967.1
99970.6
99974.1
99977.5
99980.8
99984.1
99987.3
99990.4
99993.3
99996.2
99998.8
100001
100004
100006
100008
100009
100010
100012
100012
100013
100013
100013
100012
100012
100011
100009
100008
100006
100004
100001
99998.7
99995.8
99992.6
99989.3
99985.7
99982
99978.1
99974
99969.8
99965.5
99961
99956.5
99951.8
99947.1
99942.2
99937.3
99932.2
99927.1
99921.8
99916.5
99911
99905.4
99899.6
99893.7
99887.6
99881.5
99875.1
99868.7
99862.1
99855.3
99848.5
99841.5
99834.5
99827.4
99820.2
99813
99805.8
99798.6
99791.5
99784.4
99777.5
99770.7
99764.1
99757.7
99751.6
99745.7
99740.2
99735
99730.3
99725.9
99722
99718.6
99715.6
99713.1
99711.2
99709.8
99708.8
99648.3
99648.4
99648.6
99648.9
99649.2
99649.7
99650.2
99650.8
99651.5
99652.3
99653.2
99654.2
99655.3
99656.4
99657.7
99659
99660.5
99662
99663.6
99665.4
99667.2
99669.2
99671.2
99673.4
99675.7
99678
99680.5
99683.1
99685.8
99688.6
99691.5
99694.4
99697.5
99700.6
99703.8
99707
99710.3
99713.7
99717.1
99720.5
99724.1
99727.6
99731.2
99734.9
99738.6
99742.4
99746.2
99750.1
99754.1
99758.1
99762.3
99766.6
99770.9
99775.4
99780
99784.8
99789.7
99794.7
99799.7
99804.9
99810.2
99815.6
99821.1
99826.6
99832.1
99837.7
99843.2
99848.8
99854.3
99859.7
99865.1
99870.5
99875.7
99880.9
99886
99891
99895.9
99900.8
99905.5
99910.1
99914.7
99919.1
99923.5
99927.7
99931.9
99936
99940
99943.9
99947.8
99951.6
99955.3
99959
99962.6
99966.2
99969.7
99973.2
99976.7
99980.1
99983.4
99986.7
99989.8
99992.8
99995.7
99998.5
100001
100003
100006
100007
100009
100010
100011
100012
100013
100013
100013
100013
100012
100011
100010
100008
100006
100004
100002
99998.9
99996
99992.9
99989.6
99986.1
99982.3
99978.5
99974.4
99970.2
99965.9
99961.5
99957
99952.3
99947.6
99942.7
99937.8
99932.7
99927.6
99922.3
99916.9
99911.4
99905.8
99900
99894
99888
99881.7
99875.4
99869
99862.3
99855.5
99848.7
99841.7
99834.6
99827.5
99820.4
99813.2
99806
99798.8
99791.7
99784.6
99777.7
99770.9
99764.3
99758
99751.8
99746
99740.5
99735.3
99730.6
99726.2
99722.3
99718.8
99715.9
99713.4
99711.5
99710
99709.1
99647.2
99647.3
99647.5
99647.8
99648.1
99648.5
99649.1
99649.7
99650.4
99651.2
99652.1
99653.1
99654.1
99655.3
99656.5
99657.8
99659.3
99660.8
99662.4
99664.1
99665.9
99667.9
99669.9
99672.1
99674.4
99676.8
99679.3
99681.9
99684.6
99687.5
99690.4
99693.4
99696.4
99699.6
99702.8
99706.1
99709.4
99712.7
99716.2
99719.6
99723.1
99726.6
99730.2
99733.8
99737.5
99741.2
99745
99748.8
99752.7
99756.7
99760.8
99765
99769.3
99773.8
99778.4
99783.2
99788.1
99793.1
99798.3
99803.5
99808.9
99814.4
99820
99825.6
99831.2
99836.9
99842.5
99848.1
99853.7
99859.2
99864.7
99870
99875.3
99880.5
99885.6
99890.6
99895.5
99900.3
99905.1
99909.7
99914.2
99918.6
99922.9
99927.1
99931.2
99935.3
99939.3
99943.1
99947
99950.7
99954.4
99958.1
99961.7
99965.3
99968.8
99972.3
99975.8
99979.3
99982.7
99986
99989.2
99992.3
99995.3
99998.1
100001
100003
100005
100007
100009
100010
100011
100012
100013
100013
100013
100013
100012
100011
100010
100008
100006
100004
100002
99999.2
99996.3
99993.2
99989.9
99986.4
99982.7
99978.9
99974.9
99970.7
99966.4
99962
99957.5
99952.9
99948.1
99943.3
99938.3
99933.3
99928.1
99922.8
99917.4
99911.9
99906.2
99900.4
99894.4
99888.3
99882.1
99875.7
99869.2
99862.5
99855.7
99848.9
99841.9
99834.8
99827.7
99820.5
99813.3
99806.1
99799
99791.9
99784.8
99777.9
99771.2
99764.6
99758.2
99752.1
99746.3
99740.8
99735.6
99730.9
99726.5
99722.6
99719.2
99716.2
99713.7
99711.8
99710.3
99709.3
99646
99646.2
99646.3
99646.6
99647
99647.4
99647.9
99648.5
99649.2
99650
99650.9
99651.9
99652.9
99654.1
99655.3
99656.6
99658
99659.5
99661.1
99662.8
99664.6
99666.6
99668.6
99670.8
99673.1
99675.5
99678.1
99680.7
99683.5
99686.3
99689.3
99692.3
99695.4
99698.6
99701.9
99705.2
99708.5
99711.9
99715.3
99718.7
99722.2
99725.7
99729.3
99732.8
99736.4
99740.1
99743.7
99747.5
99751.3
99755.2
99759.2
99763.4
99767.6
99772
99776.6
99781.4
99786.3
99791.3
99796.6
99802
99807.5
99813.1
99818.8
99824.6
99830.3
99836.1
99841.8
99847.5
99853.2
99858.8
99864.3
99869.6
99874.9
99880.1
99885.3
99890.3
99895.1
99899.9
99904.6
99909.2
99913.6
99918
99922.3
99926.5
99930.5
99934.5
99938.4
99942.3
99946.1
99949.8
99953.5
99957.1
99960.7
99964.3
99967.8
99971.4
99974.9
99978.4
99981.8
99985.2
99988.6
99991.8
99994.8
99997.7
100000
100003
100005
100007
100009
100010
100011
100012
100013
100013
100013
100013
100012
100011
100010
100008
100006
100004
100002
99999.4
99996.6
99993.6
99990.3
99986.8
99983.2
99979.3
99975.3
99971.2
99966.9
99962.6
99958.1
99953.4
99948.7
99943.8
99938.9
99933.8
99928.7
99923.4
99917.9
99912.4
99906.7
99900.8
99894.8
99888.7
99882.4
99876
99869.5
99862.8
99856
99849.1
99842.1
99835
99827.9
99820.7
99813.5
99806.3
99799.2
99792.1
99785.1
99778.2
99771.4
99764.9
99758.5
99752.4
99746.6
99741.1
99736
99731.2
99726.8
99722.9
99719.5
99716.5
99714
99712
99710.6
99709.6
99644.8
99644.9
99645.1
99645.4
99645.7
99646.2
99646.7
99647.3
99648
99648.8
99649.7
99650.7
99651.7
99652.9
99654.1
99655.4
99656.7
99658.2
99659.8
99661.6
99663.1
99665.1
99667.2
99669.4
99671.7
99674.2
99676.8
99679.5
99682.3
99685.2
99688.3
99691.4
99694.5
99697.8
99701
99704.4
99707.7
99711.1
99714.6
99718
99721.4
99724.9
99728.4
99731.9
99735.4
99739
99742.5
99746.2
99749.9
99753.7
99757.6
99761.6
99765.8
99770.1
99774.7
99779.4
99784.3
99789.5
99794.8
99800.3
99806
99811.8
99817.6
99823.5
99829.4
99835.3
99841.2
99847
99852.7
99858.3
99863.9
99869.3
99874.6
99879.8
99884.9
99889.9
99894.7
99899.5
99904.1
99908.7
99913.1
99917.4
99921.6
99925.8
99929.8
99933.8
99937.6
99941.4
99945.1
99948.8
99952.4
99956.1
99959.6
99963.2
99966.8
99970.3
99973.9
99977.5
99981
99984.5
99987.9
99991.2
99994.3
99997.3
100000
100003
100005
100007
100009
100010
100011
100012
100013
100013
100013
100013
100012
100011
100010
100008
100007
100005
100002
99999.7
99996.9
99993.9
99990.7
99987.2
99983.6
99979.8
99975.8
99971.7
99967.5
99963.1
99958.6
99954
99949.3
99944.4
99939.5
99934.4
99929.2
99923.9
99918.5
99912.9
99907.2
99901.3
99895.3
99889.1
99882.8
99876.3
99869.8
99863.1
99856.2
99849.3
99842.3
99835.2
99828.1
99820.9
99813.7
99806.5
99799.4
99792.3
99785.3
99778.4
99771.7
99765.1
99758.8
99752.7
99746.9
99741.4
99736.3
99731.5
99727.2
99723.3
99719.8
99716.8
99714.3
99712.3
99710.9
99709.9
99643.5
99643.6
99643.8
99644.1
99644.5
99644.9
99645.5
99646.1
99646.8
99647.6
99648.5
99649.5
99650.5
99651.6
99652.8
99654.1
99655.4
99656.8
99658.4
99660
99661.8
99663.7
99665.7
99667.9
99670.3
99672.8
99675.4
99678.2
99681.1
99684.2
99687.3
99690.5
99693.7
99697
99700.3
99703.7
99707
99710.6
99713.9
99717.3
99720.7
99724.3
99727.7
99731.1
99734.5
99737.9
99741.4
99744.9
99748.4
99752.1
99755.9
99759.8
99763.9
99767.9
99772.5
99777.2
99782.2
99787.5
99792.9
99798.6
99804.4
99810.3
99816.4
99822.5
99828.5
99834.6
99840.5
99846.4
99852.2
99857.9
99863.5
99868.9
99874.3
99879.5
99884.5
99889.5
99894.3
99899
99903.7
99908.1
99912.5
99916.8
99921
99925.1
99929
99932.9
99936.8
99940.5
99944.2
99947.8
99951.4
99955
99958.5
99962.1
99965.7
99969.2
99972.9
99976.5
99980.1
99983.7
99987.2
99990.6
99993.8
99996.9
99999.8
100002
100005
100007
100009
100010
100011
100012
100013
100013
100013
100013
100012
100011
100010
100009
100007
100005
100003
100000
99997.3
99994.3
99991.1
99987.7
99984.1
99980.3
99976.4
99972.3
99968
99963.7
99959.2
99954.6
99949.9
99945.1
99940.1
99935
99929.8
99924.5
99919
99913.4
99907.7
99901.8
99895.7
99889.5
99883.2
99876.7
99870.1
99863.4
99856.5
99849.6
99842.5
99835.4
99828.3
99821.1
99813.9
99806.7
99799.6
99792.5
99785.5
99778.7
99772
99765.4
99759.1
99753
99747.2
99741.8
99736.6
99731.9
99727.5
99723.6
99720.1
99717.2
99714.7
99712.7
99711.2
99710.2
99642.1
99642.3
99642.5
99642.8
99643.1
99643.6
99644.2
99644.8
99645.6
99646.4
99647.3
99648.2
99649.3
99650.3
99651.5
99652.7
99654
99655.4
99656.8
99658.4
99660.1
99662
99664.1
99666.3
99668.7
99671.2
99674
99676.9
99679.9
99683.1
99686.3
99689.6
99693
99696.4
99699.8
99703.2
99706.6
99710
99713.5
99716.8
99720.2
99723.6
99727
99730.3
99733.6
99737
99740.3
99743.6
99747
99750.4
99754
99757.7
99761.6
99765.7
99770.1
99774.9
99779.9
99785.2
99790.8
99796.6
99802.6
99808.8
99815.1
99821.4
99827.6
99833.8
99840
99846
99851.8
99857.6
99863.2
99868.6
99873.9
99879.1
99884.1
99889.1
99893.9
99898.6
99903.1
99907.6
99911.9
99916.2
99920.3
99924.3
99928.3
99932.1
99935.9
99939.6
99943.2
99946.8
99950.3
99953.8
99957.3
99960.9
99964.5
99968.1
99971.7
99975.4
99979.1
99982.8
99986.4
99990
99993.4
99996.6
99999.5
100002
100005
100007
100009
100010
100011
100012
100013
100013
100013
100013
100012
100011
100010
100009
100007
100005
100003
100000
99997.6
99994.7
99991.5
99988.1
99984.6
99980.8
99976.9
99972.8
99968.6
99964.3
99959.8
99955.2
99950.5
99945.7
99940.7
99935.7
99930.4
99925.1
99919.6
99914
99908.2
99902.3
99896.2
99890
99883.6
99877.1
99870.4
99863.7
99856.8
99849.8
99842.8
99835.7
99828.5
99821.3
99814.1
99807
99799.8
99792.8
99785.8
99778.9
99772.2
99765.7
99759.4
99753.4
99747.6
99742.1
99737
99732.2
99727.9
99724
99720.5
99717.5
99715
99713
99711.5
99710.4
99640.8
99640.9
99641.1
99641.4
99641.8
99642.3
99642.9
99643.6
99644.3
99645.2
99646.1
99647
99648.1
99649.1
99650.2
99651.4
99652.6
99653.8
99655.2
99656.7
99658.3
99660.1
99662.1
99664.3
99666.8
99669.5
99672.4
99675.4
99678.7
99682
99685.5
99689
99692.5
99695.9
99699.4
99702.9
99706.3
99709.7
99713.1
99716.5
99719.8
99723.1
99726.4
99729.7
99732.9
99736.1
99739.2
99742.4
99745.5
99748.7
99752.1
99755.6
99759.3
99763.2
99767.5
99772.2
99777.3
99782.8
99788.5
99794.5
99800.8
99807.3
99813.8
99820.3
99826.8
99833.2
99839.4
99845.6
99851.5
99857.3
99862.9
99868.4
99873.6
99878.7
99883.7
99888.6
99893.4
99898
99902.6
99907
99911.3
99915.5
99919.6
99923.6
99927.5
99931.3
99935
99938.6
99942.2
99945.7
99949.2
99952.6
99956.1
99959.7
99963.2
99966.9
99970.6
99974.3
99978.1
99981.9
99985.7
99989.4
99992.9
99996.2
99999.3
100002
100005
100007
100009
100010
100011
100012
100013
100013
100013
100013
100012
100012
100010
100009
100007
100005
100003
100001
99998
99995.1
99992
99988.6
99985.1
99981.3
99977.5
99973.4
99969.2
99964.9
99960.4
99955.9
99951.2
99946.3
99941.4
99936.3
99931.1
99925.7
99920.2
99914.6
99908.8
99902.8
99896.7
99890.4
99884
99877.5
99870.8
99864
99857.1
99850.1
99843
99835.9
99828.7
99821.6
99814.4
99807.2
99800.1
99793
99786
99779.2
99772.5
99766
99759.7
99753.7
99747.9