/*--------------------------------*- C++ -*----------------------------------*\
| =========                 |                                                 |
| \\      /  F ield         | OpenFOAM: The Open Source CFD Toolbox           |
|  \\    /   O peration     | Version:  2.3.0                                 |
|   \\  /    A nd           | Web:      www.OpenFOAM.org                      |
|    \\/     M anipulation  |                                                 |
\*---------------------------------------------------------------------------*/
FoamFile
{
    version     2.0;
    format      ascii;
    class       surfaceScalarField;
    location    "0.08";
    object      phi;
}
// * * * * * * * * * * * * * * * * * * * * * * * * * * * * * * * * * * * * * //

dimensions      [1 0 -1 0 0 0 0];

internalField   nonuniform List<scalar> 
24170
(
7.81703e-07
2.52038e-07
7.76415e-07
1.96472e-09
7.88164e-07
-3.18234e-08
8.00442e-07
-2.56999e-08
8.08342e-07
-1.13753e-09
7.79342e-07
9.53789e-09
7.41217e-07
2.56187e-08
7.12404e-07
3.49323e-08
6.81597e-07
2.81143e-08
6.45955e-07
2.42148e-08
6.13103e-07
2.17469e-08
5.85394e-07
2.2948e-08
5.60167e-07
2.16745e-08
5.34484e-07
2.24739e-08
5.07619e-07
2.33102e-08
4.7631e-07
2.83304e-08
4.2944e-07
4.26944e-08
7.23218e-08
3.47865e-07
9.07288e-07
4.85049e-07
9.67672e-07
-6.27834e-08
1.01481e-06
-9.34927e-08
1.05066e-06
-7.62172e-08
1.08901e-06
-2.94321e-08
1.09249e-06
-6.24584e-09
1.07456e-06
2.59821e-08
1.06021e-06
5.11105e-08
1.04487e-06
4.81293e-08
1.01829e-06
4.76009e-08
9.88137e-07
4.75405e-08
9.55262e-07
4.30108e-08
9.26772e-07
4.42118e-08
9.01995e-07
4.48619e-08
8.75292e-07
4.55104e-08
8.4659e-07
5.10945e-08
8.13647e-07
6.82885e-08
1.15111e-07
7.49958e-07
1.07103e-06
6.94937e-07
1.04745e-06
-5.0168e-08
1.10327e-06
-1.59521e-07
1.16598e-06
-1.49604e-07
1.22746e-06
-8.70182e-08
1.26525e-06
-4.22755e-08
1.26925e-06
1.50881e-09
1.27083e-06
3.86114e-08
1.27558e-06
4.9558e-08
1.26956e-06
5.34789e-08
1.25629e-06
5.75364e-08
1.23567e-06
5.79198e-08
1.20936e-06
6.0742e-08
1.18022e-06
5.71565e-08
1.15739e-06
6.18819e-08
1.13777e-06
6.7261e-08
1.10962e-06
8.35063e-08
1.2422e-07
1.08595e-06
1.30664e-06
7.48169e-07
1.17065e-06
-1.92376e-08
1.16173e-06
-1.60859e-07
1.23007e-06
-2.24601e-07
1.29717e-06
-1.57881e-07
1.34999e-06
-9.42144e-08
1.37396e-06
-3.32193e-08
1.38793e-06
1.52575e-08
1.40211e-06
3.77515e-08
1.41007e-06
4.52307e-08
1.41399e-06
5.11883e-08
1.41193e-06
5.74613e-08
1.40517e-06
6.34251e-08
1.39023e-06
6.47772e-08
1.36751e-06
6.89935e-08
1.34553e-06
7.75302e-08
1.32924e-06
9.35557e-08
1.20665e-07
1.32391e-06
1.56683e-06
6.68593e-07
1.45831e-06
3.29822e-08
1.33144e-06
-8.64426e-08
1.31197e-06
-2.11724e-07
1.37256e-06
-2.22127e-07
1.42803e-06
-1.52629e-07
1.46007e-06
-7.10563e-08
1.4798e-06
-1.13037e-08
1.49684e-06
1.96565e-08
1.50528e-06
2.87765e-08
1.5133e-06
4.11189e-08
1.51814e-06
5.09516e-08
1.52367e-06
5.87249e-08
1.52434e-06
6.05163e-08
1.51812e-06
6.84995e-08
1.50529e-06
7.68516e-08
1.49425e-06
9.2487e-08
1.13917e-07
1.49101e-06
1.7401e-06
5.50912e-07
1.68197e-06
3.39632e-08
1.5883e-06
-4.47748e-08
1.52008e-06
-1.59575e-07
1.48555e-06
-1.8566e-07
1.53029e-06
-2.00565e-07
1.5659e-06
-1.11726e-07
1.5868e-06
-3.71297e-08
1.59905e-06
3.46279e-09
1.60469e-06
1.85577e-08
1.61442e-06
3.08962e-08
1.6206e-06
3.86195e-08
1.62693e-06
4.83156e-08
1.63109e-06
5.55523e-08
1.63074e-06
6.42935e-08
1.62568e-06
7.40559e-08
1.62228e-06
8.84611e-08
1.04823e-07
1.62436e-06
1.89048e-06
4.32228e-07
1.84184e-06
1.43619e-08
1.77675e-06
-6.18971e-08
1.72965e-06
1.62621e-08
1.62675e-06
-1.64115e-07
1.66071e-06
-2.41867e-07
1.69389e-06
-1.505e-07
1.7163e-06
-6.3934e-08
1.72777e-06
-1.19665e-08
1.7324e-06
9.99707e-09
1.73845e-06
2.22942e-08
1.74286e-06
2.92026e-08
1.74889e-06
3.91164e-08
1.75351e-06
4.85927e-08
1.75515e-06
5.84974e-08
1.75411e-06
6.92774e-08
1.75465e-06
8.25617e-08
9.64473e-08
1.75879e-06
1.45864e-06
3.57953e-07
1.43145e-06
-1.23848e-08
1.39882e-06
-5.32906e-08
1.39947e-06
-9.85209e-10
1.31645e-06
-1.11331e-07
1.29259e-06
-2.22748e-07
1.30884e-06
-1.70177e-07
1.32639e-06
-8.45134e-08
1.33539e-06
-2.36082e-08
1.3386e-06
4.21462e-09
1.34109e-06
1.72413e-08
1.343e-06
2.45851e-08
1.34582e-06
3.38775e-08
1.34806e-06
4.38372e-08
1.34918e-06
5.44176e-08
1.34978e-06
6.54325e-08
1.35181e-06
7.78782e-08
9.00908e-08
1.35597e-06
1.68991e-06
2.77377e-07
1.66282e-06
-4.15756e-08
1.64583e-06
-4.44056e-08
1.66437e-06
1.00148e-08
1.56759e-06
-1.07555e-07
1.50642e-06
-1.7288e-07
1.51635e-06
-1.82116e-07
1.53711e-06
-1.06569e-07
1.54814e-06
-3.72838e-08
1.55161e-06
-2.31296e-09
1.55265e-06
1.32475e-08
1.55304e-06
2.12035e-08
1.55426e-06
2.97732e-08
1.55563e-06
3.96674e-08
1.55677e-06
5.03726e-08
1.5581e-06
6.13329e-08
1.56087e-06
7.28382e-08
8.33118e-08
1.56579e-06
1.96514e-06
1.93407e-07
1.94954e-06
-8.3983e-08
1.9309e-06
-5.4829e-08
1.93038e-06
1.1697e-08
1.82841e-06
-2.7422e-08
1.76346e-06
-8.9249e-08
1.76469e-06
-1.80053e-07
1.78612e-06
-1.28773e-07
1.80004e-06
-5.41606e-08
1.80427e-06
-1.00575e-08
1.80316e-06
1.07567e-08
1.80097e-06
1.98498e-08
1.79977e-06
2.75883e-08
1.79948e-06
3.67606e-08
1.79995e-06
4.69349e-08
1.80155e-06
5.71076e-08
1.80494e-06
6.71144e-08
7.61e-08
1.81018e-06
2.30267e-06
1.06331e-07
2.27213e-06
-1.02739e-07
2.26243e-06
-7.77755e-08
2.23324e-06
3.2081e-08
2.21028e-06
-3.73243e-09
2.1346e-06
-2.38621e-08
2.07727e-06
-1.39401e-07
2.08345e-06
-1.38707e-07
2.09957e-06
-7.37147e-08
2.10415e-06
-1.87712e-08
2.09991e-06
1.0672e-08
2.09395e-06
2.15612e-08
2.08908e-06
2.83828e-08
2.08612e-06
3.62557e-08
2.08503e-06
4.45641e-08
2.08605e-06
5.29909e-08
2.08933e-06
6.11708e-08
6.89303e-08
2.09421e-06
2.695e-06
5.18776e-08
2.66577e-06
-8.10813e-08
2.65182e-06
-9.77315e-08
2.58563e-06
8.20507e-11
2.63334e-06
1.57953e-08
2.54817e-06
2.44402e-08
2.44134e-06
-5.59864e-08
2.4418e-06
-1.45581e-07
2.45341e-06
-9.01088e-08
2.45441e-06
-2.49136e-08
2.44722e-06
1.25231e-08
2.43869e-06
2.55927e-08
2.43033e-06
3.24069e-08
2.42366e-06
3.80156e-08
2.42042e-06
4.34386e-08
2.42033e-06
4.94219e-08
2.42294e-06
5.54736e-08
6.19252e-08
2.42732e-06
3.17524e-06
3.34997e-08
3.14174e-06
-3.72934e-08
3.13416e-06
-1.18677e-07
3.04028e-06
-4.53618e-08
3.1296e-06
-3.73157e-09
3.04293e-06
1.98792e-08
2.91271e-06
-3.86866e-08
2.87709e-06
-1.21616e-07
2.85965e-06
-7.91171e-08
2.85192e-06
-2.32026e-08
2.84508e-06
1.40987e-08
2.83732e-06
2.79778e-08
2.82922e-06
3.45623e-08
2.82223e-06
3.92676e-08
2.81791e-06
4.27704e-08
2.81639e-06
4.65693e-08
2.81729e-06
5.08504e-08
5.59471e-08
2.82009e-06
3.71293e-06
2.23536e-08
3.67775e-06
5.03604e-08
3.66793e-06
-1.35254e-07
3.58909e-06
-9.99861e-08
3.70183e-06
-1.84301e-08
3.59517e-06
-2.73933e-08
3.47688e-06
-2.84821e-08
3.37712e-06
-3.77561e-08
3.34104e-06
-5.15108e-08
3.32377e-06
-8.28376e-09
3.315e-06
1.54074e-08
3.3085e-06
2.75191e-08
3.30281e-06
3.3979e-08
3.29735e-06
3.87391e-08
3.29247e-06
4.19657e-08
3.28865e-06
4.50023e-08
3.28639e-06
4.83333e-08
5.18806e-08
3.28631e-06
4.28553e-06
-8.81627e-09
4.20575e-06
3.86877e-08
4.28102e-06
-8.34546e-08
4.2474e-06
-7.52978e-08
4.3105e-06
-5.39038e-09
4.3189e-06
-5.74302e-09
4.22344e-06
1.33612e-08
3.96679e-06
2.90109e-08
3.9054e-06
-1.67498e-08
3.88008e-06
4.58318e-09
3.87399e-06
1.55876e-08
3.86754e-06
2.63051e-08
3.86174e-06
3.14441e-08
3.85771e-06
3.60782e-08
3.85341e-06
4.01487e-08
3.84836e-06
4.38007e-08
3.84316e-06
4.70602e-08
5.03388e-08
3.83911e-06
5.01798e-06
6.15319e-09
4.93873e-06
-4.7051e-08
4.98237e-06
-3.10633e-08
5.01041e-06
-2.6972e-08
5.05629e-06
4.84221e-09
5.05624e-06
1.86112e-08
4.95398e-06
2.57441e-08
4.57962e-06
3.7803e-08
4.53019e-06
-2.97521e-09
4.5188e-06
3.16475e-09
4.51526e-06
1.04723e-08
4.51257e-06
2.10064e-08
4.50961e-06
2.55532e-08
4.50654e-06
3.02901e-08
4.50236e-06
3.57386e-08
4.49777e-06
4.04672e-08
4.49323e-06
4.46511e-08
4.76375e-08
4.48993e-06
5.77515e-06
-3.13513e-08
5.72799e-06
-3.49535e-08
5.83633e-06
-2.04807e-08
5.91142e-06
4.48411e-10
5.9733e-06
2.41963e-08
5.9946e-06
3.11164e-08
5.88231e-06
2.10833e-08
5.32785e-06
1.58141e-08
5.26986e-06
2.12979e-09
5.25461e-06
-4.25908e-11
5.25137e-06
1.81058e-09
5.25357e-06
9.89652e-09
5.25603e-06
1.50883e-08
5.25742e-06
2.08121e-08
5.2568e-06
2.80736e-08
5.25446e-06
3.46538e-08
5.25085e-06
3.9688e-08
4.32802e-08
5.24786e-06
5.891e-06
-4.7994e-08
5.79325e-06
1.72619e-08
5.88318e-06
4.60936e-09
5.94265e-06
3.2801e-08
6.01032e-06
4.13796e-08
5.98148e-06
2.45025e-08
5.90699e-06
-1.85482e-09
5.44468e-06
-1.6791e-08
5.39219e-06
1.03737e-08
5.36757e-06
5.4989e-09
5.35296e-06
1.5197e-09
5.34256e-06
6.14611e-09
5.33317e-06
1.04906e-08
5.32488e-06
1.56538e-08
5.31844e-06
2.22716e-08
5.31455e-06
2.81621e-08
5.31318e-06
3.27331e-08
3.56434e-08
5.31305e-06
5.40819e-06
8.08746e-08
5.05419e-06
-3.56454e-08
5.18977e-06
3.0161e-08
5.19207e-06
2.92571e-08
5.23449e-06
3.27988e-08
5.23261e-06
1.26716e-08
5.19887e-06
-6.80629e-09
4.8911e-06
-1.77944e-08
4.82926e-06
4.11001e-08
4.79882e-06
1.94356e-08
4.78154e-06
4.91584e-09
4.77117e-06
3.79497e-09
4.76311e-06
6.79459e-09
4.7565e-06
1.13253e-08
4.75132e-06
1.75139e-08
4.74776e-06
2.34229e-08
4.74531e-06
2.78475e-08
3.0481e-08
4.74389e-06
4.67216e-06
2.61645e-09
4.51885e-06
-3.30365e-08
4.58045e-06
2.12238e-08
4.58081e-06
5.03138e-08
4.56707e-06
5.44305e-08
4.53782e-06
5.35108e-08
4.46198e-06
6.79912e-08
4.35744e-06
7.8957e-08
4.31325e-06
7.02546e-08
4.28435e-06
3.38062e-08
4.26479e-06
1.07495e-08
4.25272e-06
3.87116e-09
4.24506e-06
5.2553e-09
4.23888e-06
8.50911e-09
4.23469e-06
1.36463e-08
4.23211e-06
1.875e-08
4.23112e-06
2.23183e-08
2.40836e-08
4.23162e-06
4.20153e-06
-1.46285e-07
4.05035e-06
-6.2009e-08
4.09299e-06
-2.65221e-09
4.0812e-06
3.95029e-08
4.04676e-06
5.94021e-08
4.0382e-06
6.92096e-08
3.99193e-06
1.11883e-07
3.90345e-06
1.53674e-07
3.84785e-06
1.11607e-07
3.81727e-06
5.07447e-08
3.80061e-06
1.63833e-08
3.79118e-06
3.96349e-09
3.7852e-06
3.02527e-09
3.78157e-06
4.89515e-09
3.78047e-06
8.63201e-09
3.78088e-06
1.26202e-08
3.78249e-06
1.52326e-08
1.65662e-08
3.78481e-06
3.7694e-06
-2.2832e-07
3.6164e-06
-1.14274e-07
3.63291e-06
-4.38055e-08
3.59772e-06
3.54525e-09
3.57037e-06
4.94547e-08
3.59522e-06
7.25104e-08
3.54654e-06
1.67302e-07
3.46853e-06
2.17074e-07
3.42282e-06
1.43107e-07
3.40111e-06
5.94788e-08
3.38984e-06
1.89314e-08
3.38259e-06
3.37789e-09
3.37928e-06
-5.93642e-10
3.37907e-06
-9.34972e-10
3.38238e-06
4.33806e-10
3.38751e-06
2.56925e-09
3.39342e-06
4.35983e-09
5.59706e-09
3.3996e-06
3.38814e-06
-2.79024e-07
3.26066e-06
-1.5635e-07
3.23853e-06
-6.97625e-08
3.17261e-06
-1.49577e-08
3.13436e-06
4.06076e-08
3.1144e-06
9.09075e-08
3.04992e-06
2.23969e-07
3.04779e-06
2.04826e-07
3.05291e-06
1.24998e-07
3.04615e-06
5.52584e-08
3.03942e-06
1.71631e-08
3.03412e-06
1.32263e-09
3.0318e-06
-4.83649e-09
3.03327e-06
-8.18549e-09
3.03861e-06
-9.93892e-09
3.04638e-06
-9.99811e-09
3.0551e-06
-8.99463e-09
-7.72702e-09
3.06417e-06
3.04511e-06
-3.35806e-07
2.95371e-06
-1.80598e-07
2.91436e-06
-7.61135e-08
2.8334e-06
-2.16626e-08
2.6719e-06
8.91693e-08
2.71705e-06
2.53221e-07
2.70674e-06
2.40236e-07
2.72656e-06
1.76508e-07
2.74119e-06
1.00026e-07
2.74228e-06
4.43061e-08
2.73728e-06
1.37967e-08
2.73274e-06
-1.44142e-09
2.73175e-06
-1.04589e-08
2.73469e-06
-1.71067e-08
2.7403e-06
-2.13359e-08
2.74836e-06
-2.28201e-08
2.75745e-06
-2.25453e-08
-2.11124e-08
2.76714e-06
2.7324e-06
-4.06821e-07
2.66064e-06
-1.99095e-07
2.63791e-06
-8.43249e-08
2.56786e-06
-2.34132e-08
2.43729e-06
1.35867e-07
2.391e-06
2.91994e-07
2.41288e-06
2.10725e-07
2.45243e-06
1.28517e-07
2.47305e-06
7.00547e-08
2.4761e-06
3.24981e-08
2.47334e-06
8.6767e-09
2.47147e-06
-6.74753e-09
2.47342e-06
-1.8804e-08
2.4785e-06
-2.75481e-08
2.48453e-06
-3.37657e-08
2.4921e-06
-3.54887e-08
2.49987e-06
-3.46295e-08
-3.24269e-08
2.50667e-06
2.44896e-06
-4.98118e-07
2.3681e-06
-2.19447e-07
2.33041e-06
-2.92757e-08
2.16537e-06
1.09808e-07
2.04982e-06
2.33517e-07
2.11383e-06
2.192e-07
2.1765e-06
1.40217e-07
2.21818e-06
7.88307e-08
2.23689e-06
4.37385e-08
2.24319e-06
1.8917e-08
2.24615e-06
-1.02905e-09
2.25154e-06
-1.75078e-08
2.25926e-06
-3.12167e-08
2.26433e-06
-4.08437e-08
2.27001e-06
-4.49586e-08
2.27583e-06
-4.56553e-08
2.28153e-06
-4.31613e-08
-3.79206e-08
2.28535e-06
2.18152e-06
-6.06107e-07
2.04142e-06
-1.62077e-07
1.872e-06
1.80819e-07
1.77519e-06
1.98586e-07
1.84127e-06
1.58599e-07
1.92864e-06
1.23553e-07
1.98374e-06
7.68211e-08
2.01543e-06
3.8834e-08
2.03462e-06
1.75508e-08
2.04973e-06
-7.05815e-10
2.06361e-06
-1.75227e-08
2.07339e-06
-2.95615e-08
2.0775e-06
-4.73302e-08
2.07726e-06
-4.94957e-08
2.08122e-06
-5.53597e-08
2.08802e-06
-5.23101e-08
2.08814e-06
-4.41842e-08
-3.64226e-08
2.08472e-06
1.78912e-06
-5.52012e-07
1.58945e-06
3.81266e-08
1.56912e-06
1.94615e-07
1.64551e-06
1.15618e-07
1.72498e-06
7.15076e-08
1.78555e-06
5.47463e-08
1.8206e-06
2.91887e-08
1.84371e-06
4.25701e-09
1.86651e-06
-7.16956e-09
1.89022e-06
-2.0372e-08
1.90251e-06
-2.82312e-08
1.89703e-06
-4.19619e-08
1.89443e-06
-5.27301e-08
1.88827e-06
-5.14901e-08
1.8904e-06
-4.44265e-08
1.87801e-06
-3.98455e-08
1.85305e-06
-3.33283e-08
-2.61396e-08
1.8334e-06
1.40797e-06
-3.41061e-07
1.36904e-06
6.7624e-08
1.46625e-06
8.78649e-08
1.54117e-06
3.28722e-08
1.58886e-06
1.44775e-08
1.61789e-06
1.18307e-08
1.62697e-06
2.25678e-09
1.63705e-06
-1.0298e-08
1.6493e-06
-1.6763e-08
1.65287e-06
-1.96271e-08
1.63313e-06
-2.40804e-08
1.60501e-06
-2.99712e-08
1.59303e-06
-3.15561e-08
1.57298e-06
-2.96674e-08
1.54866e-06
-2.19065e-08
1.51928e-06
-1.71476e-08
1.48914e-06
-1.36688e-08
-1.05497e-08
1.4629e-06
1.13104e-06
1.19558e-06
1.27659e-06
1.29378e-06
1.29089e-06
1.28162e-06
1.27137e-06
1.25805e-06
1.23461e-06
1.20525e-06
1.17419e-06
1.1381e-06
1.10723e-06
1.07265e-06
1.04003e-06
1.01236e-06
9.89068e-07
9.68763e-07
1.64535e-09
9.52062e-09
4.55065e-09
8.0768e-09
7.82828e-09
7.62858e-09
1.07374e-08
7.96925e-09
1.28054e-08
8.81997e-09
1.37847e-08
9.92859e-09
1.35169e-08
1.11761e-08
1.19874e-08
1.23962e-08
9.53582e-09
1.3484e-08
6.07434e-09
1.44206e-08
1.89908e-09
1.51921e-08
-2.78936e-09
1.58209e-08
-8.02391e-09
1.63298e-08
-1.36448e-08
1.67657e-08
-1.96704e-08
1.7149e-08
-2.59868e-08
1.75007e-08
-3.26243e-08
1.78595e-08
-3.95646e-08
1.8197e-08
-4.68009e-08
1.85462e-08
-5.43838e-08
1.89122e-08
-6.23136e-08
1.93049e-08
-7.06124e-08
1.97337e-08
-7.93376e-08
2.01963e-08
-8.85225e-08
2.06799e-08
-9.81101e-08
2.12039e-08
-1.08241e-07
2.17535e-08
-1.1892e-07
2.23271e-08
-1.30112e-07
2.29161e-08
-1.41592e-07
2.35101e-08
-1.54142e-07
2.40414e-08
-1.67247e-07
2.48911e-08
-1.81005e-07
2.55109e-08
-1.95263e-07
2.61553e-08
-2.10046e-07
2.67865e-08
-2.25501e-07
2.74254e-08
-2.41591e-07
2.80756e-08
-2.5826e-07
2.86908e-08
-2.75504e-07
2.92711e-08
-2.93302e-07
2.98147e-08
-3.11624e-07
3.02932e-08
-3.30488e-07
3.07186e-08
-3.49639e-07
3.11034e-08
-3.68967e-07
3.14066e-08
-3.88564e-07
3.15718e-08
-4.08172e-07
3.15862e-08
-4.27168e-07
3.14632e-08
-4.46282e-07
3.10629e-08
-4.65727e-07
3.04549e-08
-4.83727e-07
2.99225e-08
-5.01095e-07
2.91968e-08
-5.18051e-07
2.87547e-08
-5.3393e-07
2.76742e-08
-5.48605e-07
2.64247e-08
-5.6203e-07
2.50852e-08
-5.74161e-07
2.36776e-08
-5.84979e-07
2.22213e-08
-5.94435e-07
2.07418e-08
-6.0245e-07
1.92756e-08
-6.09154e-07
1.78388e-08
-6.14742e-07
1.64374e-08
-6.19112e-07
1.51136e-08
-6.22419e-07
1.39163e-08
-6.24876e-07
1.28526e-08
-6.26723e-07
1.19446e-08
-6.28236e-07
1.12074e-08
-6.29375e-07
1.07138e-08
-6.30356e-07
1.04859e-08
-6.31508e-07
1.04493e-08
-6.32059e-07
1.05892e-08
-6.35755e-07
1.09396e-08
-6.38988e-07
1.15187e-08
-6.42966e-07
1.2277e-08
-6.48151e-07
1.31452e-08
-6.54736e-07
1.41521e-08
-6.62764e-07
1.52558e-08
-6.72223e-07
1.64139e-08
-6.83087e-07
1.75888e-08
-6.95348e-07
1.87562e-08
-7.08983e-07
1.98852e-08
-7.23874e-07
2.0905e-08
-7.39837e-07
2.17715e-08
-7.56702e-07
2.2487e-08
-7.7426e-07
2.301e-08
-7.92284e-07
2.32995e-08
-8.10543e-07
2.335e-08
-8.28725e-07
2.31155e-08
-8.46435e-07
2.25535e-08
-8.63355e-07
2.17056e-08
-8.79358e-07
2.06139e-08
-8.93853e-07
1.92881e-08
-9.06569e-07
1.74115e-08
-9.18587e-07
1.51255e-08
-9.27691e-07
1.35284e-08
-9.34557e-07
1.12385e-08
-9.38836e-07
8.59126e-09
-9.40428e-07
5.84343e-09
-9.39214e-07
2.93823e-09
-9.35163e-07
-4.99704e-11
-9.28498e-07
-2.64055e-09
-9.19237e-07
-5.21872e-09
-9.07434e-07
-7.7276e-09
-8.9338e-07
-1.0069e-08
-8.77229e-07
-1.21776e-08
-8.59331e-07
-1.40756e-08
-8.39894e-07
-1.57267e-08
-8.1917e-07
-1.71229e-08
-7.97431e-07
-1.82564e-08
-7.75047e-07
-1.91388e-08
-7.52389e-07
-1.9777e-08
-7.29584e-07
-2.02117e-08
-7.06787e-07
-2.04529e-08
-6.84353e-07
-2.05183e-08
-6.6228e-07
-2.04266e-08
-6.4055e-07
-2.02517e-08
-6.19646e-07
-2.01195e-08
-5.99508e-07
-1.95458e-08
-5.79909e-07
-1.93338e-08
-5.60911e-07
-1.90553e-08
-5.42484e-07
-1.87972e-08
-5.24539e-07
-1.85979e-08
-5.06966e-07
-1.84791e-08
-4.89613e-07
-1.84477e-08
-4.72367e-07
-1.85317e-08
-4.55082e-07
-1.87241e-08
-4.37575e-07
-1.90289e-08
-4.19682e-07
-1.94455e-08
-4.01275e-07
-1.99662e-08
-3.82249e-07
-2.05694e-08
-3.62488e-07
-2.12508e-08
-3.41914e-07
-2.1991e-08
-3.2047e-07
-2.27689e-08
-2.98155e-07
-2.35537e-08
-2.74918e-07
-2.43081e-08
-2.50929e-07
-2.50582e-08
-2.26243e-07
-2.57133e-08
-2.00929e-07
-2.63015e-08
-1.75159e-07
-2.67949e-08
-1.49104e-07
-2.71836e-08
-1.22949e-07
-2.7453e-08
-9.68832e-08
-2.75976e-08
-7.11008e-08
-2.76107e-08
-4.57788e-08
-2.75089e-08
-2.10694e-08
-2.73121e-08
2.86328e-09
-2.70096e-08
2.59084e-08
-2.66477e-08
4.79954e-08
-2.62765e-08
6.90342e-08
-2.58651e-08
8.8979e-08
-2.54439e-08
1.07815e-07
-2.5032e-08
1.25551e-07
-2.4657e-08
1.42185e-07
-2.43026e-08
1.57766e-07
-2.39637e-08
1.72332e-07
-2.36694e-08
1.85928e-07
-2.34529e-08
1.98595e-07
-2.32592e-08
2.10374e-07
-2.30853e-08
2.21285e-07
-2.29514e-08
2.31311e-07
-2.28382e-08
2.40611e-07
-2.26493e-08
2.49044e-07
-2.25592e-08
2.56681e-07
-2.24576e-08
2.63543e-07
-2.23712e-08
2.69631e-07
-2.2266e-08
2.7495e-07
-2.2159e-08
2.79497e-07
-2.20451e-08
2.8334e-07
-2.19766e-08
2.8652e-07
-2.19455e-08
2.89005e-07
-2.19777e-08
2.90971e-07
-2.18737e-08
2.92378e-07
-2.1784e-08
2.93375e-07
-2.16786e-08
2.93969e-07
-2.16478e-08
2.94199e-07
-2.16124e-08
2.94091e-07
-2.1481e-08
2.93564e-07
-2.12211e-08
2.92473e-07
-2.07029e-08
2.90265e-07
-1.96381e-08
2.85729e-07
-1.75658e-08
2.75333e-07
-1.09427e-08
-7.6352e-09
2.61648e-07
2.71883e-09
1.7621e-08
6.45181e-09
1.46989e-08
9.599e-09
1.44952e-08
1.13708e-08
1.60141e-08
1.14007e-08
1.83939e-08
9.89035e-09
2.11126e-08
6.74273e-09
2.38181e-08
2.02302e-09
2.63948e-08
-3.83234e-09
2.87105e-08
-1.08685e-08
3.07159e-08
-1.88544e-08
3.24045e-08
-2.76542e-08
3.38479e-08
-3.7084e-08
3.50311e-08
-4.71978e-08
3.60769e-08
-5.79211e-08
3.7008e-08
-6.90813e-08
3.78688e-08
-8.1023e-08
3.86941e-08
-9.33157e-08
3.95936e-08
-1.06062e-07
4.04212e-08
-1.19293e-07
4.12563e-08
-1.32997e-07
4.21277e-08
-1.47181e-07
4.3054e-08
-1.61841e-07
4.39908e-08
-1.77008e-07
4.49737e-08
-1.92692e-07
4.59997e-08
-2.08795e-07
4.70762e-08
-2.25466e-07
4.81741e-08
-2.42655e-07
4.92832e-08
-2.60191e-07
5.04134e-08
-2.77823e-07
5.15033e-08
-2.97335e-07
5.27544e-08
-3.16602e-07
5.39486e-08
-3.36243e-07
5.50846e-08
-3.56218e-07
5.61548e-08
-3.76679e-07
5.72133e-08
-3.9756e-07
5.82345e-08
-4.1881e-07
5.9173e-08
-4.40398e-07
6.00023e-08
-4.62274e-07
6.07059e-08
-4.84357e-07
6.12789e-08
-5.06494e-07
6.17188e-08
-5.28445e-07
6.19958e-08
-5.50165e-07
6.20663e-08
-5.71662e-07
6.19005e-08
-5.92896e-07
6.14727e-08
-6.13834e-07
6.07649e-08
-6.34102e-07
5.97976e-08
-6.53208e-07
5.86065e-08
-6.71266e-07
5.71892e-08
-6.87676e-07
5.52333e-08
-7.05002e-07
5.30484e-08
-7.19962e-07
5.14567e-08
-7.33425e-07
4.87733e-08
-7.45418e-07
4.59941e-08
-7.55923e-07
4.31154e-08
-7.64908e-07
4.01678e-08
-7.72331e-07
3.71954e-08
-7.78193e-07
3.42442e-08
-7.82633e-07
3.1371e-08
-7.85794e-07
2.86332e-08
-7.87671e-07
2.60798e-08
-7.88423e-07
2.37752e-08
-7.88284e-07
2.17732e-08
-7.87554e-07
2.01085e-08
-7.865e-07
1.88267e-08
-7.85067e-07
1.79701e-08
-7.83412e-07
1.75495e-08
-7.81987e-07
1.75335e-08
-7.79682e-07
1.79397e-08
-7.808e-07
1.86593e-08
-7.81352e-07
1.98254e-08
-7.82686e-07
2.13182e-08
-7.85099e-07
2.30604e-08
-7.88888e-07
2.50158e-08
-7.94058e-07
2.7117e-08
-8.00575e-07
2.92978e-08
-8.08419e-07
3.14926e-08
-8.1755e-07
3.3634e-08
-8.27891e-07
3.56531e-08
-8.39337e-07
3.74643e-08
-8.51735e-07
3.89893e-08
-8.64888e-07
4.01829e-08
-8.78592e-07
4.09893e-08
-8.9263e-07
4.13489e-08
-9.06751e-07
4.12246e-08
-9.20676e-07
4.05715e-08
-9.3407e-07
3.93425e-08
-9.46544e-07
3.7524e-08
-9.57836e-07
3.51554e-08
-9.67717e-07
3.22501e-08
-9.75909e-07
2.8765e-08
-9.8229e-07
2.47023e-08
-9.8728e-07
2.01878e-08
-9.89282e-07
1.61596e-08
-9.88743e-07
1.09646e-08
-9.85695e-07
5.70096e-09
-9.8018e-07
3.24894e-10
-9.71994e-07
-5.02738e-09
-9.6121e-07
-1.01732e-08
-9.48006e-07
-1.51316e-08
-9.3249e-07
-1.98972e-08
-9.14841e-07
-2.43387e-08
-8.95278e-07
-2.83715e-08
-8.74086e-07
-3.19467e-08
-8.51504e-07
-3.5032e-08
-8.27801e-07
-3.76105e-08
-8.03269e-07
-3.96748e-08
-7.78226e-07
-4.12448e-08
-7.52958e-07
-4.23468e-08
-7.27667e-07
-4.3031e-08
-7.02511e-07
-4.33455e-08
-6.77735e-07
-4.33296e-08
-6.53432e-07
-4.30492e-08
-6.296e-07
-4.25717e-08
-6.06213e-07
-4.19288e-08
-5.8421e-07
-4.12665e-08
-5.62459e-07
-4.05691e-08
-5.41378e-07
-3.99119e-08
-5.20896e-07
-3.93424e-08
-5.00921e-07
-3.89057e-08
-4.81344e-07
-3.86381e-08
-4.62027e-07
-3.85641e-08
-4.42838e-07
-3.87119e-08
-4.23637e-07
-3.90892e-08
-4.04249e-07
-3.96988e-08
-3.84524e-07
-4.05374e-08
-3.6433e-07
-4.15845e-08
-3.43551e-07
-4.28085e-08
-3.22082e-07
-4.41836e-08
-2.99849e-07
-4.56718e-08
-2.76791e-07
-4.72297e-08
-2.52906e-07
-4.88e-08
-2.28147e-07
-5.03298e-08
-2.0263e-07
-5.1797e-08
-1.76488e-07
-5.31318e-08
-1.49723e-07
-5.42711e-08
-1.22534e-07
-5.52038e-08
-9.50869e-08
-5.59078e-08
-6.75479e-08
-5.63695e-08
-4.01012e-08
-5.65736e-08
-1.29207e-08
-5.65248e-08
1.3819e-08
-5.62393e-08
3.99439e-08
-5.5737e-08
6.53212e-08
-5.50534e-08
8.98236e-08
-5.42323e-08
1.13349e-07
-5.3343e-08
1.35853e-07
-5.24107e-08
1.57294e-07
-5.14745e-08
1.77665e-07
-5.05706e-08
1.96974e-07
-4.97354e-08
2.15241e-07
-4.89722e-08
2.32486e-07
-4.82572e-08
2.4878e-07
-4.76647e-08
2.6413e-07
-4.71748e-08
2.78606e-07
-4.67765e-08
2.92239e-07
-4.64287e-08
3.05047e-07
-4.61337e-08
3.17033e-07
-4.58813e-08
3.28283e-07
-4.55562e-08
3.38677e-07
-4.52607e-08
3.48289e-07
-4.49896e-08
3.57095e-07
-4.46912e-08
3.65098e-07
-4.43494e-08
3.72288e-07
-4.397e-08
3.78693e-07
-4.35736e-08
3.8432e-07
-4.31905e-08
3.89212e-07
-4.28437e-08
3.934e-07
-4.25808e-08
3.96959e-07
-4.21579e-08
3.99925e-07
-4.17564e-08
4.02424e-07
-4.13579e-08
4.04539e-07
-4.11096e-08
4.06314e-07
-4.08546e-08
4.07798e-07
-4.04931e-08
4.08968e-07
-3.99374e-08
4.09764e-07
-3.89957e-08
4.09908e-07
-3.71883e-08
4.08328e-07
-3.39386e-08
4.05697e-07
-2.49175e-08
-1.57993e-08
3.98145e-07
2.30298e-09
2.57521e-08
4.20632e-09
2.25688e-08
4.34023e-09
2.36544e-08
2.43207e-09
2.69736e-08
-1.34313e-09
3.10095e-08
-6.67692e-09
3.52137e-08
-1.32407e-08
3.91435e-08
-2.11388e-08
4.28114e-08
-3.01037e-08
4.6136e-08
-4.00347e-08
4.90529e-08
-5.08032e-08
5.1548e-08
-6.22574e-08
5.37046e-08
-7.44089e-08
5.56075e-08
-8.71806e-08
5.72819e-08
-1.00626e-07
5.8761e-08
-1.14629e-07
6.01508e-08
-1.29011e-07
6.14615e-08
-1.44393e-07
6.275e-08
-1.60001e-07
6.41959e-08
-1.75985e-07
6.53917e-08
-1.92382e-07
6.66532e-08
-2.09184e-07
6.79606e-08
-2.26431e-07
6.93093e-08
-2.44113e-07
7.06953e-08
-2.62137e-07
7.21191e-08
-2.80408e-07
7.35731e-08
-2.99038e-07
7.50224e-08
-3.18071e-07
7.64591e-08
-3.37464e-07
7.78824e-08
-3.56073e-07
7.9304e-08
-3.76914e-07
8.0631e-08
-3.9725e-07
8.23598e-08
-4.17679e-07
8.3652e-08
-4.3802e-07
8.49094e-08
-4.58654e-07
8.61296e-08
-4.79529e-07
8.72692e-08
-5.00596e-07
8.82884e-08
-5.2179e-07
8.91596e-08
-5.43033e-07
8.98593e-08
-5.64208e-07
9.03678e-08
-5.85191e-07
9.0657e-08
-6.05851e-07
9.06832e-08
-6.26128e-07
9.04037e-08
-6.45979e-07
8.97904e-08
-6.65424e-07
8.88227e-08
-6.84442e-07
8.74894e-08
-7.02618e-07
8.57874e-08
-7.19505e-07
8.36983e-08
-7.35436e-07
8.12264e-08
-7.49451e-07
7.83737e-08
-7.62475e-07
7.499e-08
-7.76466e-07
7.13417e-08
-7.86981e-07
6.74823e-08
-7.96026e-07
6.33177e-08
-8.03533e-07
5.89552e-08
-8.09444e-07
5.44734e-08
-8.13742e-07
4.99562e-08
-8.16475e-07
4.54881e-08
-8.17747e-07
4.11633e-08
-8.17653e-07
3.70713e-08
-8.16271e-07
3.32643e-08
-8.13776e-07
2.98544e-08
-8.10406e-07
2.69163e-08
-8.06446e-07
2.45075e-08
-8.02121e-07
2.26931e-08
-7.9747e-07
2.14988e-08
-7.92697e-07
2.09341e-08
-7.88181e-07
2.10127e-08
-7.83081e-07
2.17533e-08
-7.81021e-07
2.29745e-08
-7.78724e-07
2.47724e-08
-7.77296e-07
2.70731e-08
-7.76934e-07
2.97715e-08
-7.78005e-07
3.27661e-08
-7.80522e-07
3.59627e-08
-7.84461e-07
3.92658e-08
-7.89798e-07
4.2575e-08
-7.96488e-07
4.57874e-08
-8.04453e-07
4.87962e-08
-8.13578e-07
5.14907e-08
-8.23716e-07
5.37666e-08
-8.34682e-07
5.55367e-08
-8.46266e-07
5.67209e-08
-8.58249e-07
5.72431e-08
-8.70376e-07
5.70409e-08
-8.82359e-07
5.60564e-08
-8.9387e-07
5.42378e-08
-9.04576e-07
5.15582e-08
-9.142e-07
4.80381e-08
-9.22514e-07
4.372e-08
-9.29204e-07
3.85991e-08
-9.34136e-07
3.27566e-08
-9.36825e-07
2.63335e-08
-9.38462e-07
1.93899e-08
-9.36538e-07
1.20438e-08
-9.32172e-07
4.36362e-09
-9.25204e-07
-3.52983e-09
-9.15808e-07
-1.13648e-08
-9.03953e-07
-1.89912e-08
-8.89787e-07
-2.63237e-08
-8.73314e-07
-3.33325e-08
-8.54745e-07
-3.98216e-08
-8.34342e-07
-4.57007e-08
-8.12358e-07
-5.08911e-08
-7.89055e-07
-5.53429e-08
-7.6471e-07
-5.90286e-08
-7.39615e-07
-6.19451e-08
-7.14067e-07
-6.41192e-08
-6.88335e-07
-6.55957e-08
-6.62634e-07
-6.64421e-08
-6.37149e-07
-6.67341e-08
-6.12082e-07
-6.65481e-08
-5.87549e-07
-6.59798e-08
-5.63518e-07
-6.51196e-08
-5.39963e-07
-6.40386e-08
-5.17845e-07
-6.29848e-08
-4.96024e-07
-6.1825e-08
-4.74894e-07
-6.0739e-08
-4.54393e-07
-5.98056e-08
-4.34426e-07
-5.90864e-08
-4.14878e-07
-5.8633e-08
-3.9562e-07
-5.84851e-08
-3.76507e-07
-5.86747e-08
-3.57396e-07
-5.92196e-08
-3.38122e-07
-6.01226e-08
-3.18537e-07
-6.13748e-08
-2.98506e-07
-6.29472e-08
-2.77905e-07
-6.47973e-08
-2.56631e-07
-6.68775e-08
-2.34607e-07
-6.91288e-08
-2.11777e-07
-7.14818e-08
-1.88133e-07
-7.3856e-08
-1.63644e-07
-7.61751e-08
-1.3838e-07
-7.83811e-08
-1.1252e-07
-8.03807e-08
-8.60646e-08
-8.20761e-08
-5.91856e-08
-8.34522e-08
-3.20478e-08
-8.44684e-08
-4.81684e-09
-8.51131e-08
2.2315e-08
-8.53498e-08
4.91677e-08
-8.51988e-08
7.55665e-08
-8.46842e-08
1.01352e-07
-8.3842e-08
1.26381e-07
-8.27271e-08
1.50542e-07
-8.14098e-08
1.73749e-07
-7.99767e-08
1.95958e-07
-7.84927e-08
2.17132e-07
-7.70155e-08
2.37271e-07
-7.56007e-08
2.56393e-07
-7.42975e-08
2.74529e-07
-7.31217e-08
2.91676e-07
-7.20429e-08
3.07917e-07
-7.1161e-08
3.23308e-07
-7.04454e-08
3.37877e-07
-6.98636e-08
3.5166e-07
-6.93752e-08
3.64677e-07
-6.89561e-08
3.76954e-07
-6.85889e-08
3.88484e-07
-6.81783e-08
3.99254e-07
-6.77303e-08
4.0926e-07
-6.72895e-08
4.18476e-07
-6.67819e-08
4.26889e-07
-6.61917e-08
4.34484e-07
-6.55222e-08
4.41268e-07
-6.48003e-08
4.47242e-07
-6.40509e-08
4.52433e-07
-6.33109e-08
4.56929e-07
-6.26435e-08
4.60702e-07
-6.18345e-08
4.6383e-07
-6.10511e-08
4.66404e-07
-6.03137e-08
4.68587e-07
-5.9768e-08
4.70423e-07
-5.92313e-08
4.71969e-07
-5.86148e-08
4.73257e-07
-5.77867e-08
4.74281e-07
-5.65208e-08
4.74941e-07
-5.42339e-08
4.746e-07
-5.04019e-08
4.74672e-07
-4.09079e-08
-2.9343e-08
4.73087e-07
9.11577e-10
3.48412e-08
-3.1925e-10
3.30234e-08
-4.03295e-09
3.60871e-08
-9.79072e-09
4.12122e-08
-1.70654e-08
4.66219e-08
-2.5739e-08
5.1885e-08
-3.51523e-08
5.67477e-08
-4.55039e-08
6.12178e-08
-5.65741e-08
6.52809e-08
-6.88009e-08
6.88292e-08
-8.14261e-08
7.19921e-08
-9.46453e-08
7.48094e-08
-1.08455e-07
7.73116e-08
-1.2278e-07
7.95383e-08
-1.377e-07
8.15393e-08
-1.53168e-07
8.3432e-08
-1.68985e-07
8.51884e-08
-1.85059e-07
8.68682e-08
-2.02512e-07
8.85314e-08
-2.19556e-07
9.01414e-08
-2.36928e-07
9.17359e-08
-2.54605e-07
9.33322e-08
-2.72562e-07
9.49343e-08
-2.90772e-07
9.65447e-08
-3.0917e-07
9.81663e-08
-3.27653e-07
9.97969e-08
-3.46287e-07
1.01411e-07
-3.65155e-07
1.02996e-07
-3.84214e-07
1.04565e-07
-4.02604e-07
1.06134e-07
-4.21414e-07
1.07608e-07
-4.4197e-07
1.09191e-07
-4.61289e-07
1.10653e-07
-4.80342e-07
1.12021e-07
-4.99605e-07
1.13295e-07
-5.1903e-07
1.14454e-07
-5.38548e-07
1.15464e-07
-5.58077e-07
1.16295e-07
-5.77542e-07
1.16916e-07
-5.96849e-07
1.17291e-07
-6.15914e-07
1.17377e-07
-6.3465e-07
1.17125e-07
-6.52995e-07
1.16485e-07
-6.7089e-07
1.15419e-07
-6.88327e-07
1.139e-07
-7.05222e-07
1.11917e-07
-7.21261e-07
1.09434e-07
-7.36146e-07
1.06423e-07
-7.4995e-07
1.02894e-07
-7.62088e-07
9.88593e-08
-7.72567e-07
9.42638e-08
-7.84189e-07
8.91599e-08
-7.92489e-07
8.37889e-08
-7.99148e-07
7.80738e-08
-8.04154e-07
7.21127e-08
-8.0748e-07
6.60034e-08
-8.09126e-07
5.98559e-08
-8.0914e-07
5.37888e-08
-8.07604e-07
4.79248e-08
-8.04608e-07
4.23785e-08
-8.00306e-07
3.72719e-08
-7.94886e-07
3.27258e-08
-7.88596e-07
2.88395e-08
-7.81714e-07
2.56949e-08
-7.74447e-07
2.33663e-08
-7.66919e-07
2.18857e-08
-7.59389e-07
2.12698e-08
-7.522e-07
2.15378e-08
-7.44673e-07
2.26718e-08
-7.39868e-07
2.45316e-08
-7.35299e-07
2.71617e-08
-7.31741e-07
3.04282e-08
-7.29365e-07
3.42375e-08
-7.28548e-07
3.84342e-08
-7.29313e-07
4.28901e-08
-7.31639e-07
4.74757e-08
-7.35495e-07
5.20557e-08
-7.40831e-07
5.64897e-08
-7.47559e-07
6.06355e-08
-7.55556e-07
6.43504e-08
-7.64666e-07
6.75e-08
-7.747e-07
6.99635e-08
-7.8544e-07
7.16319e-08
-7.96648e-07
7.24075e-08
-8.08059e-07
7.22066e-08
-8.19374e-07
7.09573e-08
-8.30268e-07
6.86006e-08
-8.40419e-07
6.51026e-08
-8.4954e-07
6.04733e-08
-8.5736e-07
5.47602e-08
-8.63593e-07
4.80039e-08
-8.68002e-07
4.02931e-08
-8.70091e-07
3.17764e-08
-8.71248e-07
2.24669e-08
-8.6894e-07
1.27394e-08
-8.64058e-07
2.589e-09
-8.5661e-07
-7.83466e-09
-8.46619e-07
-1.8268e-08
-8.34108e-07
-2.84783e-08
-8.19347e-07
-3.83229e-08
-8.02232e-07
-4.75229e-08
-7.83067e-07
-5.60577e-08
-7.62095e-07
-6.3764e-08
-7.39581e-07
-7.05364e-08
-7.15804e-07
-7.63051e-08
-6.91057e-07
-8.10358e-08
-6.65638e-07
-8.47291e-08
-6.39842e-07
-8.74215e-08
-6.13934e-07
-8.91782e-08
-5.88136e-07
-9.00901e-08
-5.62643e-07
-9.02619e-08
-5.37638e-07
-8.98066e-08
-5.13241e-07
-8.88529e-08
-4.89415e-07