/*--------------------------------*- C++ -*----------------------------------*\
| =========                 |                                                 |
| \\      /  F ield         | OpenFOAM: The Open Source CFD Toolbox           |
|  \\    /   O peration     | Version:  2.3.0                                 |
|   \\  /    A nd           | Web:      www.OpenFOAM.org                      |
|    \\/     M anipulation  |                                                 |
\*---------------------------------------------------------------------------*/
FoamFile
{
    version     2.0;
    format      ascii;
    class       volScalarField;
    location    "0.08";
    object      T;
}
// * * * * * * * * * * * * * * * * * * * * * * * * * * * * * * * * * * * * * //

dimensions      [0 0 0 1 0 0 0];

internalField   nonuniform List<scalar> 
12225
(
2228.29
2010.45
1829.01
1745.7
1658.44
1599.4
1570.33
1525.73
1486.97
1461.95
1445.74
1427.41
1407.13
1389.91
1376.04
1360.71
1352.19
1351.33
2509.09
2478.6
2357.4
2279.79
2188.76
2087.27
2043.41
1992.97
1928.29
1883.55
1847.6
1821.49
1800.37
1773.51
1747.45
1728.88
1705.01
1690
1975.57
2654.74
2653.73
2625.89
2567.01
2486.39
2437.01
2401.44
2341.17
2281.53
2233.63
2195.71
2164.95
2147.91
2129.68
2096.61
2068.43
2048.43
1652.18
2360.4
2731.81
2759.67
2752.21
2723.44
2687.35
2667.05
2631.51
2584.74
2541.14
2503.72
2468.08
2440.26
2422.6
2412.87
2398.31
2363.87
1532.27
1966.39
2297.14
2787.41
2819.06
2817.08
2806.51
2797.45
2781.95
2753.66
2730.04
2710.47
2685.23
2659.59
2639.63
2627.14
2620.04
2601.45
1494.39
1870.6
2094.41
2430
2825.32
2846.46
2847.17
2845.55
2838.69
2831.83
2819.93
2807.24
2797.72
2785.17
2773.73
2766.51
2762.05
2753.72
1494.32
1852.87
2085.76
2258.39
2789.78
2846.98
2859.16
2860.65
2859.87
2856.79
2853.44
2848.8
2844.82
2838.68
2833.64
2830.46
2828.65
2824.45
1488.59
1847.63
2076.79
2196.62
2528.28
2835.05
2859.65
2864.3
2864.55
2864.03
2862.66
2861.11
2859.11
2856.53
2854.69
2853.75
2852.69
2850.08
1483.44
1835.58
2045.18
2159.14
2379.19
2821.57
2856.29
2862.92
2864.88
2865.7
2865.61
2865.29
2864.8
2863.97
2863.33
2863.05
2862.61
2861.45
1478.69
1811.53
1990.66
2139.53
2313.06
2790.38
2850.27
2859.6
2863.28
2865.15
2865.95
2866.39
2866.66
2866.74
2866.76
2866.73
2866.65
2866.35
1459.78
1771.18
1968.89
2082.88
2320.97
2508.81
2820.05
2853.35
2859.7
2862.45
2864.21
2865.42
2866.35
2866.89
2867.38
2867.84
2868.04
2868.04
1456.65
1732.2
1928.79
2070.79
2237.17
2349.56
2793.99
2846.01
2855.54
2859.48
2862.19
2863.92
2864.73
2865.97
2867.33
2868.05
2868.4
2868.52
1445.06
1698.06
1881.19
2033.94
2170.65
2274.21
2604.29
2829.57
2852.62
2858.75
2861.88
2863.28
2864.51
2866.05
2867.21
2867.94
2868.38
2868.57
1455.45
1686.78
1864.3
2002.86
2116.1
2236.18
2391.91
2804.7
2849.34
2857.22
2860.24
2862.72
2864.09
2865.08
2865.98
2866.9
2867.69
2868.24
1492.74
1708.52
1891.79
1969.14
2090.65
2172.26
2254.06
2719.59
2838.23
2855.03
2858.84
2860.38
2862.51
2863.9
2864.47
2865.22
2866.43
2867.56
1511.47
1733.46
1922.84
1995.44
2063.59
2142.52
2233.1
2661.05
2835.54
2856.36
2859.94
2861.37
2862.76
2864.14
2865.42
2866.59
2867.41
2868.02
1508.24
1732.87
1889.02
1976.15
2041.05
2117.11
2207.23
2586.48
2835.54
2862.22
2866.5
2867.39
2867.3
2867.22
2867.39
2867.83
2868.43
2869.02
1505.16
1708.02
1883.55
1982.25
2034.17
2150.67
2234.85
2536.96
2825.01
2853.27
2860.52
2864.09
2866.85
2869.28
2871.29
2872.61
2873.04
2873.27
1490.94
1760.92
1902.89
2014.9
2093.73
2206.47
2280.11
2559.06
2824.94
2853.58
2861.25
2864.97
2867.31
2869.04
2870.41
2871.18
2871.38
2871.51
1467.56
1705.51
1911.33
2033.02
2139.04
2259.41
2342.1
2771.45
2845.83
2861.25
2867.57
2871.13
2872.2
2872.77
2872.99
2873.03
2872.96
2872.75
1436.13
1683.69
1902.94
2043.99
2177.49
2317.43
2415.89
2803.02
2853.58
2865.79
2871.39
2872.79
2873.28
2873.31
2872.96
2872.27
2871.72
2871.35
1425.95
1673.23
1913.44
2084.73
2249.33
2393.71
2530.4
2826.03
2859.61
2869.79
2872.99
2873.63
2873.59
2873.27
2872.32
2871.25
2870.56
2870.19
1444.09
1657.11
1935.81
2116.52
2327.86
2462.71
2809.3
2849.97
2863.55
2869.99
2872.7
2873.15
2873.14
2872.81
2871.97
2871.05
2870.27
2869.67
1458.68
1660.51
1940.42
2125.23
2354.86
2754.21
2840.42
2856.42
2864.14
2869.11
2871.46
2871.88
2871.72
2870.88
2870.25
2869.37
2867.96
2866.52
1471.9
1682.59
1956.06
2145.87
2375.34
2815.33
2851.21
2858.51
2862.86
2865.75
2866.29
2865.87
2864.58
2861.73
2859
2857.18
2853.29
2851.13
1484.7
1725.6
2008.36
2196.06
2791.27
2843.69
2851.93
2853
2852.46
2850.96
2847.89
2842.04
2833.02
2826.09
2820.24
2813.54
2805.89
2796.62
1512.61
1801.66
2195.7
2775.52
2821.37
2824.75
2822.61
2818.02
2810.09
2796.66
2775.9
2752.52
2736.41
2724.21
2710.9
2690.79
2668.45
2649.94
1614.01
2193.28
2729.64
2751.88
2741.65
2724.18
2701.93
2683
2651.48
2604.88
2555.89
2525.55
2496.07
2472.66
2432.89
2393.08
2375.07
2367.12
1933.77
2609.93
2579.77
2531.91
2461.41
2408.27
2370.13
2325.91
2263.77
2202.82
2154.27
2128.73
2089.79
2046.19
2014.36
1990.85
1975.3
1966.08
2379.5
2281.89
2083.01
1991.19
1924.08
1875.89
1835.7
1784.94
1743.04
1707.81
1678.45
1637.53
1616.53
1592.13
1576.15
1562.94
1549.35
1539.19
1004.48
1013.4
1022.04
1030.25
1037.89
1044.67
1050.93
1056.87
1062.03
1066.98
1071.58
1075.95
1080.39
1084.73
1089.02
1093.21
1097.36
1101.5
1105.62
1109.8
1113.95
1118.1
1122.32
1126.56
1130.74
1135.23
1139.84
1144.5
1149.34
1154.25
1159.39
1164.59
1169.64
1174.68
1180.06
1185.51
1191.07
1196.77
1202.57
1208.4
1214.16
1219.62
1225.22
1231.15
1236.9
1242.6
1248.35
1254.32
1260.23
1266.01
1271.73
1277.46
1283.25
1289.05
1294.8
1300.5
1306.12
1311.73
1317.6
1323.51
1329.13
1334.98
1340.96
1346.94
1352.75
1358.17
1363.98
1370.21
1376.19
1382.11
1388.24
1394.22
1400.17
1406.12
1412.07
1418
1423.94
1429.91
1435.9
1441.83
1447.71
1453.53
1459.29
1465
1470.62
1476.09
1481.41
1486.66
1491.87
1496.85
1502.04
1506.9
1511.8
1516.37
1520.8
1525.08
1529.25
1533.28
1537.16
1540.81
1544.38
1547.97
1551.32
1554.72
1557.84
1560.94
1564.04
1567.24
1570.37
1573.23
1576.11
1579.12
1581.8
1584.73
1587.53
1590.5
1593.31
1596.11
1598.88
1601.62
1604.32
1606.95
1609.5
1611.96
1614.29
1616.51
1618.66
1620.69
1622.56
1624.27
1625.82
1627.22
1628.39
1629.5
1630.48
1631.28
1631.95
1632.48
1632.86
1633.11
1633.27
1633.37
1633.41
1633.41
1633.37
1633.26
1633.07
1632.81
1632.47
1632.06
1631.56
1630.98
1630.28
1629.5
1628.63
1627.6
1626.53
1625.26
1623.93
1622.46
1620.91
1619.29
1617.59
1615.84
1614.05
1612.2
1610.39
1608.52
1606.71
1604.81
1602.86
1600.83
1598.69
1596.44
1594.09
1591.37
1588.17
1584.93
1576.98
1567.95
1013
1036.54
1058.49
1077.71
1094.33
1108.45
1121.02
1132.62
1142.71
1152.2
1161.03
1169.41
1177.5
1185.59
1193.54
1201.26
1208.82
1216.34
1223.79
1231.23
1238.61
1245.93
1253.24
1260.49
1267.66
1274.9
1282.56
1290.32
1298.15
1305.8
1313.74
1321.78
1329.78
1337.78
1345.91
1354.15
1362.52
1371
1379.48
1387.85
1396.05
1404.18
1412.55
1421.12
1429.63
1437.9
1445.6
1453.25
1461.77
1469.8
1477.92
1486.05
1493.96
1501.78
1509.47
1517.02
1524.46
1531.89
1539.37
1546.68
1553.79
1560.98
1568.17
1575.29
1582.11
1588.55
1595.27
1602.33
1609.25
1615.68
1622.79
1629.46
1636.03
1642.62
1649.23
1655.86
1662.54
1669.26
1676
1682.73
1689.45
1696.13
1702.79
1709.4
1715.92
1722.3
1728.53
1734.69
1740.85
1746.95
1752.89
1758.8
1764.37
1770.27
1775.56
1780.68
1785.53
1790.02
1794.15
1797.98
1801.64
1805.22
1808.74
1812.14
1815.35
1818.5
1821.62
1824.72
1827.72
1830.53
1833.28
1836.07
1838.73
1841.41
1844.03
1846.83
1849.48
1852.1
1854.7
1857.27
1859.81
1862.3
1864.71
1867.04
1869.27
1871.4
1873.45
1875.4
1877.21
1878.88
1880.38
1881.73
1882.87
1883.92
1884.9
1885.7
1886.37
1886.94
1887.41
1887.79
1888.1
1888.33
1888.52
1888.66
1888.76
1888.83
1888.87
1888.89
1888.87
1888.83
1888.76
1888.65
1888.5
1888.31
1888.08
1887.79
1887.47
1887.09
1886.69
1886.23
1885.77
1885.3
1884.81
1884.33
1883.85
1883.36
1882.88
1882.38
1881.88
1881.32
1880.7
1879.97
1879.1
1878.06
1876.82
1875.17
1872.92
1870.36
1864.43
1854.8
1021.61
1058.91
1092.13
1119.16
1140.97
1158.96
1174.54
1188.78
1201.43
1213.29
1224.42
1235.03
1245.28
1255.37
1265.47
1275.33
1285
1294.47
1304.07
1313.57
1323.01
1332.37
1341.66
1350.85
1359.93
1369
1378.37
1387.91
1397.38
1406.71
1415.92
1425.56
1435.04
1444.5
1454
1463.57
1473.15
1482.66
1492.04
1501.28
1510.43
1519.58
1528.83
1538.17
1547.45
1556.46
1564.97
1573.41
1582.39
1591.03
1599.25
1608.19
1616.58
1624.71
1632.68
1640.5
1648.2
1655.83
1663.37
1670.75
1677.98
1685.17
1692.31
1699.31
1706.04
1712.53
1719.16
1725.98
1732.78
1738.98
1745.97
1752.46
1758.83
1765.2
1771.6
1778.03
1784.49
1790.98
1797.47
1803.95
1810.4
1816.82
1823.19
1829.5
1835.7
1841.76
1847.69
1853.53
1859.36
1865.13
1870.75
1876.27
1881.52
1887
1892.02
1896.82
1901.44
1905.82
1909.92
1913.62
1917.07
1920.52
1923.89
1927.13
1930.24
1933.27
1936.24
1939.17
1941.99
1944.69
1947.3
1949.9
1952.43
1954.93
1957.37
1959.98
1962.46
1964.89
1967.3
1969.68
1972.04
1974.35
1976.59
1978.75
1980.84
1982.85
1984.77
1986.61
1988.33
1989.92
1991.38
1992.69
1993.83
1994.87
1995.87
1996.71
1997.43
1998.07
1998.65
1999.16
1999.6
1999.99
2000.33
2000.63
2000.9
2001.14
2001.37
2001.6
2001.82
2002.03
2002.24
2002.43
2002.61
2002.77
2002.91
2003.04
2003.16
2003.27
2003.38
2003.51
2003.66
2003.84
2004.06
2004.33
2004.63
2004.99
2005.36
2005.75
2006.13
2006.51
2006.86
2007.13
2007.25
2007.21
2006.97
2006.33
2005.15
2003.45
1999.71
1993.26
1030.14
1080.09
1122.4
1154.77
1179.62
1199.78
1216.96
1232.59
1246.7
1259.95
1272.45
1284.42
1295.99
1307.34
1318.68
1329.87
1340.89
1351.65
1362.6
1373.42
1384.13
1394.75
1405.26
1415.63
1425.87
1436.05
1446.42
1456.92
1467.31
1477.57
1487.43
1497.84
1508.05
1518.19
1528.25
1538.3
1548.27
1558.11
1567.79
1577.33
1586.79
1596.22
1605.65
1615.07
1624.39
1633.47
1642.16
1650.71
1659.43
1667.99
1676.23
1684.66
1693.01
1700.94
1708.71
1716.33
1723.82
1731.19
1738.45
1745.56
1752.54
1759.45
1766.28
1772.98
1779.45
1785.75
1792.1
1798.57
1805.06
1811.01
1817.72
1823.95
1830.07
1836.2
1842.35
1848.53
1854.74
1860.97
1867.2
1873.42
1879.62
1885.78
1891.9
1897.95
1903.9
1909.73
1915.43
1921.05
1926.63
1932.16
1937.58
1942.89
1948.01
1953.19
1958.12
1962.71
1967.12
1971.36
1975.54
1979.42
1982.97
1986.51
1989.92
1993.2
1996.37
1999.46
2002.49
2005.46
2008.33
2011.1
2013.79
2016.44
2019.03
2021.58
2024.07
2026.72
2029.24
2031.72
2034.16
2036.58
2038.96
2041.31
2043.59
2045.8
2047.94
2050
2051.99
2053.88
2055.68
2057.35
2058.91
2060.33
2061.59
2062.74
2063.86
2064.85
2065.72
2066.51
2067.24
2067.91
2068.52
2069.08
2069.6
2070.09
2070.55
2070.99
2071.42
2071.84
2072.26
2072.67
2073.09
2073.49
2073.89
2074.27
2074.64
2075
2075.36
2075.72
2076.08
2076.49
2076.92
2077.4
2077.94
2078.55
2079.22
2079.96
2080.75
2081.57
2082.38
2083.24
2084.13
2084.96
2085.67
2086.24
2086.6
2086.59
2086.15
2085.12
2082.8
2078.95
1038.37
1099.71
1149.28
1185.44
1212.34
1234.02
1252.38
1269.04
1284.19
1298.46
1311.93
1324.85
1337.34
1349.58
1361.75
1373.85
1385.78
1397.46
1409.16
1420.89
1432.4
1443.78
1455.01
1466.09
1477
1487.82
1498.73
1509.7
1520.54
1531.26
1541.47
1552.08
1562.64
1573.02
1583.24
1593.39
1603.42
1613.29
1623
1632.59
1642.06
1651.45
1660.78
1670.04
1679.16
1688.03
1696.61
1704.99
1713.38
1721.68
1729.77
1737.72
1745.98
1753.64
1761.11
1768.44
1775.62
1782.68
1789.61
1796.42
1803.12
1809.73
1816.26
1822.66
1828.89
1834.98
1841.08
1847.28
1853.52
1859.28
1865.74
1871.8
1877.75
1883.7
1889.7
1895.74
1901.8
1907.88
1913.96
1920.05
1926.12
1932.17
1938.17
1944.11
1949.97
1955.71
1961.35
1966.9
1972.41
1977.85
1983.21
1988.46
1993.58
1998.66
2003.64
2008.26
2012.71
2016.95
2020.95
2024.8
2028.67
2032.34
2035.86
2039.26
2042.55
2045.77
2048.92
2052
2055.01
2057.93
2060.77
2063.57
2066.31
2069.02
2071.65
2074.46
2077.13
2079.75
2082.34
2084.89
2087.42
2089.9
2092.31
2094.66
2096.93
2099.13
2101.24
2103.27
2105.18
2106.99
2108.66
2110.21
2111.61
2112.88
2114.13
2115.24
2116.24
2117.16
2118.01
2118.81
2119.55
2120.26
2120.94
2121.59
2122.23
2122.84
2123.45
2124.05
2124.65
2125.25
2125.84
2126.42
2127
2127.56
2128.09
2128.61
2129.12
2129.64
2130.13
2130.69
2131.27
2131.9
2132.59
2133.35
2134.19
2135.11
2136.1
2137.16
2138.2
2139.34
2140.55
2141.76
2142.86
2143.84
2144.63
2145.13
2145.19
2144.73
2143.41
2141.35
1046.11
1117.54
1172.97
1212.01
1240.48
1263.37
1282.77
1300.34
1316.33
1331.43
1345.68
1359.34
1372.53
1385.44
1398.24
1410.98
1423.55
1435.87
1448.05
1460.37
1472.37
1484.19
1495.83
1507.29
1518.55
1529.69
1540.84
1551.99
1563.02
1573.89
1584.25
1594.79
1605.45
1615.83
1626.02
1636.1
1646.03
1655.8
1665.4
1674.83
1684.17
1693.41
1702.56
1711.6
1720.5
1729.19
1737.59
1745.76
1753.84
1761.85
1769.75
1777.3
1785.34
1792.74
1799.94
1806.99
1813.91
1820.69
1827.35
1833.9
1840.34
1846.7
1852.98
1859.15
1865.17
1871.09
1877.01
1883.01
1889.06
1894.7
1900.97
1906.92
1912.77
1918.64
1924.56
1930.53
1936.52
1942.54
1948.58
1954.63
1960.66
1966.69
1972.67
1978.6
1984.46
1990.22
1995.88
2001.46
2006.97
2012.43
2017.8
2023.07
2028.23
2033.28
2038.31
2042.94
2047.38
2051.65
2055.67
2059.77
2063.75
2067.56
2071.21
2074.73
2078.16
2081.51
2084.79
2088.02
2091.19
2094.28
2097.32
2100.31
2103.25
2106.17
2109.03
2112.03
2114.92
2117.76
2120.56
2123.33
2126.06
2128.74
2131.35
2133.89
2136.35
2138.73
2141.01
2143.19
2145.26
2147.2
2149
2150.67
2152.19
2153.58
2154.91
2156.11
2157.2
2158.21
2159.15
2160.03
2160.87
2161.68
2162.48
2163.27
2164.05
2164.83
2165.6
2166.38
2167.15
2167.93
2168.69
2169.44
2170.2
2170.92
2171.6
2172.26
2172.89
2173.51
2174.09
2174.74
2175.4
2176.09
2176.84
2177.67
2178.57
2179.57
2180.65
2181.83
2182.99
2184.3
2185.73
2187.19
2188.58
2189.87
2191.02
2191.91
2192.44
2192.42
2191.86
2191.06
1053.24
1133.42
1193.7
1235.09
1264.89
1288.81
1309.15
1327.51
1344.2
1360.02
1374.91
1389.16
1402.92
1416.36
1429.65
1442.85
1455.87
1468.64
1481.11
1493.81
1506.09
1518.16
1530.01
1541.65
1553.07
1564.33
1575.54
1586.71
1597.73
1608.59
1618.97
1629.37
1639.95
1650.22
1660.24
1670.16
1679.94
1689.56
1699.02
1708.33
1717.5
1726.55
1735.49
1744.31
1752.98
1761.45
1769.65
1777.62
1785.45
1793.21
1800.89
1808.13
1815.96
1823.15
1830.13
1836.95
1843.64
1850.2
1856.63
1862.96
1869.19
1875.35
1881.42
1887.4
1893.26
1899.04
1904.81
1910.67
1916.59
1922.18
1928.31
1934.19
1940
1945.84
1951.74
1957.7
1963.69
1969.71
1975.76
1981.83
1987.9
1993.96
1999.99
2005.98
2011.9
2017.74
2023.48
2029.13
2034.7
2040.21
2045.64
2050.97
2056.19
2061.23
2066.3
2070.95
2075.4
2079.73
2084.04
2088.24
2092.3
2096.2
2099.96
2103.59
2107.13
2110.6
2114.01
2117.38
2120.7
2123.97
2127.2
2130.4
2133.57
2136.74
2139.86
2143.11
2146.27
2149.37
2152.45
2155.49
2158.49
2161.43
2164.3
2167.09
2169.79
2172.39
2174.88
2177.25
2179.49
2181.58
2183.53
2185.31
2186.94
2188.42
2189.82
2191.07
2192.22
2193.27
2194.25
2195.18
2196.07
2196.95
2197.83
2198.71
2199.61
2200.53
2201.46
2202.39
2203.33
2204.29
2205.22
2206.15
2207.1
2207.99
2208.82
2209.61
2210.35
2211.07
2211.71
2212.41
2213.12
2213.84
2214.6
2215.43
2216.34
2217.35
2218.45
2219.67
2220.89
2222.28
2223.85
2225.5
2227.09
2228.64
2230.08
2231.32
2232.25
2232.66
2232.67
2232.79
1059.65
1147.34
1211.78
1255.2
1286.19
1310.99
1332.18
1351.23
1368.52
1384.93
1400.35
1415.08
1429.29
1443.15
1456.81
1470.34
1483.69
1496.76
1509.4
1522.33
1534.76
1546.94
1558.88
1570.57
1582.02
1593.29
1604.46
1615.54
1626.48
1637.22
1647.49
1657.7
1668.15
1678.28
1688.17
1697.93
1707.54
1716.99
1726.28
1735.42
1744.41
1753.28
1762.02
1770.64
1779.11
1787.39
1795.42
1803.23
1810.88
1818.42
1825.89
1832.9
1840.54
1847.56
1854.35
1860.99
1867.49
1873.85
1880.1
1886.24
1892.29
1898.27
1904.18
1910.01
1915.74
1921.4
1927.07
1932.83
1938.65
1944.22
1950.25
1956.1
1961.91
1967.77
1973.7
1979.69
1985.73
1991.81
1997.92
2004.05
2010.2
2016.35
2022.48
2028.57
2034.61
2040.56
2046.41
2052.17
2057.85
2063.45
2068.96
2074.37
2079.66
2084.75
2089.9
2094.68
2099.27
2103.73
2108.08
2112.32
2116.43
2120.38
2124.2
2127.9
2131.52
2135.07
2138.58
2142.05
2145.49
2148.91
2152.32
2155.72
2159.12
2162.53
2165.96
2169.47
2172.93
2176.36
2179.76
2183.13
2186.45
2189.72
2192.91
2196.01
2199
2201.88
2204.63
2207.24
2209.69
2211.98
2214.08
2216
2217.74
2219.31
2220.77
2222.03
2223.21
2224.28
2225.26
2226.19
2227.09
2227.98
2228.89
2229.83
2230.81
2231.82
2232.88
2233.96
2235.06
2236.19
2237.28
2238.39
2239.55
2240.62
2241.62
2242.55
2243.41
2244.23
2244.94
2245.68
2246.43
2247.15
2247.9
2248.7
2249.58
2250.55
2251.62
2252.82
2254.04
2255.46
2257.12
2258.87
2260.62
2262.37
2264.06
2265.6
2266.89
2267.69
2268.17
2268.98
1065.29
1159.38
1227.48
1272.75
1304.83
1330.4
1352.34
1371.98
1389.76
1406.64
1422.48
1437.61
1452.17
1466.35
1480.28
1494.05
1507.61
1520.87
1533.69
1546.57
1559.15
1571.36
1583.31
1594.97
1606.38
1617.56
1628.6
1639.54
1650.35
1660.97
1671.17
1681.18
1691.48
1701.45
1711.17
1720.76
1730.22
1739.52
1748.65
1757.64
1766.48
1775.19
1783.78
1792.24
1800.55
1808.68
1816.59
1824.27
1831.78
1839.15
1846.45
1853.4
1860.64
1867.63
1874.27
1880.74
1887.06
1893.25
1899.32
1905.29
1911.18
1917
1922.76
1928.44
1934.05
1939.61
1945.2
1950.88
1956.66
1962.25
1968.2
1974.05
1979.9
1985.82
1991.82
1997.89
2004.01
2010.19
2016.4
2022.65
2028.92
2035.2
2041.47
2047.71
2053.9
2060.01
2066.02
2071.93
2077.73
2083.46
2089.09
2094.62
2100.04
2105.24
2110.5
2115.4
2120.1
2124.65
2129.05
2133.32
2137.44
2141.41
2145.25
2148.97
2152.61
2156.19
2159.74
2163.26
2166.77
2170.29
2173.82
2177.38
2180.97
2184.61
2188.34
2192.1
2195.87
2199.64
2203.41
2207.15
2210.86
2214.52
2218.1
2221.58
2224.95
2228.18
2231.26
2234.18
2236.9
2239.42
2241.73
2243.82
2245.69
2247.37
2248.88
2250.16
2251.35
2252.4
2253.35
2254.24
2255.09
2255.94
2256.83
2257.77
2258.77
2259.85
2260.99
2262.19
2263.43
2264.73
2265.97
2267.26
2268.63
2269.91
2271.09
2272.18
2273.19
2274.11
2274.9
2275.69
2276.48
2277.21
2277.94
2278.69
2279.51
2280.41
2281.41
2282.56
2283.72
2285.14
2286.82
2288.63
2290.48
2292.38
2294.27
2296.07
2297.69
2298.84
2299.7
2301.06
1070.18
1169.66
1241.07
1288.06
1321.16
1347.38
1370
1390.1
1408.27
1425.5
1441.68
1457.1
1471.94
1486.35
1500.47
1514.39
1528.08
1541.44
1554.36
1567.18
1579.82
1591.99
1603.84
1615.44
1626.77
1637.87
1648.82
1659.63
1670.31
1680.78
1690.87
1700.7
1710.85
1720.67
1730.25
1739.72
1749.05
1758.23
1767.26
1776.14
1784.88
1793.49
1801.97
1810.33
1818.54
1826.57
1834.4
1842
1849.41
1856.66
1863.83
1870.75
1877.68
1884.61
1891.11
1897.42
1903.58
1909.59
1915.47
1921.25
1926.95
1932.58
1938.15
1943.68
1949.16
1954.62
1960.12
1965.73
1971.48
1977.13
1983.04
1988.91
1994.83
2000.85
2006.95
2013.14
2019.39
2025.71
2032.07
2038.48
2044.92
2051.38
2057.83
2064.27
2070.65
2076.95
2083.16
2089.26
2095.26
2101.17
2106.99
2112.69
2118.27
2123.65
2128.98
2134.03
2138.85
2143.47
2147.93
2152.21
2156.33
2160.28
2164.09
2167.79
2171.39
2174.93
2178.43
2181.93
2185.43
2188.95
2192.52
2196.17
2199.89
2203.71
2207.67
2211.63
2215.67
2219.81
2223.95
2228.1
2232.23
2236.33
2240.36
2244.3
2248.13
2251.8
2255.3
2258.61
2261.7
2264.55
2267.13
2269.45
2271.51
2273.32
2274.92
2276.22
2277.43
2278.45
2279.34
2280.13
2280.9
2281.66
2282.46
2283.33
2284.3
2285.37
2286.55
2287.83
2289.18
2290.61
2291.99
2293.46
2295.06
2296.54
2297.93
2299.21
2300.38
2301.44
2302.32
2303.17
2304.02
2304.77
2305.48
2306.19
2306.93
2307.75
2308.66
2309.71
2310.79
2312.15
2313.8
2315.62
2317.52
2319.52
2321.56
2323.58
2325.49
2326.97
2328.14
2329.93
1074.34
1178.34
1252.76
1301.38
1335.44
1362.22
1385.38
1405.82
1424.29
1441.78
1458.2
1473.83
1488.85
1503.42
1517.66
1531.67
1545.42
1558.84
1571.83
1584.51
1597.13
1609.26
1621.09
1632.61
1643.86
1654.87
1665.7
1676.39
1686.96
1697.32
1707.32
1717.02
1727.05
1736.77
1746.28
1755.67
1764.93
1774.07
1783.05
1791.9
1800.61
1809.2
1817.65
1825.98
1834.17
1842.19
1850.01
1857.59
1864.96
1872.16
1879.26
1886.15
1892.88
1899.72
1906.1
1912.26
1918.23
1924.03
1929.69
1935.23
1940.65
1946.01
1951.32
1956.61
1961.87
1967.15
1972.52
1978.04
1983.73
1989.43
1995.29
2001.23
2007.26
2013.41
2019.66
2026
2032.43
2038.93
2045.49
2052.11
2058.77
2065.45
2072.15
2078.82
2085.45
2092.03
2098.52
2104.9
2111.16
2117.3
2123.34
2129.27
2135.06
2140.67
2146.13
2151.35
2156.3
2161.02
2165.53
2169.84
2173.93
2177.85
2181.59
2185.19
2188.7
2192.12
2195.51
2198.87
2202.25
2205.67
2209.17
2212.79
2216.55
2220.45
2224.53
2228.57
2232.83
2237.29
2241.77
2246.3
2250.87
2255.44
2259.98
2264.45
2268.8
2273.01
2277.04
2280.86
2284.42
2287.7
2290.67
2293.31
2295.64
2297.65
2299.38
2300.75
2301.99
2303
2303.81
2304.5
2305.13
2305.75
2306.4
2307.14
2307.99
2308.99
2310.14
2311.43
2312.84
2314.38
2315.85
2317.48
2319.31
2321.01
2322.62
2324.11
2325.47
2326.7
2327.7
2328.63
2329.56
2330.35
2331.06
2331.73
2332.41
2333.13
2333.93
2334.86
2335.82
2337.1
2338.67
2340.43
2342.33
2344.38
2346.53
2348.72
2350.87
2352.64
2354.06
2356.22
1077.84
1185.55
1262.72
1312.86
1347.79
1375.06
1398.64
1419.31
1437.98
1455.64
1472.22
1487.97
1503.12
1517.78
1532.09
1546.13
1559.9
1573.34
1586.33
1598.92
1611.56
1623.66
1635.42
1646.9
1658.08
1669.03
1679.78
1690.41
1700.91
1711.22
1721.19
1730.85
1740.82
1750.52
1760.03
1769.44
1778.74
1787.92
1796.97
1805.89
1814.68
1823.36
1831.91
1840.34
1848.63
1856.76
1864.68
1872.36
1879.8
1887.04
1894.16
1901.08
1907.73
1914.5
1920.75
1926.74
1932.49
1938.03
1943.39
1948.58
1953.63
1958.59
1963.49
1968.36
1973.21
1978.1
1983.15
1988.44
1993.96
1999.62
2005.36
2011.38
2017.56
2023.86
2030.29
2036.85
2043.5
2050.24
2057.06
2063.94
2070.87
2077.84
2084.83
2091.83
2098.8
2105.73
2112.57
2119.3
2125.9
2132.37
2138.72
2144.95
2151.04
2156.94
2162.61
2168.04
2173.17
2178.03
2182.63
2186.96
2191.05
2194.9
2198.55
2202.02
2205.35
2208.58
2211.74
2214.88
2218.03
2221.22
2224.51
2227.97
2231.61
2235.43
2239.49
2243.48
2247.82
2252.49
2257.23
2262.08
2267.04
2272.07
2277.12
2282.14
2287.1
2291.93
2296.59
2301.02
2305.19
2309.04
2312.53
2315.63
2318.34
2320.67
2322.62
2324.1
2325.44
2326.48
2327.24
2327.81
2328.28
2328.71
2329.16
2329.69
2330.35
2331.19
2332.22
2333.45
2334.85
2336.44
2337.97
2339.73
2341.76
2343.69
2345.52
2347.24
2348.83
2350.25
2351.4
2352.43
2353.47
2354.33
2355.06
2355.72
2356.34
2356.97
2357.65
2358.44
2359.26
2360.43
2361.88
2363.53
2365.37
2367.42
2369.62
2371.93
2374.28
2376.3
2377.91
2380.36
1080.74
1191.41
1271.07
1322.59
1358.29
1385.98
1409.87
1430.63
1449.44
1467.18
1483.84
1499.67
1514.88
1529.6
1543.93
1557.98
1571.75
1585.2
1598.23
1610.76
1623.41
1635.49
1647.25
1658.71
1669.9
1680.84
1691.6
1702.24
1712.77
1723.11
1733.15
1742.88
1752.9
1762.7
1772.34
1781.89
1791.36
1800.73
1810
1819.15
1828.2
1837.14
1845.97
1854.69
1863.29
1871.74
1879.98
1887.97
1895.69
1903.17
1910.5
1917.61
1924.32
1931.1
1937.27
1943.05
1948.47
1953.57
1958.35
1962.86
1967.19
1971.42
1975.62
1979.88
1984.22
1988.56
1993.07
1997.84
2002.93
2008.28
2013.72
2019.69
2025.99
2032.44
2039.08
2045.88
2052.82
2059.86
2067.01
2074.23
2081.51
2088.85
2096.24
2103.64
2111.04
2118.4
2125.68
2132.86
2139.91
2146.82
2153.6
2160.24
2166.74
2173.04
2179.04
2184.74
2190.13
2195.2
2199.94
2204.35
2208.44
2212.23
2215.75
2219.05
2222.15
2225.11
2227.98
2230.78
2233.58
2236.42
2239.35
2242.49
2245.83
2249.38
2253.22
2256.97
2261.21
2265.92
2270.75
2275.79
2281.02
2286.42
2291.93
2297.49
2303.06
2308.56
2313.93
2319.11
2324.02
2328.59
2332.77
2336.49
2339.75
2342.53
2344.84
2346.53
2348.07
2349.22
2349.97
2350.45
2350.76
2350.98
2351.18
2351.44
2351.83
2352.41
2353.23
2354.3
2355.62
2357.18
2358.7
2360.53
2362.74
2364.86
2366.93
2368.89
2370.72
2372.37
2373.7
2374.84
2376.03
2376.98
2377.77
2378.44
2379.02
2379.58
2380.15
2380.78
2381.45
2382.48
2383.76
2385.27
2387
2388.98
2391.18
2393.55
2396.04
2398.29
2400.02
2402.69
1083.12
1196.05
1277.84
1330.54
1366.91
1394.98
1419.07
1439.81
1458.71
1476.45
1493.14
1509.01
1524.26
1539
1553.34
1567.4
1581.21
1594.69
1607.76
1620.27
1632.95
1645.08
1656.9
1668.43
1679.7
1690.74
1701.62
1712.4
1723.09
1733.59
1743.83
1753.79
1764.04
1774.1
1784.04
1793.93
1803.77
1813.53
1823.23
1832.84
1842.39
1851.86
1861.24
1870.56
1879.77
1888.85
1897.75
1906.41
1914.79
1922.9
1930.81
1938.5
1945.64
1952.77
1959.17
1965.01
1970.31
1975.08
1979.28
1982.96
1986.21
1989.13
1991.83
1994.42
1997.08
2000.05
2003.38
2007.17
2011.57
2016.33
2021.15
2026.74
2032.92
2039.41
2046.19
2053.24
2060.5
2067.91
2075.46
2083.11
2090.86
2098.67
2106.54
2114.45
2122.37
2130.29
2138.15
2145.92
2153.56
2161.06
2168.41
2175.62
2182.67
2189.5
2196
2202.06
2207.84
2213.22
2218.19
2222.73
2226.87
2230.62
2234.01
2237.1
2239.94
2242.57
2245.05
2247.43
2249.76
2252.11
2254.55
2257.18
2260.03
2263.11
2266.49
2269.81
2273.71
2278.2
2282.9
2287.9
2293.21
2298.81
2304.64
2310.65
2316.78
2322.93
2329.05
2335.03
2340.8
2346.25
2351.29
2355.84
2359.84
2363.27
2366.11
2368.14
2370.01
2371.41
2372.27
2372.72
2372.9
2372.91
2372.85
2372.79
2372.83
2373.07
2373.57
2374.37
2375.5
2376.95
2378.39
2380.22
2382.53
2384.82
2387.09
2389.3
2391.38
2393.28
2394.82
2396.09
2397.45
2398.53
2399.41
2400.12
2400.7
2401.2
2401.67
2402.16
2402.68
2403.54
2404.62
2405.94
2407.51
2409.37
2411.51
2413.88
2416.45
2418.87
2420.69
2423.51
1085.05
1199.54
1283.1
1336.75
1373.66
1402.02
1426.12
1446.71
1465.8
1483.46
1500.17
1516.05
1531.32
1546.08
1560.45
1574.53
1588.38
1601.92
1615.06
1627.63
1640.36
1652.62
1664.58
1676.28
1687.75
1699.02
1710.15
1721.26
1732.29
1743.12
1753.77
1764.19
1774.9
1785.46
1795.96
1806.43
1816.88
1827.32
1837.72
1848.09
1858.43
1868.74
1879.05
1889.35
1899.63
1909.86
1920
1929.91
1939.54
1948.89
1958.04
1966.96
1975.18
1983.31
1990.5
1996.9
2002.47
2007.15
2010.85
2013.62
2015.53
2016.7
2017.33
2017.63
2017.84
2018.18
2018.89
2020.15
2022.15
2025.21
2028.77
2033.47
2039.06
2045.2
2051.89
2059.07
2066.61
2074.42
2082.44
2090.61
2098.91
2107.31
2115.79
2124.34
2132.93
2141.54
2150.13
2158.67
2167.1
2175.37
2183.49
2191.47
2199.28
2206.85
2214.04
2220.61
2226.93
2232.78
2238.1
2242.88
2247.14
2250.88
2254.16
2257.03
2259.55
2261.79
2263.81
2265.68
2267.45
2269.2
2271
2272.96
2275.12
2277.51
2280.2
2282.87
2286.16
2290.14
2294.39
2299.08
2304.19
2309.73
2315.66
2321.91
2328.43
2335.13
2341.94
2348.73
2355.41
2361.86
2367.93
2373.51
2378.49
2382.8
2386.37
2388.94
2391.3
2393.16
2394.28
2394.83
2394.96
2394.81
2394.49
2394.08
2393.73
2393.56
2393.64
2394.04
2394.85
2396.07
2397.36
2399.11
2401.43
2403.81
2406.25
2408.68
2411.02
2413.2
2414.98
2416.37
2417.92
2419.16
2420.17
2420.96
2421.56
2422.03
2422.43
2422.79
2423.17
2423.83
2424.69
2425.78
2427.15
2428.84
2430.85
2433.17
2435.75
2438.3
2440.14
2443.04
1086.6
1201.97
1286.9
1341.23
1378.4
1406.95
1430.85
1451.43
1470.52
1488.19
1504.9
1520.82
1536.12
1550.91
1565.31
1579.42
1593.31
1606.94
1620.17
1632.9
1645.59
1658.09
1670.26
1682.24
1694.02
1705.64
1717.2
1728.81
1740.41
1751.83
1763.12
1774.28
1785.73
1797.13
1808.48
1819.85
1831.24
1842.64
1854.08
1865.56
1877.09
1888.67
1900.31
1912.04
1923.87
1935.77
1947.7
1959.52
1971.11
1982.46
1993.66
2004.71
2014.95
2024.98
2033.94
2041.82
2048.54
2053.86
2057.67
2059.89
2060.63
2059.93
2058
2055.18
2051.82
2048.26
2044.88
2042
2040.02
2039.36
2040.02
2042.08
2045.81
2050.78
2056.81
2063.73
2071.32
2079.42
2087.89
2096.63
2105.58
2114.68
2123.91
2133.24
2142.66
2152.15
2161.67
2171.17
2180.61
2189.92
2199.06
2208.06
2216.91
2225.47
2233.64
2240.91
2248
2254.53
2260.39
2265.57
2270.05
2273.86
2277.06
2279.7
2281.87
2283.66
2285.15
2286.41
2287.53
2288.57
2289.61
2290.75
2292.04
2293.54
2295.32
2297.14
2299.56
2302.67
2306.15
2310.17
2314.74
2319.88
2325.57
2331.76
2338.4
2345.43
2352.74
2360.24
2367.79
2375.26
2382.48
2389.27
2395.46
2400.93
2405.48
2408.79
2411.81
2414.4
2416.03
2416.87
2417.09
2416.91
2416.38
2415.63
2414.86
2414.18
2413.75
2413.7
2414.06
2414.9
2415.97
2417.52
2419.73
2422.12
2424.65
2427.27
2429.85
2432.31
2434.37
2435.88
2437.61
2439.03
2440.19
2441.09
2441.76
2442.24
2442.59
2442.84
2443.09
2443.56
2444.18
2445.02
2446.15
2447.61
2449.44
2451.63
2454.16
2456.78
2458.61
2461.49
1087.86
1203.37
1289.13
1343.78
1380.99
1409.58
1433.22
1453.88
1472.91
1490.61
1507.36
1523.32
1538.66
1553.49
1567.91
1582.05
1595.98
1609.68
1622.99
1635.83
1648.52
1661.22
1673.6
1685.84
1697.95
1709.99
1722.06
1734.32
1746.69
1758.93
1771.11
1783.33
1795.79
1808.42
1821
1833.62
1846.3
1859.05
1871.89
1884.81
1897.84
1910.99
1924.29
1937.78
1951.48
1965.41
1979.51
1993.64
2007.63
2021.45
2035.23
2049.03
2062.01
2074.63
2086.32
2096.85
2106.13
2113.74
2119.34
2122.65
2123.86
2122.57
2118.9
2113.19
2105.9
2097.54
2088.65
2079.7
2071.15
2064.03
2059.92
2057.15
2056.64
2058.33
2062.45
2068.16
2075.17
2083.16
2091.86
2101.08
2110.69
2120.58
2130.68
2140.95
2151.36
2161.91
2172.56
2183.28
2193.99
2204.61
2215.09
2225.44
2235.65
2245.55
2255.01
2263.22
2271.41
2278.91
2285.59
2291.4
2296.31
2300.33
2303.52
2305.97
2307.78
2309.07
2309.94
2310.5
2310.86
2311.1
2311.28
2311.47
2311.74
2312.17
2312.84
2313.69
2314.98
2316.87
2319.23
2322.19
2325.85
2330.18
2335.22
2340.95
2347.34
2354.33
2361.84
2369.78
2378.03
2386.43
2394.79
2402.89
2410.49
2417.39
2423.2
2427.48
2431.29
2434.93
2437.37
2438.79
2439.33
2439.27
2438.68
2437.68
2436.51
2435.31
2434.28
2433.62
2433.48
2433.83
2434.57
2435.79
2437.74
2440.01
2442.55
2445.28
2448.07
2450.8
2453.17
2454.81
2456.7
2458.28
2459.62
2460.67
2461.43
2461.95
2462.29
2462.47
2462.62
2462.88
2463.26
2463.84
2464.69
2465.88
2467.46
2469.46
2471.88
2474.51
2476.29
2479.07
1089.01
1203.91
1289.77
1344.33
1381.38
1409.88
1433.24
1453.97
1472.99
1490.77
1507.58
1523.6
1539.01
1553.89
1568.35
1582.51
1596.48
1610.21
1623.56
1636.43
1649.01
1661.76
1674.18
1686.5
1698.76
1711.01
1723.41
1736.18
1749.21
1762.29
1775.49
1788.91
1802.57
1816.86
1831.05
1845.29
1859.63
1874.07
1888.61
1903.26
1918.03
1932.94
1948.03
1963.33
1978.89
1994.74
2010.81
2026.95
2042.93
2058.64
2074.19
2089.71
2104.45
2118.47
2131.81
2144.38
2156.33
2167.93
2178.95
2188.42
2194.77
2197.38
2195.93
2190.89
2182.41
2170.88
2156.87
2141.01
2123.77
2107.04
2095.82
2084.61
2076.22
2072.37
2072.09
2074.41
2079.55
2086.44
2094.74
2104.06
2114.13
2124.74
2135.75
2147.06
2158.62
2170.41
2182.39
2194.53
2206.77
2219
2231.14
2243.17
2255.13
2266.74
2277.85
2287.22
2296.9