/*--------------------------------*- C++ -*----------------------------------*\
| =========                 |                                                 |
| \\      /  F ield         | OpenFOAM: The Open Source CFD Toolbox           |
|  \\    /   O peration     | Version:  2.3.0                                 |
|   \\  /    A nd           | Web:      www.OpenFOAM.org                      |
|    \\/     M anipulation  |                                                 |
\*---------------------------------------------------------------------------*/
FoamFile
{
    version     2.0;
    format      ascii;
    class       volVectorField;
    location    "0.08";
    object      U;
}
// * * * * * * * * * * * * * * * * * * * * * * * * * * * * * * * * * * * * * //

dimensions      [0 1 -1 0 0 0 0];

internalField   nonuniform List<vector> 
12225
(
(11.3569 0.076275 0)
(17.0033 0.0881736 0)
(13.8772 -0.0758762 0)
(12.9368 -0.0599093 0)
(12.8604 0.000168722 0)
(12.4612 0.0254249 0)
(11.5155 0.0691538 0)
(10.6873 0.0779165 0)
(9.99378 0.0520923 0)
(9.31574 0.0396182 0)
(8.70121 0.0382157 0)
(8.18286 0.0461452 0)
(7.74063 0.0452745 0)
(7.32526 0.0475435 0)
(6.90961 0.0541748 0)
(6.46358 0.0629852 0)
(5.96529 0.136734 0)
(4.89873 0.153622 0)
(12.8979 2.035 0)
(22.841 -0.122725 0)
(20.6197 -0.264208 0)
(20.1629 -0.181292 0)
(20.3943 -0.0149296 0)
(20.1937 0.0369921 0)
(19.4222 0.173091 0)
(18.4279 0.261328 0)
(17.662 0.229236 0)
(16.87 0.212748 0)
(16.0967 0.202201 0)
(15.3857 0.194076 0)
(14.7586 0.195912 0)
(14.198 0.20589 0)
(13.6425 0.209582 0)
(13.037 0.257006 0)
(12.4859 0.346324 0)
(11.4652 0.715841 0)
(12.9169 2.33361 0)
(23.7783 -0.39658 0)
(22.8131 -0.749233 0)
(23.1002 -0.656562 0)
(24.2203 -0.323337 0)
(24.8435 -0.100891 0)
(24.63 0.0807516 0)
(23.9798 0.295552 0)
(23.466 0.326908 0)
(22.871 0.344133 0)
(22.2244 0.364231 0)
(21.5979 0.354214 0)
(20.961 0.378581 0)
(20.3709 0.375506 0)
(19.7597 0.407192 0)
(19.1143 0.447486 0)
(18.5869 0.589113 0)
(17.7177 0.924108 0)
(12.6982 2.36008 0)
(22.644 -0.185214 0)
(22.3983 -0.988715 0)
(23.1106 -1.24202 0)
(24.8584 -0.797032 0)
(26.1453 -0.446405 0)
(26.4455 -0.077177 0)
(26.3317 0.196599 0)
(26.1954 0.31978 0)
(25.9758 0.360737 0)
(25.6358 0.413351 0)
(25.3054 0.453446 0)
(24.9359 0.501963 0)
(24.5679 0.503761 0)
(24.097 0.561705 0)
(23.5416 0.638174 0)
(23.1398 0.775794 0)
(22.5591 1.09437 0)
(12.411 2.06984 0)
(21.2309 0.0488338 0)
(21.2692 -0.595138 0)
(22.3391 -1.37072 0)
(24.5555 -1.32698 0)
(25.9371 -0.861072 0)
(26.5104 -0.368259 0)
(26.6953 0.00652261 0)
(26.8084 0.200864 0)
(26.7901 0.275606 0)
(26.6985 0.359082 0)
(26.6298 0.44368 0)
(26.5397 0.519534 0)
(26.4099 0.555229 0)
(26.2195 0.627406 0)
(25.918 0.72079 0)
(25.6662 0.911467 0)
(25.3853 1.19169 0)
(12.1798 1.78693 0)
(20.4882 0.169628 0)
(20.6825 -0.24552 0)
(21.842 -0.965937 0)
(24.1363 -1.38429 0)
(25.5276 -1.25331 0)
(26.1692 -0.653116 0)
(26.4517 -0.178969 0)
(26.6282 0.0811527 0)
(26.6791 0.176883 0)
(26.6902 0.281083 0)
(26.7176 0.368384 0)
(26.7423 0.463977 0)
(26.7578 0.523724 0)
(26.7208 0.620738 0)
(26.6163 0.734248 0)
(26.5104 0.918236 0)
(26.4444 1.15911 0)
(11.9467 1.43316 0)
(20.0786 0.102128 0)
(20.3219 -0.208732 0)
(21.5576 -0.259442 0)
(23.7618 -1.0453 0)
(25.122 -1.53447 0)
(25.8394 -0.950044 0)
(26.1516 -0.37408 0)
(26.3421 -0.0346343 0)
(26.4172 0.10656 0)
(26.446 0.209311 0)
(26.4785 0.27929 0)
(26.5203 0.377973 0)
(26.5652 0.473401 0)
(26.5845 0.582794 0)
(26.5638 0.709314 0)
(26.5441 0.883996 0)
(26.5609 1.09046 0)
(11.8086 1.09616 0)
(19.7903 0.00576382 0)
(20.1366 -0.234806 0)
(21.2815 0.0948932 0)
(23.3063 -0.778102 0)
(24.7498 -1.58824 0)
(25.6152 -1.15689 0)
(25.9483 -0.546678 0)
(26.1466 -0.132594 0)
(26.2329 0.0562119 0)
(26.259 0.159324 0)
(26.2756 0.224768 0)
(26.2996 0.31915 0)
(26.3289 0.423345 0)
(26.349 0.539906 0)
(26.3542 0.673368 0)
(26.3641 0.838338 0)
(26.411 1.01803 0)
(11.7278 0.897374 0)
(19.4845 -0.0949519 0)
(19.9088 -0.215214 0)
(21.0214 0.017279 0)
(22.9398 -0.609158 0)
(24.4285 -1.41051 0)
(25.4542 -1.30451 0)
(25.8232 -0.72675 0)
(26.0234 -0.237378 0)
(26.1084 0.00714137 0)
(26.1276 0.121591 0)
(26.128 0.190115 0)
(26.1297 0.277115 0)
(26.1382 0.381658 0)
(26.1476 0.502048 0)
(26.1556 0.635828 0)
(26.1673 0.789205 0)
(26.2182 0.94741 0)
(11.6668 0.657103 0)
(19.1784 -0.237181 0)
(19.6514 -0.174395 0)
(20.6776 0.0308697 0)
(22.43 -0.291292 0)
(24.1113 -0.739717 0)
(25.2748 -1.2745 0)
(25.7714 -0.88803 0)
(25.9768 -0.357366 0)
(26.035 -0.0503784 0)
(26.0319 0.0931285 0)
(26.0092 0.168011 0)
(25.984 0.24705 0)
(25.9672 0.347076 0)
(25.9583 0.465051 0)
(25.9586 0.593338 0)
(25.9657 0.733249 0)
(26.0097 0.870344 0)
(11.6469 0.377517 0)
(18.8004 -0.365707 0)
(19.3417 -0.293376 0)
(20.3839 0.129691 0)
(22.0086 -0.0601999 0)
(23.6609 -0.228373 0)
(24.864 -1.07972 0)
(25.7445 -0.980697 0)
(26.0318 -0.481412 0)
(26.0388 -0.108925 0)
(25.9863 0.0853679 0)
(25.9273 0.170159 0)
(25.8717 0.240372 0)
(25.8278 0.329853 0)
(25.7976 0.435403 0)
(25.7834 0.550154 0)
(25.7801 0.671268 0)
(25.8122 0.79047 0)
(11.6554 0.198734 0)
(18.4612 -0.353069 0)
(19.1569 -0.350169 0)
(20.0147 0.0887115 0)
(21.4147 0.0507817 0)
(23.1591 -0.0155911 0)
(24.5474 -0.636602 0)
(25.7558 -1.02785 0)
(26.16 -0.649948 0)
(26.0973 -0.177313 0)
(25.9618 0.0980211 0)
(25.8649 0.204556 0)
(25.7905 0.271567 0)
(25.7248 0.342361 0)
(25.6785 0.42192 0)
(25.6527 0.512112 0)
(25.6385 0.609396 0)
(25.6575 0.713095 0)
(11.6696 0.0935332 0)
(18.2418 -0.237079 0)
(18.9965 -0.422278 0)
(19.7364 -0.0881814 0)
(21.1529 0.0458924 0)
(22.8021 0.238287 0)
(24.0853 -0.194335 0)
(25.4015 -1.01439 0)
(26.182 -0.747365 0)
(26.1433 -0.251054 0)
(25.8922 0.0914912 0)
(25.7635 0.227095 0)
(25.7103 0.29999 0)
(25.6663 0.359556 0)
(25.626 0.413906 0)
(25.5967 0.476555 0)
(25.5734 0.548999 0)
(25.5762 0.634787 0)
(11.6705 0.122937 0)
(18.2472 0.0370292 0)
(18.8782 -0.543325 0)
(19.6163 -0.366341 0)
(20.956 -0.0953781 0)
(22.354 -0.108042 0)
(23.4481 -0.225638 0)
(24.8437 -0.563397 0)
(26.2175 -0.463302 0)
(26.2089 -0.129801 0)
(25.8659 0.134961 0)
(25.7196 0.24593 0)
(25.6925 0.311995 0)
(25.6806 0.367879 0)
(25.6551 0.412603 0)
(25.6293 0.460171 0)
(25.5997 0.515842 0)
(25.5865 0.583417 0)
(11.6668 -0.0297048 0)
(18.3776 0.298123 0)
(18.7209 -0.422456 0)
(19.6056 -0.4242 0)
(20.7333 -0.056868 0)
(21.8688 -0.134301 0)
(23.2532 -0.0578207 0)
(24.5807 0.0549809 0)
(26.0793 -0.215773 0)
(26.1628 0.0226883 0)
(25.9387 0.130285 0)
(25.7494 0.231649 0)
(25.7198 0.295832 0)
(25.7304 0.353699 0)
(25.7242 0.400647 0)
(25.7067 0.448036 0)
(25.6769 0.497977 0)
(25.6473 0.552899 0)
(11.7193 -0.0415436 0)
(18.8902 -0.0886731 0)
(18.9451 -0.158899 0)
(19.6842 -0.19015 0)
(20.7986 0.00964391 0)
(21.6986 0.0898194 0)
(23.0659 0.167078 0)
(24.1425 0.286481 0)
(25.685 -0.0549431 0)
(26.0985 0.0438426 0)
(25.9498 0.114482 0)
(25.7617 0.210848 0)
(25.7468 0.258479 0)
(25.7702 0.308184 0)
(25.7772 0.368062 0)
(25.7701 0.427026 0)
(25.7512 0.486603 0)
(25.7291 0.541207 0)
(11.6037 0.10906 0)
(18.523 -0.229073 0)
(18.8192 -0.12818 0)
(19.7129 -0.0614328 0)
(20.7984 0.0442607 0)
(21.7588 0.120004 0)
(23.1572 0.147687 0)
(23.9202 0.235309 0)
(25.3767 0.0310085 0)
(26.0768 0.020913 0)
(25.9493 0.052776 0)
(25.7623 0.135024 0)
(25.7538 0.182085 0)
(25.7919 0.239894 0)
(25.8161 0.316849 0)
(25.8181 0.390879 0)
(25.8074 0.455626 0)
(25.7936 0.511761 0)
(11.6556 -0.316498 0)
(18.431 0.0532557 0)
(18.6531 -0.0220792 0)
(19.6019 0.0771411 0)
(20.7778 0.182862 0)
(21.7341 0.17766 0)
(23.0462 0.0990226 0)
(23.8191 0.0313084 0)
(25.3984 0.0190574 0)
(26.2541 -0.0134534 0)
(26.1465 -0.0129043 0)
(25.9042 0.0512709 0)
(25.8557 0.101797 0)
(25.8657 0.161467 0)
(25.8671 0.237939 0)
(25.8589 0.312367 0)
(25.8524 0.377809 0)
(25.849 0.430833 0)
(12.1138 0.0588656 0)
(18.8857 -0.00503642 0)
(18.6873 0.0915944 0)
(19.6785 0.148529 0)
(20.7907 0.161556 0)
(21.8466 0.0400664 0)
(23.0836 -0.12726 0)
(23.992 -0.277079 0)
(25.6544 0.124786 0)
(26.3568 0.0773765 0)
(26.2242 0.0259209 0)
(25.9689 0.0400466 0)
(25.9245 0.0736613 0)
(25.933 0.120128 0)
(25.9294 0.189187 0)
(25.9134 0.25956 0)
(25.8979 0.319804 0)
(25.8851 0.365302 0)
(11.6135 0.304334 0)
(18.1504 -0.139215 0)
(18.5527 0.0777713 0)
(19.728 0.152613 0)
(20.8736 0.197995 0)
(21.8865 0.140136 0)
(23.1784 0.0739585 0)
(24.6928 0.0738131 0)
(26.497 0.375787 0)
(26.5126 0.194413 0)
(26.2748 0.0559258 0)
(26.03 0.0268455 0)
(25.9837 0.0507854 0)
(25.9761 0.0940479 0)
(25.9573 0.154455 0)
(25.937 0.216051 0)
(25.9225 0.266406 0)
(25.9135 0.30093 0)
(11.5165 -0.243977 0)
(18.0353 -0.143601 0)
(18.5511 0.0896911 0)
(19.9002 0.254084 0)
(21.131 0.305624 0)
(22.3577 0.368887 0)
(23.7659 0.602011 0)
(25.2977 0.904699 0)
(26.681 0.709446 0)
(26.6602 0.341186 0)
(26.284 0.113605 0)
(26.0652 0.0367024 0)
(26.0249 0.040511 0)
(26.0082 0.0649465 0)
(25.9955 0.11451 0)
(25.9861 0.16848 0)
(25.9825 0.210264 0)
(25.9825 0.235814 0)
(11.5641 -0.534805 0)
(18.0177 -0.260369 0)
(18.635 -0.0935932 0)
(20.1324 0.103042 0)
(21.4864 0.269336 0)
(23.0131 0.399558 0)
(24.5096 0.799463 0)
(25.8228 1.33044 0)
(26.6791 1.00401 0)
(26.6355 0.464104 0)
(26.2834 0.156126 0)
(26.1082 0.0337988 0)
(26.073 0.0158971 0)
(26.0659 0.0265375 0)
(26.076 0.0531366 0)
(26.0961 0.0887541 0)
(26.1228 0.11566 0)
(26.1519 0.132937 0)
(11.6211 -0.690978 0)
(18.2492 -0.44329 0)
(18.8053 -0.258249 0)
(20.3649 -0.064621 0)
(21.8742 0.203008 0)
(23.6186 0.313887 0)
(25.187 1.24173 0)
(26.2878 1.58604 0)
(26.6677 1.08131 0)
(26.5926 0.497998 0)
(26.384 0.16451 0)
(26.2498 0.0252426 0)
(26.2151 -0.0223009 0)
(26.224 -0.03659 0)
(26.262 -0.0375377 0)
(26.3106 -0.0285256 0)
(26.3656 -0.0152407 0)
(26.4206 -0.00228404 0)
(11.6937 -0.843769 0)
(18.61 -0.549201 0)
(19.1059 -0.323888 0)
(20.5637 -0.0536671 0)
(22.165 0.329035 0)
(24.225 1.01609 0)
(25.976 1.69249 0)
(26.5333 1.48581 0)
(26.7325 0.897327 0)
(26.7137 0.409712 0)
(26.596 0.131315 0)
(26.5013 0.00149828 0)
(26.4688 -0.0624026 0)
(26.4852 -0.109931 0)
(26.5335 -0.143932 0)
(26.5951 -0.160768 0)
(26.6625 -0.1624 0)
(26.7286 -0.152989 0)
(11.7962 -1.03427 0)
(19.0507 -0.657303 0)
(19.5357 -0.285643 0)
(21.029 -0.180378 0)
(22.8457 0.479266 0)
(24.6729 1.88 0)
(26.1682 1.71027 0)
(26.6981 1.17522 0)
(26.8977 0.66334 0)
(26.9232 0.306837 0)
(26.8564 0.0977448 0)
(26.7957 -0.0253111 0)
(26.7812 -0.11799 0)
(26.8106 -0.194628 0)
(26.8633 -0.255556 0)
(26.9282 -0.287546 0)
(26.9906 -0.298481 0)
(27.0471 -0.293064 0)
(11.939 -1.30367 0)
(19.6176 -0.699575 0)
(20.0101 -0.379525 0)
(21.5273 0.0214987 0)
(23.491 1.16153 0)
(25.2834 1.85633 0)
(26.3856 1.33254 0)
(26.877 0.783251 0)
(27.0838 0.434961 0)
(27.1303 0.210753 0)
(27.0948 0.0464187 0)
(27.0705 -0.0833676 0)
(27.0858 -0.203664 0)
(27.1215 -0.30713 0)
(27.1581 -0.376159 0)
(27.1953 -0.400894 0)
(27.2098 -0.400089 0)
(27.2265 -0.385868 0)
(12.0839 -1.55399 0)
(20.414 -0.849814 0)
(20.7527 0.188268 0)
(22.4597 1.00971 0)
(24.399 1.49379 0)
(25.74 1.2435 0)
(26.6063 0.744421 0)
(26.9954 0.403694 0)
(27.1317 0.222588 0)
(27.1544 0.0840585 0)
(27.1171 -0.0592623 0)
(27.0684 -0.180929 0)
(27.0482 -0.326226 0)
(26.9994 -0.404454 0)
(26.904 -0.473621 0)
(26.8237 -0.479969 0)
(26.7085 -0.450616 0)
(26.5914 -0.412087 0)
(12.3759 -1.87806 0)
(21.9436 -0.269944 0)
(22.3016 1.4477 0)
(23.2843 1.22126 0)
(24.8538 0.745506 0)
(25.84 0.529849 0)
(26.3014 0.308231 0)
(26.3497 0.13325 0)
(26.2536 0.0406551 0)
(26.1118 -0.0779899 0)
(25.9038 -0.170068 0)
(25.5913 -0.293174 0)
(25.262 -0.422733 0)
(24.9629 -0.436922 0)
(24.6262 -0.446733 0)
(24.2929 -0.434277 0)
(23.9165 -0.382995 0)
(23.6042 -0.316022 0)
(12.8162 -2.13774 0)
(23.1398 0.538309 0)
(22.3258 0.764623 0)
(22.5818 0.337521 0)
(23.2535 0.153712 0)
(23.4219 0.117686 0)
(23.2567 0.0539527 0)
(22.8026 -0.0579842 0)
(22.3094 -0.120223 0)
(21.8491 -0.170455 0)
(21.2576 -0.217221 0)
(20.6135 -0.277242 0)
(20.0135 -0.327659 0)
(19.4894 -0.320397 0)
(18.941 -0.264042 0)
(18.4536 -0.222824 0)
(18.0054 -0.182173 0)
(17.6448 -0.142276 0)
(11.9794 -0.179872 0)
(19.9575 0.200663 0)
(17.8695 0.254182 0)
(16.9587 0.0301117 0)
(16.7958 0.00386311 0)
(16.4366 0.0279417 0)
(15.8628 -0.0152385 0)
(15.2775 -0.0397108 0)
(14.6904 -0.0567919 0)
(14.0853 -0.0642922 0)
(13.4498 -0.0796389 0)
(12.8273 -0.0837624 0)
(12.2484 -0.0863949 0)
(11.7548 -0.0719907 0)
(11.2804 -0.0465946 0)
(10.88 -0.0323896 0)
(10.5393 -0.0239445 0)
(10.2729 -0.0171068 0)
(0.00125724 0.0285732 0)
(0.00750007 0.026112 0)
(0.0163305 0.0246177 0)
(0.0251356 0.0243301 0)
(0.0323153 0.0252696 0)
(0.0368401 0.027099 0)
(0.0380708 0.029446 1.12325e-17)
(0.035823 0.0318843 -1.12255e-17)
(0.0304859 0.034072 0)
(0.0223048 0.0359066 -1.11937e-17)
(0.0116534 0.0373431 0)
(-0.000865335 0.0384327 0)
(-0.015011 0.0392111 0)
(-0.0306329 0.0398474 1.11108e-17)
(-0.0475298 0.0403275 0)
(-0.0656187 0.0407407 0)
(-0.0847896 0.0412209 -1.10396e-17)
(-0.105033 0.0416067 0)
(-0.126347 0.0420347 0)
(-0.148805 0.0425113 0)
(-0.172529 0.0430326 1.0927e-17)
(-0.1975 0.0436435 0)
(-0.223848 0.0443805 1.08639e-17)
(-0.251842 0.0451438 0)
(-0.281439 0.0460774 0)
(-0.312608 0.0471224 1.07661e-17)
(-0.345795 0.0483253 0)
(-0.381008 0.0495985 -1.07045e-17)
(-0.417806 0.0509426 0)
(-0.457054 0.0522775 1.06459e-17)
(-0.499332 0.0544331 0)
(-0.543971 0.0559997 0)
(-0.590785 0.057704 0)
(-0.639678 0.0594093 0)
(-0.690938 0.0611118 0)
(-0.745026 0.0629393 -1.04825e-17)
(-0.801577 0.0647024 0)
(-0.860767 0.066502 2.08677e-17)
(-0.92253 0.0683115 0)
(-0.98658 0.0699144 -2.07753e-17)
(-1.05308 0.0714015 0)
(-1.12142 0.0729643 0)
(-1.19099 0.0744201 2.06229e-17)
(-1.26231 0.0753495 0)
(-1.33546 0.0757965 2.05279e-17)
(-1.40713 0.0757028 -2.04775e-17)
(-1.47932 0.0747959 0)
(-1.55314 0.0737342 -2.03815e-17)
(-1.62553 0.0731466 -2.03337e-17)
(-1.69506 0.0716738 0)
(-1.76328 0.0705809 0)
(-1.82949 0.0678228 0)
(-1.89236 0.0646922 0)
(-1.95158 0.0613064 0)
(-2.00676 0.0577167 2.00284e-17)
(-2.05752 0.0539629 0)
(-2.10384 0.0501556 -1.99218e-17)
(-2.14587 0.046508 0)
(-2.18336 0.0429926 0)
(-2.21659 0.0394712 1.97675e-17)
(-2.246 0.0361566 0)
(-2.27139 0.0332262 -1.9662e-17)
(-2.29383 0.0305767 0)
(-2.3133 0.0282716 0)
(-2.3305 0.0262867 0)
(-2.34767 0.0249957 1.9453e-17)
(-2.36346 0.0244997 0)
(-2.37921 0.0244074 0)
(-2.3948 0.0245227 1.9304e-17)
(-2.41533 0.0255959 0)
(-2.4411 0.0270483 1.92046e-17)
(-2.46749 0.0290098 0)
(-2.49781 0.0312857 0)
(-2.53344 0.0339491 0)
(-2.57493 0.0369092 -1.90006e-17)
(-2.62234 0.0400421 0)
(-2.67577 0.0432362 0)
(-2.73538 0.0464768 -1.88463e-17)
(-2.80097 0.0496883 -1.87951e-17)
(-2.87226 0.0525622 0)
(-2.94896 0.0549902 -1.86907e-17)
(-3.02997 0.0570734 0)
(-3.11494 0.058663 -3.71666e-17)
(-3.20286 0.0596306 0)
(-3.29272 0.0600241 -3.69451e-17)
(-3.3831 0.0596359 0)
(-3.47298 0.0583405 3.67105e-17)
(-3.56109 0.0564484 0)
(-3.6456 0.0540162 0)
(-3.7254 0.0510573 0)
(-3.79876 0.0471519 -3.62206e-17)
(-3.86755 0.0419753 0)
(-3.9279 0.0386074 3.59641e-17)
(-3.9777 0.0333244 0)
(-4.01718 0.0274716 -3.56891e-17)
(-4.04484 0.0214514 -3.54654e-17)
(-4.06068 0.0148989 -3.52127e-17)
(-4.06337 0.00838528 0)
(-4.05406 0.0021206 0)
(-4.0331 -0.00381979 0)
(-4.00094 -0.0095855 0)
(-3.95717 -0.0149297 0)
(-3.90327 -0.0196623 0)
(-3.84015 -0.0239948 0)
(-3.76929 -0.0277274 0)
(-3.69126 -0.0308578 3.40247e-17)
(-3.60775 -0.0333642 3.38661e-17)
(-3.52016 -0.0352902 0)
(-3.4297 -0.0366559 0)
(-3.33748 -0.0375815 0)
(-3.24446 -0.0380416 3.32342e-17)
(-3.15145 -0.0380876 0)
(-3.05981 -0.037775 0)
(-2.969 -0.0372904 0)
(-2.88056 -0.0368853 0)
(-2.79527 -0.035592 -3.24513e-17)
(-2.71236 -0.034994 0)
(-2.63155 -0.0342741 0)
(-2.55291 -0.0336001 3.19877e-17)
(-2.47618 -0.0330514 -3.18339e-17)
(-2.4009 -0.0326676 0)
(-2.32648 -0.0324611 -3.15263e-17)
(-2.25226 -0.032484 0)
(-2.17762 -0.0327128 3.12166e-17)
(-2.10178 -0.0331465 0)
(-2.02396 -0.033778 0)
(-1.94342 -0.0346186 0)
(-1.85959 -0.035599 0)
(-1.77198 -0.0367295 0)
(-1.67999 -0.037965 -6.0522e-17)
(-1.5834 -0.039242 -6.01967e-17)
(-1.48198 -0.0405138 0)
(-1.37577 -0.0417008 0)
(-1.26486 -0.0428475 0)
(-1.14995 -0.0438002 5.88498e-17)
(-1.03126 -0.0446586 0)
(-0.909418 -0.0453762 0)
(-0.785288 -0.0459215 0)
(-0.659792 -0.0462269 5.74659e-17)
(-0.533882 -0.0462819 -5.7115e-17)
(-0.408448 -0.0460454 0)
(-0.284431 -0.0456057 0)
(-0.162644 -0.0451057 -5.60643e-17)
(-0.0438372 -0.0443604 -5.57167e-17)
(0.0713034 -0.0435339 0)
(0.18216 -0.0427629 0)
(0.28827 -0.0418616 5.46797e-17)
(0.389456 -0.04091 -5.4335e-17)
(0.485481 -0.0399531 0)
(0.57632 -0.0390365 0)
(0.66188 -0.0381336 -5.33033e-17)
(0.742403 -0.0372357 0)
(0.818016 -0.0363617 0)
(0.888811 -0.0356857 -5.22724e-17)
(0.955042 -0.0349857 0)
(1.01687 -0.0342694 -5.15837e-17)
(1.07438 -0.0336341 0)
(1.12763 -0.0330294 0)
(1.1768 -0.0323224 0)
(1.22216 -0.0318007 5.02014e-17)
(1.26352 -0.0312632 0)
(1.30081 -0.0308373 0)
(1.33427 -0.0303582 0)
(1.36381 -0.0299074 0)
(1.38949 -0.0294158 0)
(1.41166 -0.0290964 0)
(1.4303 -0.0288654 4.78121e-17)
(1.44557 -0.0287117 4.74793e-17)
(1.45779 -0.0283788 0)
(1.46729 -0.0280465 0)
(1.47435 -0.0276946 0)
(1.47928 -0.0274123 -4.61715e-17)
(1.48232 -0.0270996 0)
(1.48337 -0.0266109 9.10403e-17)
(1.48294 -0.0259332 -9.03563e-17)
(1.47859 -0.0247941 -8.96907e-17)
(1.47378 -0.0228326 8.90075e-17)
(1.4515 -0.0192207 -8.8326e-17)
(1.4397 -0.00782696 8.73766e-17)
(1.30889 -0.00988626 0)
(0.00237037 0.0767365 0)
(0.0122289 0.0644086 0)
(0.0228747 0.0616828 -2.32613e-17)
(0.0305492 0.0663186 0)
(0.0337106 0.0755428 2.37199e-17)
(0.0320654 0.0871057 2.38653e-17)
(0.0255255 0.0992657 1.19889e-17)
(0.0141129 0.111158 1.20358e-17)
(-0.00159438 0.121813 0)
(-0.0212093 0.130946 1.20909e-17)
(-0.0443928 0.138499 0)
(-0.0706271 0.144746 0)
(-0.0995842 0.149833 -2.42642e-17)
(-0.130983 0.154187 -1.21419e-17)
(-0.164964 0.158029 2.42992e-17)
(-0.201093 0.161466 2.43069e-17)
(-0.239678 0.164782 1.2154e-17)
(-0.280636 0.168291 0)
(-0.323455 0.171627 0)
(-0.36836 0.175049 0)
(-0.4154 0.178671 1.21359e-17)
(-0.464523 0.182572 0)
(-0.515903 0.186694 -3.63438e-17)
(-0.569577 0.191004 0)
(-0.625664 0.195521 0)
(-0.683925 0.200234 -1.20711e-17)
(-0.744649 0.205168 0)
(-0.808354 0.210249 1.20474e-17)
(-0.874361 0.215347 2.40711e-17)
(-0.941832 0.220186 -1.20215e-17)
(-1.01383 0.226427 0)
(-1.08971 0.231869 0)
(-1.16669 0.237221 0)
(-1.24589 0.242347 2.39447e-17)
(-1.32764 0.247516 2.39202e-17)
(-1.41219 0.252643 1.19483e-17)
(-1.4993 0.257422 0)
(-1.58896 0.261734 -2.38531e-17)
(-1.68097 0.265535 0)
(-1.77486 0.268752 2.38058e-17)
(-1.87009 0.271431 0)
(-1.9662 0.273478 0)
(-2.06285 0.274683 -2.37182e-17)
(-2.16003 0.274891 0)
(-2.25732 0.273797 -7.09989e-17)
(-2.35369 0.271321 2.36347e-17)
(-2.44918 0.267054 0)
(-2.5428 0.261713 2.35497e-17)
(-2.63157 0.256157 2.35202e-17)
(-2.71769 0.248798 0)
(-2.80248 0.241091 0)
(-2.88504 0.233182 0)
(-2.96028 0.221745 0)
(-3.02992 0.209813 0)
(-3.09386 0.197442 -2.32761e-17)
(-3.15179 0.184796 -4.64551e-17)
(-3.20356 0.172068 2.31772e-17)
(-3.24919 0.159444 0)
(-3.28881 0.147146 -4.61516e-17)
(-3.32265 0.13537 2.30226e-17)
(-3.35106 0.124305 0)
(-3.37438 0.114275 2.29108e-17)
(-3.39361 0.105454 0)
(-3.40918 0.0979848 0)
(-3.4219 0.0920351 4.54737e-17)
(-3.43349 0.08789 -2.267e-17)
(-3.44413 0.0856888 4.52142e-17)
(-3.45404 0.0850551 -4.50977e-17)
(-3.46315 0.0858984 -2.24884e-17)
(-3.4778 0.0883705 0)
(-3.49889 0.0923482 -2.23632e-17)
(-3.52028 0.0976375 0)
(-3.54581 0.103913 0)
(-3.57706 0.111168 0)
(-3.61487 0.119087 -2.21023e-17)
(-3.65926 0.127374 0)
(-3.71022 0.135749 -4.39449e-17)
(-3.76775 0.143955 6.57245e-17)
(-3.83164 0.151728 2.18441e-17)
(-3.90144 0.158666 0)
(-3.97663 0.164432 2.17149e-17)
(-4.05636 0.16893 0)
(-4.13975 0.17192 4.3168e-17)
(-4.22584 0.173144 0)
(-4.31337 0.172499 4.28999e-17)
(-4.40092 0.169779 -8.5522e-17)
(-4.48699 0.164759 -4.26187e-17)
(-4.57015 0.157491 0)
(-4.64878 0.148308 0)
(-4.72094 0.137247 0)
(-4.78619 0.12352 4.20359e-17)
(-4.84256 0.107432 0)
(-4.89117 0.0922275 -4.17302e-17)
(-4.92885 0.0764204 0)
(-4.95213 0.057085 1.2426e-16)
(-4.96184 0.0375376 4.1255e-17)
(-4.95823 0.0176368 4.10849e-17)
(-4.94068 -0.00212842 0)
(-4.90853 -0.0212716 0)
(-4.86253 -0.0392672 0)
(-4.80368 -0.0563926 0)
(-4.73279 -0.0721671 0)
(-4.65086 -0.0862662 7.9911e-17)
(-4.55904 -0.0986279 7.95232e-17)
(-4.45859 -0.109159 0)
(-4.35079 -0.117835 -3.93688e-17)
(-4.23729 -0.124647 -3.91732e-17)
(-4.11963 -0.129692 0)
(-3.99922 -0.13306 -7.75661e-17)
(-3.87725 -0.134978 0)
(-3.75486 -0.135618 3.8387e-17)
(-3.63305 -0.135134 0)
(-3.51292 -0.133646 0)
(-3.39466 -0.131605 -7.55955e-17)
(-3.27829 -0.129324 0)
(-3.1663 -0.126035 3.74111e-17)
(-3.05799 -0.123478 0)
(-2.95155 -0.120874 0)
(-2.84795 -0.118516 3.68341e-17)
(-2.74678 -0.116575 3.66431e-17)
(-2.64747 -0.115167 0)
(-2.54936 -0.114346 -3.62622e-17)
(-2.45172 -0.114221 0)
(-2.35378 -0.114777 3.58805e-17)
(-2.25469 -0.116023 7.1378e-17)
(-2.15356 -0.117943 0)
(-2.0496 -0.120451 0)
(-1.94212 -0.12343 0)
(-1.83051 -0.126816 0)
(-1.7142 -0.130487 6.94482e-17)
(-1.59281 -0.134328 2.07185e-16)
(-1.46614 -0.138148 0)
(-1.33416 -0.141769 0)
(-1.19699 -0.145226 0)
(-1.05534 -0.148193 -6.74761e-17)
(-0.909604 -0.150616 0)
(-0.760337 -0.152401 0)
(-0.608591 -0.153517 1.32558e-16)
(-0.455326 -0.153948 6.58811e-17)
(-0.301543 -0.153671 6.54841e-17)
(-0.148248 -0.152709 0)
(0.00353161 -0.151113 0)
(0.152877 -0.148891 6.43e-17)
(0.298808 -0.146193 -6.39086e-17)
(0.44051 -0.143168 0)
(0.57739 -0.14003 0)
(0.709023 -0.136789 -6.27474e-17)
(0.835151 -0.133563 1.87096e-16)
(0.955588 -0.130438 0)
(1.07033 -0.127522 0)
(1.17939 -0.124787 6.12323e-17)
(1.28293 -0.122187 0)
(1.3811 -0.119891 1.20974e-16)
(1.47418 -0.117888 -6.01175e-17)
(1.56244 -0.116101 0)
(1.64596 -0.114453 5.93839e-17)
(1.72491 -0.112971 1.18041e-16)
(1.79942 -0.111596 0)
(1.86947 -0.109995 0)
(1.93528 -0.108634 -5.79418e-17)
(1.99674 -0.107309 0)
(2.05363 -0.105965 1.14474e-16)
(2.10606 -0.104562 0)
(2.15392 -0.103115 0)
(2.19724 -0.101676 0)
(2.2362 -0.10033 0)
(2.27083 -0.0991273 -5.55339e-17)
(2.30137 -0.0981746 -5.5202e-17)
(2.32807 -0.0967704 0)
(2.35119 -0.0954272 0)
(2.37122 -0.0940755 0)
(2.38869 -0.0930745 5.38925e-17)
(2.40402 -0.0920436 0)
(2.41724 -0.0907116 -1.06468e-16)
(2.42894 -0.0888918 1.05802e-16)
(2.43708 -0.0861573 1.05118e-16)
(2.4453 -0.0813693 1.043e-16)
(2.43628 -0.0731165 1.0352e-16)
(2.44236 -0.050102 1.02626e-16)
(2.35863 -0.0303696 0)
(0.00280692 0.12169 0)
(0.0100181 0.104957 0)
(0.0138382 0.108684 2.40427e-17)
(0.0115099 0.124993 2.44579e-17)
(0.00309764 0.146607 -2.47526e-17)
(-0.0108457 0.169983 -2.49626e-17)
(-0.0293908 0.192529 -8.06907e-23)
(-0.0522824 0.213803 0)
(-0.0795215 0.232879 0)
(-0.110602 0.249684 0)
(-0.145136 0.263942 0)
(-0.182778 0.276122 0)
(-0.223405 0.286582 7.68806e-17)
(-0.26671 0.295663 0)
(-0.313113 0.303854 -2.57194e-17)
(-0.362481 0.311404 -2.57568e-17)
(-0.414093 0.318596 0)
(-0.468872 0.325829 0)
(-0.526632 0.333365 0)
(-0.586287 0.340383 0)
(-0.648143 0.347625 -2.58566e-17)
(-0.712364 0.355118 0)
(-0.778987 0.362814 2.58641e-17)
(-0.847946 0.370727 0)
(-0.919296 0.378807 0)
(-0.992762 0.387102 0)
(-1.06828 0.395458 5.16746e-17)
(-1.14643 0.403845 0)
(-1.22702 0.412194 -2.58252e-17)
(-1.30777 0.420331 5.16264e-17)
(-1.39243 0.428584 0)
(-1.48161 0.438017 0)
(-1.57113 0.445766 0)
(-1.66177 0.453156 -2.5761e-17)
(-1.75401 0.460355 -2.57457e-17)
(-1.84855 0.467128 0)
(-1.94517 0.473206 0)
(-2.04358 0.478395 5.13893e-17)
(-2.1434 0.482559 5.13447e-17)
(-2.24419 0.485629 -5.12929e-17)
(-2.34548 0.487499 0)
(-2.4469 0.487951 0)
(-2.54819 0.48678 0)
(-2.64908 0.483822 0)
(-2.74922 0.478934 5.10031e-17)
(-2.84802 0.472031 5.09319e-17)
(-2.94468 0.463 -5.08431e-17)
(-3.03829 0.451931 0)
(-3.12733 0.438985 0)
(-3.21138 0.423587 0)
(-3.28978 0.405587 0)
(-3.36893 0.388852 5.04015e-17)
(-3.44281 0.368012 0)
(-3.5058 0.345975 0)
(-3.56222 0.323086 5.00786e-17)
(-3.61171 0.299696 4.99595e-17)
(-3.65405 0.276205 0)
(-3.68927 0.253012 -9.94203e-17)
(-3.7176 0.230548 4.95815e-17)
(-3.73924 0.209269 -4.94478e-17)
(-3.75455 0.189617 0)
(-3.76413 0.172029 0)
(-3.76897 0.156849 0)
(-3.76989 0.144345 0)
(-3.76776 0.134712 -4.87308e-17)
(-3.76381 0.128217 -9.7142e-17)
(-3.75904 0.124899 -4.84154e-17)
(-3.75391 0.124673 4.82169e-17)
(-3.74818 0.127522 0)
(-3.7481 0.132669 -9.58833e-17)
(-3.75479 0.140901 -9.55905e-17)
(-3.76263 0.151357 -9.52697e-17)
(-3.77489 0.163575 9.4942e-17)
(-3.79332 0.177159 0)
(-3.81897 0.191639 1.41431e-16)
(-3.85191 0.206546 0)
(-3.89209 0.221399 -4.68186e-17)
(-3.93946 0.235713 -4.66568e-17)
(-3.99377 0.24899 0)
(-4.05459 0.260697 0)
(-4.12129 0.270337 -9.23381e-17)
(-4.19307 0.277546 0)
(-4.26895 0.281983 -9.16786e-17)
(-4.34784 0.28331 0)
(-4.42848 0.281273 9.10051e-17)
(-4.5094 0.275642 1.81319e-16)
(-4.58897 0.266209 0)
(-4.66559 0.252911 0)
(-4.73776 0.235942 0)
(-4.80382 0.215555 8.9244e-17)
(-4.86242 0.1916 0)
(-4.91207 0.164424 8.85203e-17)
(-4.95124 0.134788 0)
(-4.98152 0.105376 0)
(-4.99889 0.0720425 -1.74819e-16)
(-4.99953 0.0379135 0)
(-4.98602 0.00381702 -8.66339e-17)
(-4.95819 -0.0295095 0)
(-4.91609 -0.0617142 -8.58253e-17)
(-4.8599 -0.0924778 0)
(-4.79026 -0.121673 0)
(-4.70796 -0.148456 0)
(-4.61427 -0.172423 -2.52379e-16)
(-4.51044 -0.193284 -8.37005e-17)
(-4.39781 -0.210874 0)
(-4.27788 -0.225126 0)
(-4.15227 -0.236073 0)
(-4.02259 -0.243889 0)
(-3.89036 -0.248793 8.15709e-17)
(-3.75686 -0.251111 -1.62286e-16)
(-3.62329 -0.251185 -8.07152e-17)
(-3.49074 -0.249347 1.60578e-16)
(-3.36018 -0.245987 1.59724e-16)
(-3.23192 -0.241521 7.94368e-17)
(-3.10591 -0.236196 0)
(-2.98482 -0.230966 1.5719e-16)
(-2.86793 -0.225448 0)
(-2.75323 -0.220237 -1.55511e-16)
(-2.64174 -0.215617 -7.73373e-17)
(-2.53303 -0.211817 0)
(-2.42648 -0.209016 1.53008e-16)
(-2.32141 -0.207338 7.60883e-17)
(-2.21702 -0.206891 0)
(-2.11249 -0.207708 7.52566e-17)
(-2.00692 -0.209779 -2.24522e-16)
(-1.89938 -0.213051 0)
(-1.78905 -0.217399 0)
(-1.67517 -0.222641 0)
(-1.55705 -0.2286 0)
(-1.43413 -0.235058 -1.4552e-16)
(-1.30599 -0.241761 -1.44685e-16)
(-1.17242 -0.248418 0)
(-1.03335 -0.254765 0)
(-0.888905 -0.260654 0)
(-0.739782 -0.26577 0)
(-0.586509 -0.269787 0)
(-0.429603 -0.272687 0)
(-0.270089 -0.27437 -1.38847e-16)
(-0.10896 -0.27482 8.61435e-23)
(0.0527162 -0.273957 0)
(0.21381 -0.271852 0)
(0.373235 -0.268614 -1.35591e-16)
(0.529996 -0.264373 0)
(0.683149 -0.259318 1.33986e-16)
(0.831887 -0.253682 1.33191e-16)
(0.975622 -0.247765 0)
(1.11395 -0.241748 0)
(1.24662 -0.235807 -1.30836e-16)
(1.37349 -0.230104 -2.60126e-16)
(1.4946 -0.224788 0)
(1.61007 -0.219886 0)
(1.71996 -0.215293 0)
(1.8245 -0.211313 -1.2702e-16)
(1.92409 -0.207839 1.26272e-16)
(2.019 -0.204792 0)
(2.10934 -0.202025 2.49586e-16)
(2.1953 -0.199492 1.24063e-16)
(2.27705 -0.19715 -2.46678e-16)
(2.35452 -0.194633 0)
(2.4277 -0.192139 0)
(2.49658 -0.189733 -2.42431e-16)
(2.56096 -0.187206 -1.20526e-16)
(2.62075 -0.184512 0)
(2.67581 -0.181668 0)
(2.7261 -0.178759 0)
(2.77163 -0.17587 0)
(2.81239 -0.173095 -2.34451e-16)
(2.84877 -0.17061 0)
(2.88086 -0.167674 0)
(2.90871 -0.164841 0)
(2.93289 -0.162122 0)
(2.95412 -0.159953 0)
(2.97301 -0.157791 0)
(2.98965 -0.155349 -2.2568e-16)
(3.00468 -0.152288 0)
(3.01679 -0.14798 0)
(3.02903 -0.140823 -4.43499e-16)
(3.02842 -0.12922 2.2026e-16)
(3.04249 -0.100872 -2.1845e-16)
(3.00185 -0.0679119 2.16663e-16)
(0.00261936 0.171803 0)
(0.00299529 0.161459 -4.79917e-17)
(-0.0044346 0.178662 0)
(-0.0193446 0.209428 -2.52664e-17)
(-0.0399075 0.243232 0)
(-0.0658749 0.276839 0)
(-0.0959089 0.307972 2.60235e-17)
(-0.12891 0.336885 0)
(-0.16564 0.362992 0)
(-0.206119 0.385992 0)
(-0.250047 0.406317 0)
(-0.296508 0.424051 0)
(-0.345889 0.439823 -1.06496e-16)
(-0.398019 0.453839 -5.33701e-17)
(-0.453016 0.466561 5.34872e-17)
(-0.510957 0.478387 0)
(-0.571571 0.489602 0)
(-0.634393 0.500373 0)
(-0.701062 0.511558 0)
(-0.770492 0.521894 0)
(-0.84078 0.532217 -5.39405e-17)
(-0.913246 0.54258 -5.39792e-17)
(-0.987773 0.553005 5.40074e-17)
(-1.06424 0.563479 -5.40248e-17)
(-1.1426 0.574017 0)
(-1.22263 0.584627 0)
(-1.30418 0.595195 -5.40363e-17)
(-1.38772 0.605614 0)
(-1.47316 0.615844 0)
(-1.55866 0.625961 -5.40259e-17)
(-1.64474 0.635205 -5.39955e-17)
(-1.73643 0.646321 -5.39846e-17)
(-1.83031 0.655424 0)
(-1.92216 0.663993 0)
(-2.01503 0.672018 5.38986e-17)
(-2.1098 0.679318 0)
(-2.20619 0.685626 0)
(-2.30379 0.690737 -5.3768e-17)
(-2.40222 0.694463 5.37091e-17)
(-2.50112 0.696626 -5.3644e-17)
(-2.60016 0.697014 0)
(-2.69901 0.695355 0)
(-2.7974 0.691381 -1.06851e-16)
(-2.89501 0.684887 0)
(-2.9915 0.675713 -1.06531e-16)
(-3.08627 0.663746 -1.5952e-16)
(-3.17826 0.648812 1.59202e-16)
(-3.26667 0.630875 -1.0591e-16)
(-3.35057 0.610147 0)
(-3.42876 0.586491 0)
(-3.50019 0.559448 -1.05218e-16)
(-3.57099 0.53005 -5.24906e-17)
(-3.63684 0.499246 0)
(-3.69114 0.466382 0)
(-3.7377 0.432228 -5.20903e-17)
(-3.77642 0.397356 -1.03888e-16)
(-3.80714 0.3624 0)
(-3.82991 0.328011 1.03281e-16)
(-3.84486 0.294878 -1.02966e-16)
(-3.8523 0.263645 1.02623e-16)
(-3.85275 0.234964 0)
(-3.84701 0.209415 0)
(-3.83612 0.187521 0)
(-3.82112 0.1697 0)
(-3.80297 0.156272 0)
(-3.7828 0.147327 1.0057e-16)
(-3.76183 0.14301 0)
(-3.74121 0.143348 0)
(-3.72042 0.148217 0)
(-3.70549 0.156647 1.98227e-16)
(-3.69791 0.169259 9.87724e-17)
(-3.69296 0.185147 9.84058e-17)
(-3.69315 0.203627 -1.96065e-16)
(-3.70031 0.223948 9.76588e-17)
(-3.71559 0.245448 -9.72874e-17)
(-3.73906 0.267464 0)
(-3.77067 0.289306 9.65477e-17)
(-3.8103 0.310275 0)
(-3.85768 0.32966 0)
(-3.91233 0.346756 0)
(-3.97357 0.36091 1.90134e-16)
(-4.04053 0.371559 -9.46939e-17)
(-4.11218 0.378208 -9.43185e-17)
(-4.1873 0.380418 -1.87881e-16)
(-4.26455 0.377827 -2.80676e-16)
(-4.34239 0.370129 -9.31715e-17)
(-4.4191 0.357076 0)
(-4.49296 0.338571 -1.8477e-16)
(-4.56238 0.314773 0)
(-4.62575 0.286001 -2.74787e-16)
(-4.68144 0.252416 0)
(-4.72787 0.214495 -2.72397e-16)
(-4.76309 0.17309 0)
(-4.78931 0.128571 0)
(-4.8027 0.0822715 -8.95896e-17)
(-4.79867 0.0343749 0)
(-4.77981 -0.0139277 8.87501e-17)
(-4.74613 -0.061771 1.76645e-16)
(-4.6977 -0.108037 8.78972e-17)
(-4.63494 -0.152201 1.74927e-16)
(-4.55826 -0.193344 -1.74042e-16)
(-4.4684 -0.231016 -1.73165e-16)