/*--------------------------------*- C++ -*----------------------------------*\
| =========                 |                                                 |
| \\      /  F ield         | OpenFOAM: The Open Source CFD Toolbox           |
|  \\    /   O peration     | Version:  2.3.0                                 |
|   \\  /    A nd           | Web:      www.OpenFOAM.org                      |
|    \\/     M anipulation  |                                                 |
\*---------------------------------------------------------------------------*/
FoamFile
{
    version     2.0;
    format      ascii;
    class       volVectorField;
    location    "9900/bottomAir";
    object      U;
}
// * * * * * * * * * * * * * * * * * * * * * * * * * * * * * * * * * * * * * //

dimensions      [0 1 -1 0 0 0 0];

internalField   nonuniform List<vector> 
4000
(
(33.37097 -0.003039166 0)
(25.24152 -0.001525825 0)
(21.9611 -0.0006082208 0)
(22.83256 -0.0004696055 0)
(23.16527 -0.0003455983 0)
(23.07229 -0.0002360122 0)
(23.03883 -0.000181575 0)
(23.04894 -0.0001529449 0)
(23.05248 -0.0001341913 0)
(23.05157 -0.0001224055 0)
(23.05137 -0.000115506 0)
(23.05163 -0.0001115787 0)
(23.05183 -0.0001095456 0)
(23.05198 -0.0001087965 0)
(23.05215 -0.0001089253 0)
(23.05232 -0.0001096504 0)
(23.05251 -0.0001107811 0)
(23.0527 -0.0001121839 0)
(23.0529 -0.0001137626 0)
(23.0531 -0.0001154479 0)
(23.05331 -0.0001171879 0)
(23.05353 -0.0001189451 0)
(23.05375 -0.0001206908 0)
(23.05398 -0.0001224046 0)
(23.05421 -0.0001240705 0)
(23.05445 -0.0001256777 0)
(23.05469 -0.000127218 0)
(23.05493 -0.0001286862 0)
(23.05518 -0.0001300784 0)
(23.05544 -0.0001313929 0)
(23.05569 -0.0001326286 0)
(23.05595 -0.0001337857 0)
(23.05622 -0.0001348647 0)
(23.05648 -0.000135867 0)
(23.05675 -0.000136794 0)
(23.05702 -0.0001376475 0)
(23.05729 -0.0001384294 0)
(23.05757 -0.0001391417 0)
(23.05785 -0.0001397863 0)
(23.05812 -0.0001403652 0)
(23.0584 -0.0001408802 0)
(23.05868 -0.000141333 0)
(23.05897 -0.0001417253 0)
(23.05925 -0.0001420583 0)
(23.05953 -0.0001423334 0)
(23.05982 -0.0001425513 0)
(23.0601 -0.0001427131 0)
(23.06039 -0.0001428191 0)
(23.06068 -0.0001428697 0)
(23.06096 -0.0001428648 0)
(23.06125 -0.0001428043 0)
(23.06154 -0.0001426875 0)
(23.06182 -0.000142514 0)
(23.06211 -0.0001422822 0)
(23.06239 -0.0001419913 0)
(23.06268 -0.0001416393 0)
(23.06296 -0.0001412245 0)
(23.06325 -0.0001407444 0)
(23.06353 -0.0001401968 0)
(23.06381 -0.0001395786 0)
(23.06409 -0.000138887 0)
(23.06437 -0.0001381183 0)
(23.06464 -0.0001372689 0)
(23.06492 -0.0001363348 0)
(23.06519 -0.0001353118 0)
(23.06546 -0.0001341951 0)
(23.06573 -0.0001329802 0)
(23.06599 -0.0001316618 0)
(23.06626 -0.0001302348 0)
(23.06652 -0.0001286936 0)
(23.06677 -0.0001270328 0)
(23.06702 -0.0001252464 0)
(23.06727 -0.0001233289 0)
(23.06752 -0.0001212741 0)
(23.06776 -0.0001190766 0)
(23.06799 -0.0001167303 0)
(23.06822 -0.0001142299 0)
(23.06844 -0.0001115701 0)
(23.06866 -0.000108746 0)
(23.06888 -0.000105753 0)
(23.06908 -0.0001025874 0)
(23.06928 -9.924565e-05 0)
(23.06947 -9.572545e-05 0)
(23.06966 -9.202491e-05 0)
(23.06983 -8.814366e-05 0)
(23.07 -8.408187e-05 0)
(23.07016 -7.984149e-05 0)
(23.07031 -7.542522e-05 0)
(23.07045 -7.083773e-05 0)
(23.07058 -6.608464e-05 0)
(23.0707 -6.117369e-05 0)
(23.07081 -5.611381e-05 0)
(23.07091 -5.091635e-05 0)
(23.07099 -4.559453e-05 0)
(23.07107 -4.016531e-05 0)
(23.07113 -3.465121e-05 0)
(23.07119 -2.908531e-05 0)
(23.07123 -2.353189e-05 0)
(23.07126 -1.808649e-05 0)
(23.07128 -1.313712e-05 0)
(33.36562 -0.003794041 0)
(25.23894 -0.001641706 0)
(21.95649 -0.0004915559 0)
(22.82734 -0.0004045946 0)
(23.16009 -0.0003052733 0)
(23.06703 -0.0002051972 0)
(23.03348 -0.000171719 0)
(23.04356 -0.00016639 0)
(23.0471 -0.0001684826 0)
(23.04617 -0.0001757567 0)
(23.04597 -0.0001864938 0)
(23.04624 -0.0001987603 0)
(23.04643 -0.0002115907 0)
(23.04658 -0.0002245412 0)
(23.04675 -0.0002373385 0)
(23.04694 -0.0002498096 0)
(23.04713 -0.0002618561 0)
(23.04732 -0.0002734217 0)
(23.04752 -0.0002844755 0)
(23.04773 -0.0002950028 0)
(23.04795 -0.0003049995 0)
(23.04817 -0.0003144689 0)
(23.04839 -0.0003234193 0)
(23.04863 -0.0003318622 0)
(23.04886 -0.0003398116 0)
(23.0491 -0.0003472832 0)
(23.04935 -0.0003542936 0)
(23.0496 -0.0003608601 0)
(23.04986 -0.0003670004 0)
(23.05011 -0.0003727321 0)
(23.05037 -0.0003780725 0)
(23.05064 -0.0003830389 0)
(23.05091 -0.0003876477 0)
(23.05118 -0.0003919151 0)
(23.05145 -0.0003958561 0)
(23.05172 -0.0003994855 0)
(23.052 -0.0004028167 0)
(23.05228 -0.0004058628 0)
(23.05256 -0.0004086356 0)
(23.05285 -0.0004111462 0)
(23.05313 -0.0004134044 0)
(23.05342 -0.0004154195 0)
(23.0537 -0.0004171995 0)
(23.05399 -0.0004187517 0)
(23.05428 -0.0004200821 0)
(23.05457 -0.000421196 0)
(23.05486 -0.0004220976 0)
(23.05515 -0.0004227902 0)
(23.05544 -0.000423276 0)
(23.05573 -0.0004235565 0)
(23.05602 -0.000423632 0)
(23.05631 -0.0004235019 0)
(23.0566 -0.0004231646 0)
(23.05689 -0.0004226177 0)
(23.05718 -0.0004218578 0)
(23.05747 -0.0004208804 0)
(23.05776 -0.0004196801 0)
(23.05805 -0.0004182507 0)
(23.05834 -0.0004165849 0)
(23.05862 -0.0004146745 0)
(23.05891 -0.0004125103 0)
(23.05919 -0.0004100822 0)
(23.05947 -0.0004073794 0)
(23.05975 -0.0004043898 0)
(23.06003 -0.0004011009 0)
(23.0603 -0.000397499 0)
(23.06058 -0.0003935698 0)
(23.06085 -0.0003892983 0)
(23.06111 -0.0003846686 0)
(23.06138 -0.0003796646 0)
(23.06164 -0.0003742694 0)
(23.06189 -0.000368466 0)
(23.06215 -0.0003622369 0)
(23.0624 -0.0003555648 0)
(23.06264 -0.0003484323 0)
(23.06288 -0.0003408225 0)
(23.06311 -0.0003327188 0)
(23.06334 -0.0003241055 0)
(23.06357 -0.000314968 0)
(23.06378 -0.0003052929 0)
(23.06399 -0.0002950687 0)
(23.0642 -0.0002842854 0)
(23.06439 -0.0002729358 0)
(23.06458 -0.0002610151 0)
(23.06476 -0.0002485215 0)
(23.06493 -0.0002354566 0)
(23.0651 -0.0002218256 0)
(23.06525 -0.0002076376 0)
(23.0654 -0.0001929061 0)
(23.06553 -0.000177649 0)
(23.06566 -0.0001618888 0)
(23.06577 -0.000145653 0)
(23.06587 -0.0001289743 0)
(23.06597 -0.0001118908 0)
(23.06605 -9.444713e-05 0)
(23.06612 -7.669616e-05 0)
(23.06617 -5.870229e-05 0)
(23.06622 -4.055771e-05 0)
(23.06625 -2.237527e-05 0)
(23.06628 -4.492706e-06 0)
(33.36546 -0.001448915 0)
(25.24009 -0.0007358191 0)
(21.95704 -0.0003878517 0)
(22.82762 -0.0004015582 0)
(23.1604 -0.0003867678 0)
(23.06734 -0.0003539865 0)
(23.03378 -0.0003446256 0)
(23.04386 -0.0003482203 0)
(23.0474 -0.0003562058 0)
(23.04647 -0.0003676607 0)
(23.04628 -0.0003818121 0)
(23.04654 -0.0003975473 0)
(23.04673 -0.000414139 0)
(23.04689 -0.0004311429 0)
(23.04706 -0.0004482326 0)
(23.04724 -0.0004651675 0)
(23.04743 -0.0004817761 0)
(23.04763 -0.0004979363 0)
(23.04783 -0.0005135617 0)
(23.04804 -0.000528592 0)
(23.04825 -0.0005429878 0)
(23.04847 -0.0005567243 0)
(23.0487 -0.0005697891 0)
(23.04893 -0.0005821784 0)
(23.04917 -0.000593896 0)
(23.04941 -0.0006049507 0)
(23.04965 -0.0006153556 0)
(23.0499 -0.0006251268 0)
(23.05015 -0.0006342827 0)
(23.05041 -0.0006428431 0)
(23.05067 -0.0006508289 0)
(23.05094 -0.0006582613 0)
(23.0512 -0.000665162 0)
(23.05147 -0.0006715519 0)
(23.05174 -0.000677452 0)
(23.05202 -0.0006828824 0)
(23.05229 -0.0006878621 0)
(23.05257 -0.0006924094 0)
(23.05285 -0.0006965415 0)
(23.05313 -0.0007002743 0)
(23.05342 -0.0007036223 0)
(23.0537 -0.000706599 0)
(23.05399 -0.0007092162 0)
(23.05427 -0.0007114844 0)
(23.05456 -0.0007134127 0)
(23.05485 -0.0007150088 0)
(23.05514 -0.0007162787 0)
(23.05543 -0.0007172272 0)
(23.05572 -0.0007178574 0)
(23.05601 -0.0007181709 0)
(23.0563 -0.0007181679 0)
(23.05659 -0.000717847 0)
(23.05688 -0.0007172052 0)
(23.05717 -0.0007162382 0)
(23.05745 -0.0007149397 0)
(23.05774 -0.0007133026 0)
(23.05803 -0.0007113173 0)
(23.05832 -0.0007089734 0)
(23.0586 -0.0007062586 0)
(23.05889 -0.0007031592 0)
(23.05917 -0.0006996596 0)
(23.05945 -0.0006957432 0)
(23.05973 -0.0006913914 0)
(23.06001 -0.0006865845 0)
(23.06029 -0.0006813009 0)
(23.06056 -0.0006755182 0)
(23.06083 -0.0006692122 0)
(23.0611 -0.0006623577 0)
(23.06137 -0.0006549282 0)
(23.06163 -0.0006468966 0)
(23.06189 -0.0006382345 0)
(23.06215 -0.0006289133 0)
(23.0624 -0.0006189036 0)
(23.06265 -0.0006081762 0)
(23.06289 -0.0005967018 0)
(23.06313 -0.0005844518 0)
(23.06336 -0.0005713981 0)
(23.06359 -0.0005575143 0)
(23.06381 -0.0005427753 0)
(23.06403 -0.0005271586 0)
(23.06424 -0.000510644 0)
(23.06444 -0.0004932148 0)
(23.06464 -0.0004748581 0)
(23.06482 -0.0004555654 0)
(23.065 -0.0004353331 0)
(23.06518 -0.0004141632 0)
(23.06534 -0.0003920639 0)
(23.06549 -0.0003690501 0)
(23.06564 -0.0003451433 0)
(23.06577 -0.0003203731 0)
(23.0659 -0.0002947763 0)
(23.06601 -0.0002683984 0)
(23.06611 -0.0002412925 0)
(23.0662 -0.0002135203 0)
(23.06628 -0.0001851517 0)
(23.06635 -0.0001562647 0)
(23.06641 -0.0001269437 0)
(23.06645 -9.727643e-05 0)
(23.06648 -6.73409e-05 0)
(23.06651 -3.716016e-05 0)
(33.36507 -0.000999489 0)
(25.24062 -0.0008476109 0)
(21.95759 -0.0006428902 0)
(22.82808 -0.0005802471 0)
(23.16086 -0.0005349452 0)
(23.06779 -0.000492599 0)
(23.03421 -0.00047116 0)
(23.04427 -0.0004672662 0)
(23.04779 -0.0004737655 0)
(23.04686 -0.0004873099 0)
(23.04666 -0.0005058129 0)
(23.04692 -0.0005274873 0)
(23.04711 -0.0005510282 0)
(23.04726 -0.0005755473 0)
(23.04743 -0.0006004204 0)
(23.04761 -0.0006252031 0)
(23.0478 -0.0006495828 0)
(23.04799 -0.0006733414 0)
(23.04819 -0.0006963283 0)
(23.0484 -0.0007184417 0)
(23.04862 -0.0007396157 0)
(23.04884 -0.0007598113 0)
(23.04906 -0.000779009 0)
(23.04929 -0.0007972045 0)
(23.04953 -0.0008144042 0)
(23.04977 -0.0008306234 0)
(23.05002 -0.000845883 0)
(23.05027 -0.0008602086 0)
(23.05052 -0.0008736289 0)
(23.05078 -0.0008861746 0)
(23.05104 -0.0008978774 0)
(23.0513 -0.0009087698 0)
(23.05157 -0.0009188842 0)
(23.05184 -0.0009282522 0)
(23.05211 -0.0009369048 0)
(23.05239 -0.0009448719 0)
(23.05266 -0.0009521818 0)
(23.05294 -0.0009588614 0)
(23.05322 -0.0009649357 0)
(23.0535 -0.000970428 0)
(23.05379 -0.0009753598 0)
(23.05407 -0.0009797504 0)
(23.05436 -0.0009836172 0)
(23.05464 -0.0009869754 0)
(23.05493 -0.0009898383 0)
(23.05522 -0.000992217 0)
(23.05551 -0.0009941203 0)
(23.0558 -0.0009955551 0)
(23.05609 -0.000996526 0)
(23.05638 -0.0009970356 0)
(23.05667 -0.0009970842 0)
(23.05696 -0.0009966699 0)
(23.05725 -0.0009957889 0)
(23.05754 -0.000994435 0)
(23.05783 -0.0009925997 0)
(23.05812 -0.0009902726 0)
(23.0584 -0.0009874409 0)
(23.05869 -0.0009840898 0)
(23.05898 -0.0009802021 0)
(23.05926 -0.0009757585 0)
(23.05955 -0.0009707376 0)
(23.05983 -0.0009651156 0)
(23.06011 -0.0009588669 0)
(23.06039 -0.0009519635 0)
(23.06066 -0.0009443755 0)
(23.06094 -0.0009360712 0)
(23.06121 -0.0009270168 0)
(23.06148 -0.0009171768 0)
(23.06175 -0.0009065142 0)
(23.06201 -0.0008949905 0)
(23.06227 -0.0008825663 0)
(23.06253 -0.0008692008 0)
(23.06278 -0.0008548531 0)
(23.06303 -0.0008394816 0)
(23.06327 -0.0008230453 0)
(23.06351 -0.0008055034 0)
(23.06375 -0.0007868166 0)
(23.06397 -0.0007669471 0)
(23.0642 -0.0007458595 0)
(23.06441 -0.0007235215 0)
(23.06463 -0.0006999044 0)
(23.06483 -0.0006749843 0)
(23.06503 -0.0006487424 0)
(23.06521 -0.0006211662 0)
(23.0654 -0.0005922502 0)
(23.06557 -0.0005619967 0)
(23.06573 -0.0005304167 0)
(23.06589 -0.0004975303 0)
(23.06603 -0.0004633679 0)
(23.06617 -0.0004279702 0)
(23.06629 -0.000391389 0)
(23.06641 -0.0003536874 0)
(23.06651 -0.00031494 0)
(23.0666 -0.0002752327 0)
(23.06668 -0.0002346628 0)
(23.06675 -0.0001933386 0)
(23.06681 -0.0001513784 0)
(23.06685 -0.0001089115 0)
(23.06688 -6.606432e-05 0)
(23.06691 -2.300593e-05 0)
(33.36494 -0.0005585638 0)
(25.24097 -0.0005296702 0)
(21.95793 -0.0004539276 0)
(22.82832 -0.0004547442 0)
(23.16108 -0.0004699801 0)
(23.068 -0.0004843065 0)
(23.0344 -0.0005057983 0)
(23.04445 -0.0005344154 0)
(23.04797 -0.0005668923 0)
(23.04703 -0.0006015307 0)
(23.04683 -0.0006374367 0)
(23.04709 -0.0006738406 0)
(23.04728 -0.0007101403 0)
(23.04743 -0.0007459188 0)
(23.0476 -0.0007808815 0)
(23.04779 -0.0008148171 0)
(23.04798 -0.0008475774 0)
(23.04817 -0.0008790616 0)
(23.04837 -0.000909205 0)
(23.04859 -0.0009379699 0)
(23.0488 -0.0009653396 0)
(23.04902 -0.0009913138 0)
(23.04925 -0.001015905 0)
(23.04948 -0.001039134 0)
(23.04972 -0.001061032 0)
(23.04996 -0.001081633 0)
(23.05021 -0.001100976 0)
(23.05046 -0.001119104 0)
(23.05072 -0.001136061 0)
(23.05098 -0.001151892 0)
(23.05124 -0.001166642 0)
(23.0515 -0.001180357 0)
(23.05177 -0.00119308 0)
(23.05204 -0.001204855 0)
(23.05232 -0.001215723 0)
(23.05259 -0.001225724 0)
(23.05287 -0.001234895 0)
(23.05315 -0.001243272 0)
(23.05343 -0.001250888 0)
(23.05371 -0.001257774 0)
(23.05399 -0.001263957 0)
(23.05428 -0.001269463 0)
(23.05457 -0.001274314 0)
(23.05485 -0.001278531 0)
(23.05514 -0.001282131 0)
(23.05543 -0.001285128 0)
(23.05572 -0.001287534 0)
(23.05601 -0.001289359 0)
(23.0563 -0.001290607 0)
(23.05659 -0.001291283 0)
(23.05688 -0.001291388 0)
(23.05717 -0.001290918 0)
(23.05746 -0.00128987 0)
(23.05775 -0.001288235 0)
(23.05804 -0.001286003 0)
(23.05833 -0.00128316 0)
(23.05862 -0.00127969 0)
(23.05891 -0.001275574 0)
(23.0592 -0.001270791 0)
(23.05948 -0.001265314 0)
(23.05977 -0.001259117 0)
(23.06005 -0.00125217 0)
(23.06033 -0.001244438 0)
(23.06061 -0.001235887 0)
(23.06089 -0.001226477 0)
(23.06116 -0.001216167 0)
(23.06143 -0.001204914 0)
(23.06171 -0.001192671 0)
(23.06197 -0.001179392 0)
(23.06224 -0.001165025 0)
(23.0625 -0.001149519 0)
(23.06276 -0.001132822 0)
(23.06301 -0.001114881 0)
(23.06326 -0.00109564 0)
(23.06351 -0.001075045 0)
(23.06375 -0.001053045 0)
(23.06398 -0.001029586 0)
(23.06421 -0.00100462 0)
(23.06444 -0.0009780983 0)
(23.06466 -0.0009499789 0)
(23.06487 -0.0009202233 0)
(23.06507 -0.0008887991 0)
(23.06527 -0.0008556806 0)
(23.06546 -0.00082085 0)
(23.06564 -0.0007842986 0)
(23.06582 -0.000746028 0)
(23.06598 -0.0007060505 0)
(23.06614 -0.0006643909 0)
(23.06629 -0.000621087 0)
(23.06642 -0.0005761901 0)
(23.06655 -0.0005297659 0)
(23.06666 -0.0004818948 0)
(23.06677 -0.0004326719 0)
(23.06686 -0.0003822069 0)
(23.06694 -0.0003306233 0)
(23.06701 -0.0002780579 0)
(23.06707 -0.000224658 0)
(23.06712 -0.0001705822 0)
(23.06715 -0.0001159826 0)
(23.06717 -6.107612e-05 0)
(33.36476 -0.0004116072 0)
(25.24103 -0.0005009902 0)
(21.95802 -0.0005231535 0)
(22.8284 -0.0005616187 0)
(23.16117 -0.0005966541 0)
(23.0681 -0.0006254596 0)
(23.0345 -0.0006549324 0)
(23.04455 -0.0006876356 0)
(23.04807 -0.000723132 0)
(23.04713 -0.0007607745 0)
(23.04692 -0.0008000204 0)
(23.04718 -0.000840267 0)
(23.04737 -0.0008809283 0)
(23.04753 -0.0009215085 0)
(23.0477 -0.0009616054 0)
(23.04788 -0.001000899 0)
(23.04807 -0.001039142 0)
(23.04827 -0.001076148 0)
(23.04847 -0.001111782 0)
(23.04868 -0.001145949 0)
(23.0489 -0.00117859 0)
(23.04913 -0.001209669 0)
(23.04935 -0.001239177 0)
(23.04959 -0.001267116 0)
(23.04983 -0.001293506 0)
(23.05007 -0.001318375 0)
(23.05032 -0.001341759 0)
(23.05057 -0.0013637 0)
(23.05083 -0.001384245 0)
(23.05109 -0.001403441 0)
(23.05135 -0.001421338 0)
(23.05162 -0.001437988 0)
(23.05188 -0.001453441 0)
(23.05216 -0.001467746 0)
(23.05243 -0.00148095 0)
(23.05271 -0.001493101 0)
(23.05298 -0.001504242 0)
(23.05326 -0.001514415 0)
(23.05355 -0.001523658 0)
(23.05383 -0.001532007 0)
(23.05411 -0.001539496 0)
(23.0544 -0.001546154 0)
(23.05469 -0.001552007 0)
(23.05498 -0.00155708 0)
(23.05526 -0.001561392 0)
(23.05555 -0.001564961 0)
(23.05584 -0.0015678 0)
(23.05613 -0.00156992 0)
(23.05643 -0.001571327 0)
(23.05672 -0.001572026 0)
(23.05701 -0.001572016 0)
(23.0573 -0.001571294 0)
(23.05759 -0.001569855 0)
(23.05788 -0.001567688 0)
(23.05817 -0.001564781 0)
(23.05846 -0.001561115 0)
(23.05875 -0.001556672 0)
(23.05904 -0.001551429 0)
(23.05933 -0.001545357 0)
(23.05961 -0.001538426 0)
(23.0599 -0.001530604 0)
(23.06018 -0.001521851 0)
(23.06046 -0.001512129 0)
(23.06074 -0.001501391 0)
(23.06102 -0.001489592 0)
(23.0613 -0.001476681 0)
(23.06157 -0.001462604 0)
(23.06184 -0.001447305 0)
(23.06211 -0.001430724 0)
(23.06238 -0.001412801 0)
(23.06264 -0.001393471 0)
(23.0629 -0.00137267 0)
(23.06315 -0.001350331 0)
(23.06341 -0.001326387 0)
(23.06365 -0.001300772 0)
(23.06389 -0.00127342 0)
(23.06413 -0.001244264 0)
(23.06436 -0.001213244 0)
(23.06459 -0.0011803 0)
(23.06481 -0.001145378 0)
(23.06502 -0.00110843 0)
(23.06523 -0.001069414 0)
(23.06543 -0.001028296 0)
(23.06562 -0.0009850536 0)
(23.06581 -0.0009396739 0)
(23.06598 -0.0008921568 0)
(23.06615 -0.0008425161 0)
(23.06631 -0.0007907805 0)
(23.06646 -0.000736995 0)
(23.06659 -0.0006812214 0)
(23.06672 -0.0006235397 0)
(23.06684 -0.000564048 0)
(23.06695 -0.0005028627 0)
(23.06704 -0.0004401187 0)
(23.06712 -0.0003759682 0)
(23.06719 -0.00031058 0)
(23.06725 -0.0002441371 0)
(23.0673 -0.0001768385 0)
(23.06733 -0.0001088777 0)
(23.06735 -4.053748e-05 0)
(33.36465 -0.0003013259 0)
(25.24108 -0.0004139185 0)
(21.95811 -0.0004664018 0)
(22.82848 -0.000523137 0)
(23.16124 -0.0005790287 0)
(23.06817 -0.0006319948 0)
(23.03457 -0.0006849447 0)
(23.04461 -0.0007393538 0)
(23.04813 -0.0007949491 0)
(23.04719 -0.0008510955 0)
(23.04698 -0.0009072577 0)
(23.04724 -0.0009629493 0)
(23.04743 -0.00101773 0)
(23.04758 -0.001071238 0)
(23.04775 -0.001123195 0)
(23.04794 -0.001173392 0)
(23.04813 -0.001221678 0)
(23.04833 -0.001267949 0)
(23.04854 -0.001312144 0)
(23.04875 -0.00135423 0)
(23.04897 -0.001394201 0)
(23.04919 -0.001432073 0)
(23.04942 -0.001467875 0)
(23.04966 -0.00150165 0)
(23.0499 -0.00153345 0)
(23.05015 -0.001563334 0)
(23.0504 -0.001591366 0)
(23.05065 -0.001617614 0)
(23.05091 -0.001642146 0)
(23.05117 -0.001665034 0)
(23.05143 -0.001686347 0)
(23.0517 -0.001706153 0)
(23.05197 -0.00172452 0)
(23.05224 -0.001741514 0)
(23.05252 -0.001757196 0)
(23.0528 -0.001771625 0)
(23.05308 -0.001784859 0)
(23.05336 -0.00179695 0)
(23.05364 -0.001807946 0)
(23.05392 -0.001817893 0)
(23.05421 -0.001826832 0)
(23.0545 -0.001834801 0)
(23.05478 -0.001841833 0)
(23.05507 -0.001847957 0)
(23.05536 -0.0018532 0)
(23.05565 -0.001857581 0)
(23.05594 -0.001861119 0)
(23.05624 -0.001863826 0)
(23.05653 -0.001865712 0)
(23.05682 -0.001866783 0)
(23.05711 -0.001867038 0)
(23.0574 -0.001866475 0)
(23.0577 -0.001865087 0)
(23.05799 -0.001862863 0)
(23.05828 -0.001859788 0)
(23.05857 -0.001855842 0)
(23.05886 -0.001851002 0)
(23.05915 -0.001845241 0)
(23.05944 -0.001838526 0)
(23.05972 -0.001830821 0)
(23.06001 -0.001822088 0)
(23.06029 -0.001812281 0)
(23.06058 -0.001801352 0)
(23.06086 -0.00178925 0)
(23.06114 -0.001775917 0)
(23.06142 -0.001761293 0)
(23.06169 -0.001745316 0)
(23.06196 -0.001727917 0)
(23.06223 -0.001709025 0)
(23.0625 -0.001688568 0)
(23.06277 -0.001666468 0)
(23.06303 -0.001642648 0)
(23.06328 -0.001617028 0)
(23.06354 -0.001589526 0)
(23.06379 -0.001560063 0)
(23.06403 -0.001528556 0)
(23.06427 -0.001494928 0)
(23.0645 -0.001459102 0)
(23.06473 -0.001421006 0)
(23.06495 -0.001380572 0)
(23.06517 -0.001337741 0)
(23.06538 -0.001292459 0)
(23.06558 -0.001244683 0)
(23.06578 -0.001194383 0)
(23.06596 -0.001141541 0)
(23.06614 -0.001086152 0)
(23.06631 -0.001028231 0)
(23.06647 -0.0009678075 0)
(23.06662 -0.0009049331 0)
(23.06676 -0.000839679 0)
(23.06689 -0.0007721381 0)
(23.06701 -0.0007024254 0)
(23.06712 -0.0006306787 0)
(23.06722 -0.0005570576 0)
(23.0673 -0.0004817432 0)
(23.06737 -0.0004049367 0)
(23.06743 -0.0003268565 0)
(23.06748 -0.0002477406 0)
(23.06751 -0.0001678207 0)
(23.06754 -8.743779e-05 0)
(33.36453 -0.0002613998 0)
(25.24104 -0.0004057616 0)
(21.9581 -0.000494267 0)
(22.82848 -0.0005796628 0)
(23.16124 -0.0006611426 0)
(23.06818 -0.0007365472 0)
(23.03458 -0.0008078181 0)
(23.04462 -0.0008768808 0)
(23.04814 -0.0009444369 0)
(23.0472 -0.001010612 0)
(23.047 -0.001075414 0)
(23.04726 -0.001138772 0)
(23.04745 -0.00120054 0)
(23.04761 -0.001260551 0)
(23.04778 -0.001318651 0)
(23.04797 -0.001374703 0)
(23.04816 -0.0014286 0)
(23.04836 -0.00148026 0)
(23.04857 -0.001529629 0)
(23.04879 -0.001576679 0)
(23.04901 -0.001621404 0)
(23.04924 -0.001663814 0)
(23.04947 -0.001703939 0)
(23.04971 -0.001741819 0)
(23.04995 -0.001777508 0)
(23.0502 -0.001811065 0)
(23.05045 -0.001842555 0)
(23.05071 -0.001872051 0)
(23.05096 -0.001899625 0)
(23.05123 -0.001925352 0)
(23.05149 -0.001949307 0)
(23.05176 -0.001971565 0)
(23.05203 -0.001992198 0)
(23.05231 -0.002011277 0)
(23.05258 -0.00202887 0)
(23.05286 -0.002045043 0)
(23.05314 -0.002059857 0)
(23.05343 -0.002073369 0)
(23.05371 -0.002085634 0)
(23.05399 -0.0020967 0)
(23.05428 -0.002106615 0)
(23.05457 -0.002115417 0)
(23.05486 -0.002123145 0)
(23.05515 -0.002129831 0)
(23.05544 -0.002135501 0)
(23.05573 -0.00214018 0)
(23.05602 -0.002143886 0)
(23.05631 -0.002146634 0)
(23.05661 -0.002148432 0)
(23.0569 -0.002149286 0)
(23.05719 -0.002149196 0)
(23.05748 -0.002148159 0)
(23.05778 -0.002146165 0)
(23.05807 -0.002143202 0)
(23.05836 -0.002139252 0)
(23.05865 -0.002134291 0)
(23.05894 -0.002128293 0)
(23.05923 -0.002121226 0)
(23.05952 -0.002113053 0)
(23.05981 -0.002103733 0)
(23.0601 -0.002093219 0)
(23.06038 -0.00208146 0)
(23.06067 -0.0020684 0)
(23.06095 -0.002053979 0)
(23.06123 -0.002038132 0)
(23.06151 -0.002020789 0)
(23.06179 -0.002001877 0)
(23.06206 -0.001981316 0)
(23.06233 -0.001959025 0)
(23.0626 -0.001934917 0)
(23.06287 -0.001908905 0)
(23.06313 -0.001880897 0)
(23.06339 -0.001850798 0)
(23.06364 -0.001818514 0)
(23.06389 -0.001783949 0)
(23.06414 -0.001747009 0)
(23.06438 -0.001707599 0)
(23.06462 -0.00166563 0)
(23.06485 -0.001621013 0)
(23.06507 -0.001573669 0)
(23.06529 -0.001523524 0)
(23.0655 -0.001470513 0)
(23.06571 -0.001414583 0)
(23.06591 -0.001355695 0)
(23.0661 -0.001293823 0)
(23.06628 -0.001228959 0)
(23.06645 -0.001161116 0)
(23.06661 -0.001090325 0)
(23.06677 -0.001016643 0)
(23.06691 -0.000940151 0)
(23.06704 -0.0008609539 0)
(23.06716 -0.0007791846 0)
(23.06727 -0.0006950028 0)
(23.06737 -0.0006085948 0)
(23.06745 -0.0005201725 0)
(23.06753 -0.0004299728 0)
(23.06759 -0.0003382533 0)
(23.06764 -0.0002452965 0)
(23.06767 -0.0001513784 0)
(23.0677 -5.690711e-05 0)
(33.36444 -0.0002364257 0)
(25.24101 -0.0003936994 0)
(21.95809 -0.000496992 0)
(22.82847 -0.0005949176 0)
(23.16125 -0.000690156 0)
(23.06818 -0.0007802404 0)
(23.03459 -0.000866211 0)
(23.04463 -0.0009496985 0)
(23.04815 -0.001031341 0)
(23.04721 -0.001111183 0)
(23.04701 -0.00118915 0)
(23.04727 -0.001265112 0)
(23.04746 -0.001338894 0)
(23.04762 -0.001410308 0)
(23.0478 -0.001479191 0)
(23.04799 -0.001545412 0)
(23.04818 -0.001608872 0)
(23.04838 -0.001669507 0)
(23.0486 -0.001727283 0)
(23.04881 -0.001782196 0)
(23.04904 -0.001834264 0)
(23.04927 -0.001883526 0)
(23.0495 -0.001930036 0)
(23.04974 -0.001973864 0)
(23.04999 -0.002015087 0)
(23.05024 -0.00205379 0)
(23.05049 -0.002090065 0)
(23.05075 -0.002124005 0)
(23.05101 -0.002155706 0)
(23.05128 -0.002185265 0)
(23.05154 -0.002212775 0)
(23.05181 -0.002238331 0)
(23.05209 -0.002262023 0)
(23.05236 -0.002283937 0)
(23.05264 -0.002304157 0)
(23.05292 -0.002322763 0)
(23.0532 -0.002339828 0)
(23.05349 -0.002355422 0)
(23.05377 -0.002369611 0)
(23.05406 -0.002382453 0)
(23.05435 -0.002394002 0)
(23.05464 -0.002404309 0)
(23.05493 -0.002413416 0)
(23.05522 -0.002421363 0)
(23.05551 -0.002428181 0)
(23.0558 -0.0024339 0)
(23.05609 -0.002438541 0)
(23.05639 -0.002442122 0)
(23.05668 -0.002444655 0)
(23.05697 -0.002446146 0)
(23.05727 -0.002446596 0)
(23.05756 -0.002446002 0)
(23.05786 -0.002444354 0)
(23.05815 -0.002441638 0)
(23.05844 -0.002437834 0)
(23.05873 -0.002432917 0)
(23.05903 -0.002426855 0)
(23.05932 -0.002419613 0)
(23.05961 -0.002411149 0)
(23.0599 -0.002401416 0)
(23.06019 -0.002390362 0)
(23.06047 -0.002377928 0)
(23.06076 -0.002364051 0)
(23.06104 -0.002348661 0)
(23.06133 -0.002331685 0)
(23.06161 -0.002313042 0)
(23.06189 -0.002292648 0)
(23.06216 -0.002270412 0)
(23.06244 -0.00224624 0)
(23.06271 -0.002220034 0)
(23.06297 -0.00219169 0)
(23.06324 -0.002161102 0)
(23.0635 -0.002128162 0)
(23.06376 -0.002092759 0)
(23.06401 -0.002054782 0)
(23.06426 -0.002014118 0)
(23.0645 -0.001970658 0)
(23.06474 -0.001924294 0)
(23.06498 -0.001874922 0)
(23.06521 -0.001822447 0)
(23.06543 -0.001766779 0)
(23.06564 -0.001707838 0)
(23.06585 -0.00164556 0)
(23.06605 -0.001579891 0)
(23.06624 -0.001510798 0)
(23.06643 -0.001438266 0)
(23.0666 -0.001362302 0)
(23.06677 -0.001282938 0)
(23.06693 -0.001200234 0)
(23.06707 -0.001114277 0)
(23.06721 -0.001025184 0)
(23.06733 -0.0009331045 0)
(23.06744 -0.0008382204 0)
(23.06754 -0.0007407442 0)
(23.06763 -0.0006409196 0)
(23.06771 -0.0005390202 0)
(23.06777 -0.0004353448 0)
(23.06782 -0.0003302222 0)
(23.06785 -0.000223974 0)
(23.06788 -0.0001170772 0)
(33.36434 -0.0002326301 0)
(25.24094 -0.0004072633 0)
(21.95805 -0.0005284724 0)
(22.82843 -0.0006443656 0)
(23.16121 -0.0007588367 0)
(23.06815 -0.0008679948 0)
(23.03456 -0.0009718303 0)
(23.04461 -0.001071655 0)
(23.04813 -0.001168074 0)
(23.0472 -0.001261208 0)
(23.04699 -0.001351115 0)
(23.04726 -0.001437828 0)
(23.04746 -0.001521327 0)
(23.04762 -0.001601571 0)
(23.0478 -0.001678517 0)
(23.04799 -0.001752134 0)
(23.04819 -0.001822406 0)
(23.0484 -0.001889336 0)
(23.04861 -0.001952943 0)
(23.04883 -0.002013266 0)
(23.04906 -0.002070358 0)
(23.04929 -0.002124289 0)
(23.04953 -0.002175138 0)
(23.04977 -0.002222995 0)
(23.05002 -0.002267956 0)
(23.05027 -0.002310124 0)
(23.05053 -0.002349603 0)
(23.05079 -0.002386503 0)
(23.05105 -0.002420931 0)
(23.05132 -0.002452994 0)
(23.05159 -0.002482799 0)
(23.05186 -0.002510447 0)
(23.05214 -0.002536039 0)
(23.05241 -0.002559671 0)
(23.05269 -0.002581433 0)
(23.05298 -0.002601412 0)
(23.05326 -0.002619689 0)
(23.05354 -0.00263634 0)
(23.05383 -0.002651435 0)
(23.05412 -0.002665039 0)
(23.05441 -0.002677211 0)
(23.0547 -0.002688003 0)
(23.05499 -0.002697463 0)
(23.05528 -0.002705633 0)
(23.05557 -0.002712548 0)
(23.05587 -0.002718238 0)
(23.05616 -0.002722728 0)
(23.05646 -0.002726035 0)
(23.05675 -0.002728173 0)
(23.05704 -0.002729147 0)
(23.05734 -0.002728959 0)
(23.05763 -0.002727604 0)
(23.05793 -0.002725072 0)
(23.05822 -0.002721347 0)
(23.05852 -0.002716405 0)
(23.05881 -0.002710218 0)
(23.0591 -0.002702753 0)
(23.0594 -0.00269397 0)
(23.05969 -0.002683821 0)
(23.05998 -0.002672255 0)
(23.06027 -0.002659213 0)
(23.06056 -0.00264463 0)
(23.06084 -0.002628436 0)
(23.06113 -0.002610553 0)
(23.06141 -0.002590897 0)
(23.0617 -0.00256938 0)
(23.06198 -0.002545907 0)
(23.06225 -0.002520375 0)
(23.06253 -0.002492679 0)
(23.0628 -0.002462708 0)
(23.06307 -0.002430344 0)
(23.06334 -0.002395467 0)
(23.0636 -0.002357954 0)
(23.06386 -0.002317679 0)
(23.06412 -0.002274513 0)
(23.06437 -0.002228327 0)
(23.06462 -0.002178996 0)
(23.06486 -0.002126392 0)
(23.0651 -0.002070398 0)
(23.06533 -0.002010897 0)
(23.06555 -0.001947784 0)
(23.06577 -0.001880965 0)
(23.06598 -0.001810359 0)
(23.06619 -0.001735899 0)
(23.06638 -0.001657542 0)
(23.06657 -0.001575263 0)
(23.06675 -0.001489065 0)
(23.06692 -0.001398977 0)
(23.06708 -0.001305059 0)
(23.06723 -0.001207407 0)
(23.06737 -0.001106148 0)
(23.06749 -0.00100145 0)
(23.06761 -0.0008935147 0)
(23.06771 -0.0007825841 0)
(23.0678 -0.000668936 0)
(23.06788 -0.0005528838 0)
(23.06794 -0.0004347713 0)
(23.06799 -0.0003149785 0)
(23.06803 -0.0001938782 0)
(23.06806 -7.202403e-05 0)
(33.36424 -0.0002354358 0)
(25.24087 -0.0004240299 0)
(21.958 -0.0005576706 0)
(22.82839 -0.0006857954 0)
(23.16117 -0.0008135637 0)
(23.06812 -0.0009362171 0)
(23.03453 -0.001053231 0)
(23.04459 -0.001165828 0)
(23.04811 -0.001274584 0)
(23.04718 -0.001379591 0)
(23.04698 -0.001480897 0)
(23.04725 -0.001578531 0)
(23.04745 -0.001672474 0)
(23.04761 -0.001762682 0)
(23.04779 -0.001849113 0)
(23.04799 -0.001931738 0)
(23.04819 -0.002010544 0)
(23.0484 -0.00208554 0)
(23.04862 -0.002156758 0)
(23.04884 -0.002224246 0)
(23.04907 -0.002288075 0)
(23.04931 -0.002348328 0)
(23.04955 -0.002405104 0)
(23.0498 -0.002458511 0)
(23.05005 -0.002508666 0)
(23.0503 -0.00255569 0)
(23.05056 -0.00259971 0)
(23.05083 -0.002640852 0)
(23.05109 -0.002679243 0)
(23.05136 -0.002715011 0)
(23.05163 -0.002748276 0)
(23.05191 -0.002779161 0)
(23.05219 -0.002807779 0)
(23.05247 -0.002834243 0)
(23.05275 -0.002858655 0)
(23.05303 -0.002881117 0)
(23.05332 -0.00290172 0)
(23.0536 -0.002920553 0)
(23.05389 -0.002937694 0)
(23.05418 -0.002953218 0)
(23.05447 -0.002967192 0)
(23.05476 -0.002979675 0)
(23.05506 -0.002990723 0)
(23.05535 -0.003000381 0)
(23.05564 -0.00300869 0)
(23.05594 -0.003015685 0)
(23.05623 -0.003021392 0)
(23.05653 -0.003025832 0)
(23.05682 -0.003029019 0)
(23.05712 -0.003030962 0)
(23.05742 -0.003031661 0)
(23.05771 -0.003031112 0)
(23.05801 -0.003029303 0)
(23.0583 -0.003026215 0)
(23.0586 -0.003021824 0)
(23.0589 -0.003016099 0)
(23.05919 -0.003009002 0)
(23.05948 -0.003000487 0)
(23.05978 -0.002990504 0)
(23.06007 -0.002978994 0)
(23.06036 -0.002965892 0)
(23.06065 -0.002951125 0)
(23.06094 -0.002934615 0)
(23.06123 -0.002916276 0)
(23.06151 -0.002896013 0)
(23.0618 -0.002873727 0)
(23.06208 -0.002849312 0)
(23.06236 -0.002822653 0)
(23.06264 -0.002793631 0)
(23.06291 -0.00276212 0)
(23.06319 -0.002727988 0)
(23.06346 -0.002691098 0)
(23.06372 -0.002651311 0)
(23.06399 -0.002608482 0)
(23.06425 -0.002562464 0)
(23.0645 -0.00251311 0)
(23.06475 -0.002460273 0)
(23.065 -0.002403807 0)
(23.06524 -0.002343572 0)
(23.06547 -0.002279433 0)
(23.0657 -0.002211264 0)
(23.06592 -0.002138951 0)
(23.06614 -0.002062394 0)
(23.06635 -0.001981513 0)
(23.06655 -0.001896245 0)
(23.06674 -0.001806555 0)
(23.06692 -0.001712437 0)
(23.0671 -0.001613913 0)
(23.06726 -0.001511044 0)
(23.06741 -0.001403927 0)
(23.06756 -0.0012927 0)
(23.06769 -0.001177546 0)
(23.06781 -0.001058688 0)
(23.06791 -0.0009363963 0)
(23.068 -0.0008109848 0)
(23.06808 -0.0006828084 0)
(23.06815 -0.0005522592 0)
(23.0682 -0.0004197725 0)
(23.06824 -0.0002857764 0)
(23.06827 -0.0001509077 0)
(33.36413 -0.0002460456 0)
(25.24079 -0.0004509749 0)
(21.95794 -0.0005985896 0)
(22.82833 -0.0007411672 0)
(23.16111 -0.0008847379 0)
(23.06806 -0.001023505 0)
(23.03448 -0.001156313 0)
(23.04454 -0.001284134 0)