/*--------------------------------*- C++ -*----------------------------------*\
| =========                 |                                                 |
| \\      /  F ield         | OpenFOAM: The Open Source CFD Toolbox           |
|  \\    /   O peration     | Version:  2.3.0                                 |
|   \\  /    A nd           | Web:      www.OpenFOAM.org                      |
|    \\/     M anipulation  |                                                 |
\*---------------------------------------------------------------------------*/
FoamFile
{
    version     2.0;
    format      ascii;
    class       volVectorField;
    location    "9800/topAir";
    object      U;
}
// * * * * * * * * * * * * * * * * * * * * * * * * * * * * * * * * * * * * * //

dimensions      [0 1 -1 0 0 0 0];

internalField   nonuniform List<vector> 
4000
(
(11.97364 0.003208463 0)
(8.963738 0.003383009 0)
(7.748301 0.002828379 0)
(8.068524 0.002774287 0)
(8.188607 0.002828372 0)
(8.15125 0.002848035 0)
(8.136046 0.002864203 0)
(8.136928 0.00288599 0)
(8.135336 0.002907446 0)
(8.132075 0.002926658 0)
(8.129066 0.002943948 0)
(8.126211 0.002959503 0)
(8.123315 0.002973406 0)
(8.120391 0.002985811 0)
(8.117463 0.002996886 0)
(8.114529 0.003006786 0)
(8.111589 0.003015644 0)
(8.108644 0.003023578 0)
(8.105694 0.003030693 0)
(8.102741 0.003037076 0)
(8.099784 0.003042807 0)
(8.096825 0.003047952 0)
(8.093863 0.00305257 0)
(8.0909 0.003056712 0)
(8.087935 0.003060422 0)
(8.084968 0.003063741 0)
(8.082 0.003066703 0)
(8.079032 0.003069338 0)
(8.076062 0.003071674 0)
(8.073092 0.003073735 0)
(8.070122 0.003075543 0)
(8.067151 0.003077118 0)
(8.064181 0.003078476 0)
(8.06121 0.003079633 0)
(8.058239 0.003080604 0)
(8.055269 0.003081402 0)
(8.052298 0.003082037 0)
(8.049329 0.00308252 0)
(8.046359 0.003082861 0)
(8.04339 0.003083069 0)
(8.040422 0.003083151 0)
(8.037454 0.003083115 0)
(8.034487 0.003082966 0)
(8.031521 0.003082711 0)
(8.028555 0.003082356 0)
(8.02559 0.003081905 0)
(8.022626 0.003081362 0)
(8.019664 0.003080732 0)
(8.016702 0.003080018 0)
(8.013741 0.003079223 0)
(8.010781 0.00307835 0)
(8.007822 0.003077402 0)
(8.004865 0.003076381 0)
(8.001908 0.003075288 0)
(7.998953 0.003074126 0)
(7.995999 0.003072895 0)
(7.993047 0.003071597 0)
(7.990096 0.003070232 0)
(7.987146 0.003068799 0)
(7.984198 0.0030673 0)
(7.981252 0.003065734 0)
(7.978307 0.0030641 0)
(7.975364 0.003062396 0)
(7.972423 0.003060622 0)
(7.969483 0.003058775 0)
(7.966546 0.003056852 0)
(7.96361 0.003054851 0)
(7.960677 0.003052767 0)
(7.957746 0.003050597 0)
(7.954818 0.003048334 0)
(7.951892 0.003045972 0)
(7.948969 0.003043504 0)
(7.946048 0.003040922 0)
(7.943131 0.003038214 0)
(7.940218 0.00303537 0)
(7.937307 0.003032374 0)
(7.934401 0.003029211 0)
(7.931499 0.003025859 0)
(7.928601 0.003022296 0)
(7.925708 0.003018492 0)
(7.922821 0.003014413 0)
(7.91994 0.003010017 0)
(7.917066 0.00300525 0)
(7.914198 0.003000048 0)
(7.91134 0.002994327 0)
(7.90849 0.002987981 0)
(7.905652 0.002980872 0)
(7.902826 0.002972814 0)
(7.900015 0.002963553 0)
(7.897221 0.002952733 0)
(7.894447 0.002939832 0)
(7.891699 0.002924047 0)
(7.888983 0.002904084 0)
(7.886307 0.002877709 0)
(7.883687 0.00284086 0)
(7.881144 0.002785363 0)
(7.878721 0.002695294 0)
(7.876471 0.002530423 0)
(7.874613 0.002226407 0)
(7.87305 0.001494627 0)
(11.98109 0.002776859 0)
(8.973767 0.003680403 0)
(7.762608 0.003310863 0)
(8.085741 0.003270725 0)
(8.208745 0.003381792 0)
(8.174549 0.003440375 0)
(8.162466 0.003472186 0)
(8.166418 0.003501114 0)
(8.167897 0.003525087 0)
(8.167708 0.003543089 0)
(8.167768 0.003556781 0)
(8.167979 0.003567359 0)
(8.168146 0.003575483 0)
(8.168283 0.003581673 0)
(8.168413 0.003586355 0)
(8.168534 0.003589848 0)
(8.168647 0.003592397 0)
(8.168752 0.00359419 0)
(8.16885 0.003595375 0)
(8.168942 0.003596068 0)
(8.169027 0.00359636 0)
(8.169108 0.003596325 0)
(8.169183 0.003596021 0)
(8.169253 0.003595497 0)
(8.169319 0.00359479 0)
(8.169381 0.003593933 0)
(8.16944 0.003592952 0)
(8.169494 0.003591869 0)
(8.169545 0.003590702 0)
(8.169593 0.003589464 0)
(8.169637 0.00358817 0)
(8.169678 0.003586829 0)
(8.169717 0.00358545 0)
(8.169753 0.00358404 0)
(8.169786 0.003582605 0)
(8.169816 0.00358115 0)
(8.169844 0.003579679 0)
(8.16987 0.003578195 0)
(8.169893 0.0035767 0)
(8.169914 0.003575198 0)
(8.169932 0.003573688 0)
(8.169949 0.003572172 0)
(8.169963 0.00357065 0)
(8.169976 0.003569123 0)
(8.169986 0.003567589 0)
(8.169995 0.003566049 0)
(8.170001 0.003564501 0)
(8.170006 0.003562944 0)
(8.170009 0.003561376 0)
(8.17001 0.003559794 0)
(8.17001 0.003558198 0)
(8.170008 0.003556583 0)
(8.170004 0.003554947 0)
(8.169999 0.003553286 0)
(8.169992 0.003551596 0)
(8.169984 0.003549873 0)
(8.169975 0.003548112 0)
(8.169964 0.003546308 0)
(8.169952 0.003544454 0)
(8.169938 0.003542543 0)
(8.169924 0.00354057 0)
(8.169908 0.003538524 0)
(8.169892 0.003536398 0)
(8.169874 0.003534181 0)
(8.169855 0.003531861 0)
(8.169836 0.003529427 0)
(8.169816 0.003526864 0)
(8.169796 0.003524157 0)
(8.169775 0.003521287 0)
(8.169754 0.003518234 0)
(8.169733 0.003514976 0)
(8.169711 0.003511487 0)
(8.16969 0.003507737 0)
(8.169669 0.003503691 0)
(8.169649 0.003499311 0)
(8.16963 0.00349455 0)
(8.169612 0.003489355 0)
(8.169595 0.003483663 0)
(8.16958 0.0034774 0)
(8.169567 0.003470477 0)
(8.169557 0.003462786 0)
(8.16955 0.003454198 0)
(8.169547 0.003444554 0)
(8.169549 0.003433656 0)
(8.169556 0.003421254 0)
(8.16957 0.003407033 0)
(8.169591 0.003390581 0)
(8.169622 0.003371355 0)
(8.169664 0.003348625 0)
(8.16972 0.003321379 0)
(8.169793 0.003288184 0)
(8.169886 0.003246937 0)
(8.170005 0.003194446 0)
(8.170156 0.003125646 0)
(8.170349 0.003032215 0)
(8.170593 0.00289947 0)
(8.170901 0.002701894 0)
(8.171282 0.002384989 0)
(8.171714 0.00186788 0)
(8.172186 0.0008476754 0)
(11.97872 9.225027e-05 0)
(8.97131 0.001150473 0)
(7.759427 0.001588932 0)
(8.082657 0.001834096 0)
(8.205699 0.002063731 0)
(8.171456 0.002230618 0)
(8.159359 0.00234894 0)
(8.163321 0.002442601 0)
(8.164813 0.002519044 0)
(8.164642 0.002581783 0)
(8.164724 0.002634295 0)
(8.16496 0.002679078 0)
(8.165155 0.00271777 0)
(8.165323 0.002751558 0)
(8.165485 0.002781348 0)
(8.165642 0.00280783 0)
(8.165792 0.002831538 0)
(8.165935 0.002852895 0)
(8.166074 0.002872238 0)
(8.166208 0.002889844 0)
(8.166338 0.002905939 0)
(8.166465 0.002920709 0)
(8.166588 0.002934313 0)
(8.166708 0.002946884 0)
(8.166826 0.002958535 0)
(8.166941 0.002969362 0)
(8.167055 0.00297945 0)
(8.167166 0.002988871 0)
(8.167275 0.002997687 0)
(8.167383 0.003005955 0)
(8.16749 0.003013723 0)
(8.167595 0.003021034 0)
(8.167699 0.003027924 0)
(8.167802 0.003034429 0)
(8.167904 0.003040577 0)
(8.168005 0.003046394 0)
(8.168105 0.003051905 0)
(8.168205 0.00305713 0)
(8.168304 0.003062089 0)
(8.168402 0.003066796 0)
(8.1685 0.003071268 0)
(8.168598 0.003075517 0)
(8.168695 0.003079555 0)
(8.168791 0.003083392 0)
(8.168888 0.003087036 0)
(8.168984 0.003090496 0)
(8.16908 0.003093778 0)
(8.169175 0.003096887 0)
(8.169271 0.003099827 0)
(8.169366 0.003102602 0)
(8.169462 0.003105215 0)
(8.169557 0.003107667 0)
(8.169653 0.003109958 0)
(8.169748 0.003112087 0)
(8.169844 0.003114054 0)
(8.16994 0.003115855 0)
(8.170036 0.003117488 0)
(8.170133 0.003118947 0)
(8.170229 0.003120227 0)
(8.170326 0.003121321 0)
(8.170424 0.003122219 0)
(8.170522 0.003122912 0)
(8.170621 0.003123389 0)
(8.17072 0.003123635 0)
(8.17082 0.003123636 0)
(8.17092 0.003123373 0)
(8.171022 0.003122826 0)
(8.171124 0.003121972 0)
(8.171228 0.003120784 0)
(8.171333 0.003119232 0)
(8.171439 0.00311728 0)
(8.171547 0.003114887 0)
(8.171656 0.003112009 0)
(8.171767 0.00310859 0)
(8.171881 0.003104569 0)
(8.171996 0.003099873 0)
(8.172114 0.003094417 0)
(8.172235 0.003088101 0)
(8.172359 0.003080807 0)
(8.172486 0.003072392 0)
(8.172617 0.003062687 0)
(8.172753 0.003051485 0)
(8.172894 0.003038535 0)
(8.17304 0.003023524 0)
(8.173192 0.003006062 0)
(8.173352 0.002985657 0)
(8.17352 0.002961673 0)
(8.173698 0.002933285 0)
(8.173887 0.002899395 0)
(8.174089 0.002858524 0)
(8.174306 0.002808627 0)
(8.174542 0.002746831 0)
(8.174798 0.002669005 0)
(8.175079 0.002569092 0)
(8.175389 0.002438098 0)
(8.175732 0.002262454 0)
(8.176109 0.002022231 0)
(8.176516 0.001687689 0)
(8.176914 0.001223053 0)
(8.177292 0.0005878265 0)
(11.97974 0.0009085085 0)
(8.972192 0.001791908 0)
(7.759849 0.002186161 0)
(8.082889 0.00238796 0)
(8.205871 0.002572748 0)
(8.171565 0.002721285 0)
(8.159421 0.002830976 0)
(8.163351 0.002917462 0)
(8.16482 0.002988211 0)
(8.164629 0.003046215 0)
(8.164695 0.003094134 0)
(8.164917 0.003134157 0)
(8.165101 0.003167848 0)
(8.165259 0.00319638 0)
(8.165413 0.003220678 0)
(8.165562 0.003241469 0)
(8.165705 0.003259334 0)
(8.165842 0.003274739 0)
(8.165975 0.003288063 0)
(8.166104 0.003299614 0)
(8.166229 0.003309647 0)
(8.166351 0.003318374 0)
(8.16647 0.003325972 0)
(8.166587 0.003332588 0)
(8.166701 0.003338349 0)
(8.166813 0.00334336 0)
(8.166923 0.003347712 0)
(8.167031 0.003351484 0)
(8.167138 0.003354741 0)
(8.167243 0.003357542 0)
(8.167347 0.003359937 0)
(8.16745 0.003361968 0)
(8.167552 0.003363673 0)
(8.167653 0.003365085 0)
(8.167752 0.003366234 0)
(8.167852 0.003367142 0)
(8.16795 0.003367833 0)
(8.168048 0.003368325 0)
(8.168145 0.003368635 0)
(8.168242 0.003368777 0)
(8.168339 0.003368762 0)
(8.168435 0.003368602 0)
(8.16853 0.003368305 0)
(8.168626 0.003367878 0)
(8.168721 0.003367327 0)
(8.168816 0.003366657 0)
(8.168911 0.003365872 0)
(8.169006 0.003364972 0)
(8.169101 0.00336396 0)
(8.169196 0.003362836 0)
(8.16929 0.003361597 0)
(8.169385 0.003360243 0)
(8.16948 0.00335877 0)
(8.169575 0.003357173 0)
(8.169671 0.003355446 0)
(8.169766 0.003353584 0)
(8.169862 0.003351578 0)
(8.169958 0.003349419 0)
(8.170055 0.003347095 0)
(8.170152 0.003344595 0)
(8.17025 0.003341904 0)
(8.170348 0.003339006 0)
(8.170446 0.003335883 0)
(8.170546 0.003332514 0)
(8.170646 0.003328876 0)
(8.170747 0.003324943 0)
(8.170849 0.003320685 0)
(8.170952 0.003316069 0)
(8.171056 0.003311057 0)
(8.171161 0.003305606 0)
(8.171268 0.003299667 0)
(8.171376 0.003293183 0)
(8.171486 0.003286092 0)
(8.171598 0.00327832 0)
(8.171712 0.003269782 0)
(8.171828 0.003260379 0)
(8.171946 0.003249998 0)
(8.172068 0.003238503 0)
(8.172192 0.003225738 0)
(8.17232 0.003211515 0)
(8.172451 0.003195608 0)
(8.172587 0.00317775 0)
(8.172727 0.003157611 0)
(8.172873 0.003134791 0)
(8.173025 0.003108791 0)
(8.173183 0.003078991 0)
(8.173349 0.003044602 0)
(8.173524 0.003004615 0)
(8.173708 0.00295772 0)
(8.173903 0.002902191 0)
(8.174112 0.002835728 0)
(8.174334 0.002755216 0)
(8.174573 0.002656397 0)
(8.174828 0.002533386 0)
(8.175101 0.002378032 0)
(8.175391 0.002179068 0)
(8.175691 0.001921391 0)
(8.17599 0.001585556 0)
(8.176249 0.001150361 0)
(8.176473 0.0006050444 0)
(11.97969 0.0004679743 0)
(8.972055 0.0009688693 0)
(7.759532 0.001273052 0)
(8.08255 0.001484244 0)
(8.20554 0.001682624 0)
(8.171219 0.001852938 0)
(8.159058 0.001989659 0)
(8.16298 0.002102468 0)
(8.164442 0.002197622 0)
(8.164247 0.002278176 0)
(8.164309 0.002346809 0)
(8.164529 0.00240584 0)
(8.164712 0.002457043 0)
(8.164869 0.002501782 0)
(8.165022 0.002541143 0)
(8.165171 0.002575995 0)
(8.165314 0.002607033 0)
(8.165452 0.002634821 0)
(8.165586 0.002659817 0)
(8.165715 0.002682401 0)
(8.165841 0.002702886 0)
(8.165964 0.002721535 0)
(8.166084 0.002738569 0)
(8.166201 0.002754174 0)
(8.166316 0.002768511 0)
(8.166429 0.002781715 0)
(8.16654 0.002793905 0)
(8.166649 0.002805184 0)
(8.166757 0.002815639 0)
(8.166863 0.002825349 0)
(8.166968 0.002834381 0)
(8.167071 0.002842795 0)
(8.167174 0.002850643 0)
(8.167275 0.002857973 0)
(8.167376 0.002864825 0)
(8.167476 0.002871236 0)
(8.167575 0.002877238 0)
(8.167674 0.002882858 0)
(8.167772 0.002888124 0)
(8.167869 0.002893057 0)
(8.167966 0.002897676 0)
(8.168063 0.002901998 0)
(8.168159 0.00290604 0)
(8.168255 0.002909813 0)
(8.168351 0.002913329 0)
(8.168447 0.002916597 0)
(8.168542 0.002919625 0)
(8.168637 0.002922418 0)
(8.168733 0.002924981 0)
(8.168828 0.002927317 0)
(8.168923 0.002929427 0)
(8.169018 0.002931311 0)
(8.169114 0.002932968 0)
(8.169209 0.002934394 0)
(8.169305 0.002935585 0)
(8.169401 0.002936534 0)
(8.169497 0.002937234 0)
(8.169593 0.002937675 0)
(8.16969 0.002937845 0)
(8.169788 0.00293773 0)
(8.169885 0.002937314 0)
(8.169984 0.002936579 0)
(8.170083 0.002935503 0)
(8.170182 0.002934063 0)
(8.170282 0.00293223 0)
(8.170383 0.002929973 0)
(8.170485 0.002927257 0)
(8.170588 0.00292404 0)
(8.170692 0.002920278 0)
(8.170798 0.002915917 0)
(8.170904 0.002910897 0)
(8.171012 0.002905151 0)
(8.171122 0.0028986 0)
(8.171233 0.002891154 0)
(8.171346 0.002882709 0)
(8.171461 0.002873147 0)
(8.171579 0.002862326 0)
(8.171699 0.002850084 0)
(8.171823 0.00283623 0)
(8.171949 0.002820537 0)
(8.172079 0.002802736 0)
(8.172212 0.002782506 0)
(8.17235 0.002759459 0)
(8.172493 0.002733123 0)
(8.172641 0.002702921 0)
(8.172795 0.002668142 0)
(8.172956 0.002627895 0)
(8.173124 0.002581064 0)
(8.1733 0.002526232 0)
(8.173485 0.002461585 0)
(8.17368 0.002384784 0)
(8.173886 0.002292802 0)
(8.174103 0.002181711 0)
(8.174331 0.002046439 0)
(8.174568 0.001880535 0)
(8.174812 0.001676052 0)
(8.175055 0.001423784 0)
(8.175287 0.001114689 0)
(8.175479 0.0007416682 0)
(8.175638 0.0003130375 0)
(11.9801 0.0005310072 0)
(8.972489 0.001051518 0)
(7.759871 0.001400928 0)
(8.082806 0.001661072 0)
(8.205748 0.001888398 0)
(8.171381 0.002079742 0)
(8.159178 0.002234841 0)
(8.163068 0.002362648 0)
(8.164504 0.002469778 0)
(8.164287 0.002560066 0)
(8.164331 0.002636594 0)
(8.164536 0.002701937 0)
(8.164706 0.002758093 0)
(8.164852 0.002806621 0)
(8.164996 0.002848767 0)
(8.165137 0.002885536 0)
(8.165273 0.002917742 0)
(8.165404 0.002946053 0)
(8.165532 0.002971017 0)
(8.165657 0.002993092 0)
(8.165778 0.003012659 0)
(8.165897 0.003030039 0)
(8.166013 0.003045505 0)
(8.166127 0.003059287 0)
(8.166239 0.003071582 0)
(8.166349 0.003082562 0)
(8.166457 0.003092372 0)
(8.166564 0.00310114 0)
(8.166669 0.003108975 0)
(8.166773 0.003115973 0)
(8.166876 0.00312222 0)
(8.166977 0.003127787 0)
(8.167078 0.00313274 0)
(8.167178 0.003137135 0)
(8.167277 0.003141023 0)
(8.167376 0.003144447 0)
(8.167473 0.003147446 0)
(8.167571 0.003150054 0)
(8.167667 0.003152301 0)
(8.167764 0.003154214 0)
(8.16786 0.003155815 0)
(8.167955 0.003157124 0)
(8.168051 0.003158158 0)
(8.168146 0.003158931 0)
(8.16824 0.003159457 0)
(8.168335 0.003159745 0)
(8.16843 0.003159803 0)
(8.168524 0.003159636 0)
(8.168619 0.003159251 0)
(8.168713 0.003158648 0)
(8.168807 0.003157828 0)
(8.168902 0.00315679 0)
(8.168997 0.003155531 0)
(8.169091 0.003154046 0)
(8.169186 0.00315233 0)
(8.169281 0.003150372 0)
(8.169377 0.003148162 0)
(8.169473 0.003145689 0)
(8.169569 0.003142936 0)
(8.169665 0.003139886 0)
(8.169762 0.003136521 0)
(8.16986 0.003132815 0)
(8.169958 0.003128744 0)
(8.170057 0.003124277 0)
(8.170156 0.003119381 0)
(8.170257 0.003114019 0)
(8.170358 0.003108146 0)
(8.17046 0.003101715 0)
(8.170563 0.00309467 0)
(8.170667 0.003086948 0)
(8.170772 0.00307848 0)
(8.170879 0.003069184 0)
(8.170988 0.003058969 0)
(8.171098 0.003047728 0)
(8.171209 0.003035342 0)
(8.171323 0.00302167 0)
(8.171439 0.003006552 0)
(8.171558 0.002989801 0)
(8.171679 0.002971197 0)
(8.171802 0.002950484 0)
(8.171929 0.002927358 0)
(8.17206 0.002901461 0)
(8.172195 0.002872363 0)
(8.172333 0.002839547 0)
(8.172477 0.002802392 0)
(8.172625 0.002760136 0)
(8.172779 0.002711852 0)
(8.172939 0.002656394 0)
(8.173106 0.002592344 0)
(8.17328 0.002517939 0)
(8.173461 0.002430984 0)
(8.173649 0.002328747 0)
(8.173845 0.002207851 0)
(8.174046 0.002064178 0)
(8.17425 0.001892837 0)
(8.174454 0.001688307 0)
(8.174649 0.00144485 0)
(8.174828 0.001157927 0)
(8.174968 0.0008250691 0)
(8.17508 0.0004556254 0)
(11.98018 0.0003942008 0)
(8.972522 0.0007802536 0)
(7.759787 0.001038853 0)
(8.082675 0.001241422 0)
(8.205594 0.001426569 0)
(8.171201 0.001588915 0)
(8.158977 0.001726209 0)
(8.162851 0.00184352 0)
(8.164276 0.001944879 0)
(8.16405 0.002032662 0)
(8.164087 0.002108915 0)
(8.164287 0.002175477 0)
(8.164452 0.00223386 0)
(8.164595 0.002285297 0)
(8.164737 0.002330812 0)
(8.164876 0.002371258 0)
(8.165011 0.002407342 0)
(8.165141 0.002439656 0)
(8.165269 0.002468698 0)
(8.165393 0.002494885 0)
(8.165514 0.002518571 0)
(8.165633 0.002540055 0)
(8.165749 0.002559596 0)
(8.165864 0.002577412 0)
(8.165976 0.002593693 0)
(8.166086 0.002608602 0)
(8.166195 0.002622281 0)
(8.166302 0.002634854 0)
(8.166408 0.002646428 0)
(8.166512 0.002657098 0)
(8.166616 0.002666947 0)
(8.166718 0.002676048 0)
(8.166819 0.002684465 0)
(8.16692 0.002692255 0)
(8.16702 0.002699468 0)
(8.167119 0.00270615 0)
(8.167217 0.002712338 0)
(8.167315 0.002718068 0)
(8.167412 0.002723371 0)
(8.167509 0.002728274 0)
(8.167605 0.002732799 0)
(8.167702 0.002736968 0)
(8.167797 0.002740799 0)
(8.167893 0.002744305 0)
(8.167988 0.002747501 0)
(8.168083 0.002750397 0)
(8.168178 0.002753 0)
(8.168273 0.002755317 0)
(8.168368 0.002757353 0)
(8.168463 0.002759108 0)
(8.168558 0.002760585 0)
(8.168652 0.002761781 0)
(8.168747 0.002762691 0)
(8.168842 0.002763312 0)
(8.168938 0.002763635 0)
(8.169033 0.00276365 0)
(8.169129 0.002763345 0)
(8.169225 0.002762705 0)
(8.169321 0.002761715 0)
(8.169418 0.002760352 0)
(8.169515 0.002758596 0)
(8.169613 0.00275642 0)
(8.169711 0.002753793 0)
(8.169809 0.002750683 0)
(8.169909 0.002747051 0)
(8.170009 0.002742853 0)
(8.17011 0.002738042 0)
(8.170212 0.002732563 0)
(8.170314 0.002726352 0)
(8.170418 0.002719339 0)
(8.170523 0.002711445 0)
(8.170629 0.002702579 0)
(8.170737 0.002692637 0)
(8.170846 0.002681502 0)
(8.170957 0.00266904 0)
(8.17107 0.002655094 0)
(8.171184 0.002639488 0)
(8.171301 0.002622016 0)
(8.17142 0.002602437 0)
(8.171542 0.002580473 0)
(8.171667 0.002555798 0)
(8.171794 0.002528026 0)
(8.171925 0.002496705 0)
(8.17206 0.002461294 0)
(8.172199 0.002421149 0)
(8.172342 0.0023755 0)
(8.172489 0.00232342 0)
(8.172642 0.00226379 0)
(8.172799 0.002195258 0)
(8.172962 0.002116196 0)
(8.173129 0.002024641 0)
(8.173301 0.001918253 0)
(8.173476 0.001794283 0)
(8.173654 0.001649579 0)
(8.173831 0.001480689 0)
(8.174002 0.001284131 0)
(8.174163 0.001056859 0)
(8.174306 0.000797449 0)
(8.174415 0.0005064473 0)
(8.174501 0.0001926646 0)
(11.98042 0.0003889547 0)
(8.972757 0.0007519279 0)
(7.759979 0.001010123 0)
(8.082837 0.001230588 0)
(8.205739 0.001436417 0)
(8.171323 0.00161978 0)
(8.159076 0.001778274 0)
(8.162929 0.001915774 0)
(8.164336 0.002035637 0)
(8.164094 0.002140138 0)
(8.164117 0.00223136 0)
(8.164305 0.002311218 0)
(8.164459 0.002381347 0)
(8.164593 0.002443114 0)
(8.164726 0.00249768 0)
(8.164857 0.002546025 0)
(8.164985 0.002588976 0)
(8.16511 0.002627232 0)
(8.165232 0.002661389 0)
(8.165351 0.002691951 0)
(8.165468 0.002719352 0)
(8.165583 0.002743962 0)
(8.165695 0.002766099 0)
(8.165806 0.002786041 0)
(8.165915 0.002804026 0)
(8.166022 0.002820261 0)
(8.166128 0.002834928 0)
(8.166233 0.002848186 0)
(8.166336 0.002860175 0)
(8.166439 0.002871016 0)
(8.16654 0.002880819 0)
(8.16664 0.002889677 0)
(8.16674 0.002897676 0)
(8.166839 0.002904891 0)
(8.166937 0.002911387 0)
(8.167034 0.002917224 0)
(8.167131 0.002922454 0)
(8.167228 0.002927122 0)
(8.167324 0.002931269 0)
(8.167419 0.002934932 0)
(8.167515 0.002938142 0)
(8.16761 0.002940927 0)
(8.167704 0.002943311 0)
(8.167799 0.002945314 0)
(8.167893 0.002946954 0)
(8.167987 0.002948247 0)
(8.168081 0.002949203 0)
(8.168175 0.002949833 0)
(8.168269 0.002950143 0)
(8.168363 0.002950138 0)
(8.168457 0.002949819 0)
(8.168551 0.002949186 0)
(8.168646 0.002948238 0)
(8.16874 0.002946967 0)
(8.168834 0.002945368 0)
(8.168929 0.00294343 0)
(8.169024 0.002941141 0)
(8.169119 0.002938484 0)
(8.169215 0.002935442 0)
(8.16931 0.002931993 0)
(8.169407 0.002928112 0)
(8.169504 0.00292377 0)
(8.169601 0.002918935 0)
(8.169699 0.00291357 0)
(8.169797 0.002907632 0)
(8.169896 0.002901074 0)
(8.169996 0.002893842 0)
(8.170097 0.002885876 0)
(8.170199 0.002877107 0)
(8.170301 0.002867458 0)
(8.170405 0.002856842 0)
(8.17051 0.002845158 0)
(8.170616 0.002832296 0)
(8.170724 0.002818127 0)
(8.170833 0.002802506 0)
(8.170943 0.002785266 0)
(8.171056 0.002766217 0)
(8.17117 0.00274514 0)
(8.171287 0.002721782 0)
(8.171406 0.002695849 0)
(8.171527 0.002667003 0)
(8.171651 0.002634848 0)
(8.171778 0.002598921 0)
(8.171908 0.002558678 0)
(8.172042 0.002513482 0)
(8.172178 0.002462579 0)
(8.172319 0.002405082 0)
(8.172462 0.002339943 0)
(8.17261 0.002265927 0)
(8.172761 0.002181587 0)
(8.172915 0.00208524 0)
(8.173071 0.00197496 0)
(8.173228 0.001848584 0)
(8.173384 0.001703783 0)
(8.173537 0.001538185 0)
(8.173682 0.00134965 0)
(8.173815 0.001136651 0)
(8.17393 0.0008991087 0)
(8.174016 0.0006384417 0)
(8.174083 0.000361784 0)
(11.98054 0.0003258972 0)
(8.972849 0.0006297965 0)
(7.760009 0.0008436203 0)
(8.082837 0.00102792 0)
(8.205717 0.001201204 0)
(8.171277 0.001356592 0)
(8.159007 0.001492241 0)
(8.162842 0.001611214 0)
(8.164234 0.001716027 0)
(8.163979 0.001808346 0)
(8.163992 0.00188973 0)
(8.164171 0.001961641 0)
(8.164318 0.002025346 0)
(8.164446 0.002081924 0)
(8.164574 0.002132306 0)
(8.164702 0.002177289 0)
(8.164826 0.002217557 0)
(8.164948 0.002253696 0)
(8.165068 0.002286209 0)
(8.165185 0.002315529 0)
(8.165301 0.002342026 0)
(8.165414 0.002366024 0)
(8.165526 0.002387799 0)
(8.165636 0.002407595 0)
(8.165744 0.002425621 0)
(8.165851 0.002442061 0)
(8.165957 0.002457075 0)
(8.166062 0.002470805 0)
(8.166165 0.002483373 0)
(8.166267 0.002494888 0)
(8.166369 0.002505448 0)
(8.166469 0.002515137 0)
(8.166569 0.002524029 0)
(8.166668 0.002532192 0)
(8.166766 0.002539684 0)
(8.166864 0.002546557 0)
(8.166961 0.002552857 0)
(8.167058 0.002558626 0)
(8.167155 0.002563898 0)
(8.167251 0.002568706 0)
(8.167346 0.002573077 0)
(8.167441 0.002577035 0)
(8.167536 0.0025806 0)
(8.167631 0.00258379 0)
(8.167726 0.00258662 0)
(8.16782 0.0025891 0)
(8.167915 0.002591241 0)
(8.168009 0.002593049 0)
(8.168103 0.002594528 0)
(8.168197 0.00259568 0)
(8.168292 0.002596505 0)
(8.168386 0.002596999 0)
(8.16848 0.002597157 0)
(8.168575 0.002596972 0)
(8.168669 0.002596434 0)
(8.168764 0.00259553 0)
(8.168859 0.002594244 0)
(8.168954 0.002592557 0)
(8.16905 0.002590449 0)
(8.169146 0.002587895 0)
(8.169242 0.002584866 0)
(8.169339 0.002581329 0)
(8.169436 0.002577249 0)
(8.169533 0.002572584 0)
(8.169632 0.002567288 0)
(8.16973 0.002561307 0)
(8.16983 0.002554584 0)
(8.16993 0.002547051 0)
(8.170031 0.002538636 0)
(8.170133 0.002529253 0)
(8.170236 0.00251881 0)
(8.17034 0.002507199 0)
(8.170445 0.0024943 0)
(8.170552 0.002479979 0)
(8.17066 0.00246408 0)
(8.170769 0.002446429 0)
(8.17088 0.002426826 0)
(8.170992 0.002405045 0)
(8.171107 0.002380823 0)
(8.171223 0.002353861 0)
(8.171341 0.002323816 0)
(8.171462 0.00229029 0)
(8.171585 0.002252823 0)
(8.171711 0.002210885 0)
(8.171839 0.002163858 0)
(8.17197 0.002111028 0)
(8.172103 0.00205157 0)
(8.172239 0.001984528 0)
(8.172377 0.001908806 0)
(8.172517 0.001823156 0)
(8.172659 0.001726179 0)
(8.172801 0.001616332 0)
(8.172942 0.001491975 0)
(8.17308 0.00135145 0)
(8.173213 0.00119322 0)
(8.173338 0.001016106 0)
(8.17345 0.0008195794 0)
(8.173545 0.0006043307 0)
(8.173615 0.0003721658 0)
(8.173669 0.0001287986 0)
(11.9807 0.000306686 0)
(8.972999 0.0005862026 0)
(7.760127 0.0007876487 0)
(8.082939 0.0009694742 0)
(8.20581 0.0011452 0)
(8.171358 0.001306938 0)
(8.159074 0.001452102 0)
(8.162897 0.001582512 0)
(8.164277 0.001699707 0)
(8.164011 0.001804738 0)
(8.164014 0.00189874 0)
(8.164184 0.001982887 0)
(8.164323 0.002058261 0)
(8.164444 0.002125837 0)
(8.164565 0.002186494 0)
(8.164687 0.002241014 0)
(8.164806 0.002290087 0)
(8.164923 0.002334321 0)
(8.165038 0.00237425 0)
(8.165151 0.002410344 0)
(8.165263 0.002443013 0)
(8.165373 0.002472619 0)
(8.165481 0.002499478 0)
(8.165588 0.002523872 0)
(8.165694 0.002546045 0)
(8.165798 0.002566215 0)
(8.165901 0.002584574 0)
(8.166004 0.002601294 0)
(8.166105 0.002616524 0)
(8.166205 0.0026304 0)
(8.166305 0.002643041 0)
(8.166404 0.002654553 0)
(8.166502 0.002665032 0)
(8.166599 0.002674562 0)
(8.166696 0.002683218 0)
(8.166793 0.002691069 0)
(8.166889 0.002698174 0)
(8.166984 0.002704588 0)
(8.167079 0.002710357 0)
(8.167174 0.002715524 0)
(8.167269 0.002720126 0)
(8.167363 0.002724197 0)
(8.167457 0.002727765 0)
(8.167551 0.002730854 0)
(8.167644 0.002733487 0)
(8.167738 0.00273568 0)
(8.167831 0.002737449 0)
(8.167925 0.002738806 0)
(8.168018 0.002739758 0)
(8.168112 0.002740312 0)
(8.168205 0.00274047 0)
(8.168298 0.002740233 0)
(8.168392 0.002739598 0)
(8.168486 0.002738559 0)
(8.168579 0.002737108 0)
(8.168673 0.002735234 0)
(8.168768 0.002732922 0)
(8.168862 0.002730155 0)
(8.168957 0.00272691 0)
(8.169052 0.002723164 0)
(8.169147 0.002718887 0)
(8.169243 0.002714047 0)
(8.169339 0.002708605 0)
(8.169436 0.002702519 0)
(8.169533 0.00269574 0)
(8.169631 0.002688213 0)
(8.169729 0.002679878 0)
(8.169829 0.002670665 0)
(8.169928 0.002660497 0)
(8.170029 0.002649285 0)
(8.170131 0.002636933 0)
(8.170233 0.002623329 0)
(8.170337 0.002608349 0)
(8.170441 0.002591853 0)
(8.170547 0.002573683 0)
(8.170654 0.002553658 0)
(8.170763 0.002531576 0)
(8.170873 0.002507207 0)
(8.170984 0.002480289 0)
(8.171097 0.002450522 0)
(8.171212 0.002417567 0)
(8.171329 0.002381035 0)
(8.171448 0.002340482 0)
(8.171568 0.002295401 0)
(8.171691 0.002245212 0)
(8.171815 0.002189256 0)
(8.171941 0.002126783 0)
(8.172069 0.002056947 0)
(8.172198 0.0019788 0)
(8.172328 0.001891293 0)
(8.172458 0.001793292 0)
(8.172586 0.001683596 0)
(8.172713 0.001560994 0)
(8.172836 0.001424344 0)
(8.172952 0.001272696 0)
(8.173059 0.001105477 0)
(8.173154 0.000922699 0)
(8.173234 0.000725332 0)
(8.173291 0.0005151353 0)
(8.173336 0.0002966244 0)
(11.98081 0.0002714844 0)
(8.973095 0.0005177743 0)
(7.760186 0.0006945042 0)
(8.082981 0.0008550843 0)
(8.205839 0.001010638 0)
(8.171369 0.001153899 0)
(8.159068 0.001282669 0)
(8.162876 0.001398535 0)
(8.164242 0.001502796 0)
(8.163964 0.001596338 0)
(8.163956 0.001680138 0)
(8.164116 0.001755206 0)
(8.164247 0.001822484 0)
(8.16436 0.001882823 0)
(8.164475 0.001936993 0)
(8.164591 0.001985683 0)
(8.164706 0.002029506 0)
(8.164818 0.002069002 0)
(8.16493 0.002104648 0)
(8.16504 0.002136865 0)
(8.165149 0.00216602 0)
(8.165257 0.002192441 0)
(8.165363 0.002216412 0)
(8.165469 0.002238185 0)
(8.165573 0.002257983 0)
(8.165676 0.002276002 0)
(8.165779 0.002292416 0)
(8.16588 0.002307377 0)
(8.165981 0.002321022 0)
(8.16608 0.002333472 0)
(8.16618 0.002344833 0)
(8.166278 0.002355201 0)
(8.166376 0.002364661 0)
(8.166473 0.002373287 0)
(8.16657 0.002381146 0)
(8.166666 0.002388298 0)
(8.166762 0.002394796 0)
(8.166857 0.002400686 0)
(8.166953 0.002406009 0)
(8.167047 0.002410801 0)
(8.167142 0.002415095 0)
(8.167236 0.002418917 0)
(8.16733 0.002422291 0)
(8.167424 0.002425238 0)
(8.167518 0.002427774 0)
(8.167612 0.002429913 0)
(8.167705 0.002431665 0)
(8.167799 0.002433037 0)
(8.167892 0.002434035 0)
(8.167986 0.002434661 0)
(8.168079 0.002434913 0)
(8.168172 0.002434789 0)
(8.168266 0.002434282 0)
(8.16836 0.002433383 0)
(8.168454 0.002432081 0)
(8.168547 0.002430361 0)
(8.168642 0.002428204 0)
(8.168736 0.00242559 0)
(8.168831 0.002422494 0)
(8.168925 0.002418887 0)
(8.169021 0.002414737 0)
(8.169116 0.002410008 0)
(8.169212 0.002404658 0)
(8.169309 0.002398639 0)
(8.169405 0.002391901 0)
(8.169503 0.002384383 0)
(8.169601 0.002376021 0)
(8.169699 0.002366741 0)
(8.169798 0.002356461 0)
(8.169898 0.00234509 0)
(8.169999 0.002332524 0)
(8.1701 0.00231865 0)
(8.170203 0.002303339 0)
(8.170306 0.002286446 0)
(8.17041 0.00226781 0)
(8.170516 0.002247248 0)
(8.170622 0.002224557 0)
(8.17073 0.002199506 0)
(8.170839 0.002171834 0)
(8.170949 0.002141249 0)
(8.171061 0.00210742 0)
(8.171174 0.002069971 0)
(8.171289 0.002028482 0)
(8.171405 0.001982476 0)
(8.171522 0.001931418 0)
(8.17164 0.00187471 0)
(8.17176 0.001811683 0)
(8.17188 0.0017416 0)
(8.172001 0.001663657 0)
(8.172121 0.001576991 0)
(8.172241 0.001480699 0)
(8.172358 0.001373867 0)
(8.172472 0.001255627 0)
(8.172582 0.001125224 0)
(8.172684 0.0009821253 0)
(8.172778 0.0008261567 0)
(8.17286 0.0006576423 0)
(8.172928 0.000477653 0)
(8.172976 0.0002878151 0)
(8.173014 9.172512e-05 0)
(11.98093 0.0002518936 0)
(8.973205 0.0004777494 0)
(7.760271 0.0006415241 0)
(8.083057 0.0007938464 0)
(8.205909 0.0009439345 0)
(8.17143 0.00108474 0)
(8.159119 0.00121397 0)
(8.162917 0.001332621 0)
(8.164275 0.001441429 0)
(8.163989 0.001540829 0)
(8.163974 0.00163141 0)
(8.164127 0.00171386 0)
(8.164252 0.001788858 0)
(8.164359 0.001857057 0)
(8.164469 0.001919073 0)
(8.16458 0.001975483 0)
(8.16469 0.002026817 0)
(8.164799 0.002073559 0)
(8.164907 0.002116147 0)
(8.165013 0.002154978 0)
(8.165119 0.002190409 0)
(8.165224 0.00222276 0)
(8.165328 0.002252318 0)
(8.165431 0.002279342 0)
(8.165533 0.002304062 0)
(8.165634 0.002326685 0)
(8.165734 0.002347398 0)
(8.165834 0.002366367 0)
(8.165933 0.002383742 0)
(8.166031 0.002399656 0)
(8.166128 0.002414231 0)
(8.166225 0.002427576 0)
(8.166322 0.002439786 0)
(8.166418 0.002450951 0)
(8.166513 0.002461148 0)
(8.166608 0.002470449 0)
(8.166703 0.002478916 0)
(8.166797 0.002486607 0)
(8.166892 0.002493571 0)
(8.166985 0.002499855 0)
(8.167079 0.002505498 0)
(8.167172 0.002510535 0)
(8.167266 0.002514998 0)
(8.167359 0.002518912 0)
(8.167452 0.002522302 0)
(8.167544 0.002525187 0)
(8.167637 0.002527582 0)
(8.16773 0.0025295 0)
(8.167823 0.00253095 0)
(8.167915 0.002531939 0)
(8.168008 0.002532469 0)
(8.168101 0.002532541 0)
(8.168193 0.002532152 0)
(8.168286 0.002531295 0)
(8.168379 0.002529961 0)
(8.168473 0.002528137 0)
(8.168566 0.002525807 0)
(8.16866 0.002522952 0)
(8.168753 0.002519547 0)
(8.168847 0.002515566 0)
(8.168942 0.002510977 0)
(8.169036 0.002505743 0)
(8.169131 0.002499824 0)
(8.169227 0.002493171 0)
(8.169323 0.002485734 0)
(8.169419 0.002477452 0)
(8.169515 0.00246826 0)
(8.169613 0.002458083 0)
(8.169711 0.002446838 0)
(8.169809 0.002434434 0)
(8.169908 0.002420766 0)
(8.170008 0.00240572 0)
(8.170109 0.002389167 0)