/*--------------------------------*- C++ -*----------------------------------*\
| =========                 |                                                 |
| \\      /  F ield         | OpenFOAM: The Open Source CFD Toolbox           |
|  \\    /   O peration     | Version:  2.3.0                                 |
|   \\  /    A nd           | Web:      www.OpenFOAM.org                      |
|    \\/     M anipulation  |                                                 |
\*---------------------------------------------------------------------------*/
FoamFile
{
    version     2.0;
    format      ascii;
    class       surfaceScalarField;
    location    "9800/bottomAir";
    object      phi;
}
// * * * * * * * * * * * * * * * * * * * * * * * * * * * * * * * * * * * * * //

dimensions      [1 0 -1 0 0 0 0];

internalField   nonuniform List<scalar> 
7860
(
0.005641829
-1.203149e-06
0.005642174
-3.447823e-07
0.005642258
-8.25236e-08
0.005642362
-1.041328e-07
0.005642436
-7.30912e-08
0.00564248
-4.352871e-08
0.005642514
-3.384092e-08
0.005642544
-2.976145e-08
0.005642571
-2.701373e-08
0.005642596
-2.576314e-08
0.005642622
-2.55533e-08
0.005642648
-2.586555e-08
0.005642674
-2.6475e-08
0.005642701
-2.727031e-08
0.005642729
-2.817387e-08
0.005642758
-2.913292e-08
0.005642788
-3.011474e-08
0.005642819
-3.109756e-08
0.005642851
-3.206667e-08
0.005642884
-3.301209e-08
0.005642918
-3.392696e-08
0.005642953
-3.480691e-08
0.005642989
-3.564892e-08
0.005643025
-3.645142e-08
0.005643062
-3.72134e-08
0.0056431
-3.793479e-08
0.005643139
-3.861569e-08
0.005643178
-3.925684e-08
0.005643218
-3.985894e-08
0.005643258
-4.042313e-08
0.005643299
-4.095047e-08
0.00564334
-4.144225e-08
0.005643382
-4.189967e-08
0.005643424
-4.232405e-08
0.005643467
-4.271663e-08
0.00564351
-4.307865e-08
0.005643554
-4.341131e-08
0.005643597
-4.371573e-08
0.005643641
-4.399301e-08
0.005643685
-4.424411e-08
0.00564373
-4.446999e-08
0.005643775
-4.467145e-08
0.005643819
-4.48493e-08
0.005643864
-4.500413e-08
0.005643909
-4.513658e-08
0.005643955
-4.524706e-08
0.005644
-4.533604e-08
0.005644045
-4.540372e-08
0.005644091
-4.545037e-08
0.005644136
-4.547601e-08
0.005644182
-4.548072e-08
0.005644227
-4.546431e-08
0.005644273
-4.542667e-08
0.005644318
-4.536742e-08
0.005644363
-4.528624e-08
0.005644408
-4.518254e-08
0.005644453
-4.505583e-08
0.005644498
-4.490529e-08
0.005644543
-4.473023e-08
0.005644588
-4.452965e-08
0.005644632
-4.430265e-08
0.005644676
-4.404803e-08
0.00564472
-4.376468e-08
0.005644763
-4.345122e-08
0.005644806
-4.310637e-08
0.005644849
-4.272853e-08
0.005644891
-4.231627e-08
0.005644933
-4.186783e-08
0.005644974
-4.138163e-08
0.005645015
-4.085576e-08
0.005645055
-4.028854e-08
0.005645095
-3.967798e-08
0.005645134
-3.902231e-08
0.005645172
-3.831953e-08
0.00564521
-3.756787e-08
0.005645247
-3.676537e-08
0.005645283
-3.591036e-08
0.005645318
-3.500101e-08
0.005645352
-3.403584e-08
0.005645385
-3.30133e-08
0.005645417
-3.193222e-08
0.005645447
-3.079145e-08
0.005645477
-2.959028e-08
0.005645505
-2.832808e-08
0.005645532
-2.700477e-08
0.005645558
-2.562041e-08
0.005645582
-2.417567e-08
0.005645605
-2.267146e-08
0.005645626
-2.110934e-08
0.005645645
-1.949117e-08
0.005645663
-1.781956e-08
0.005645679
-1.609747e-08
0.005645694
-1.432873e-08
0.005645706
-1.251781e-08
0.005645717
-1.067048e-08
0.005645726
-8.794435e-09
0.005645732
-6.900938e-09
0.005645737
-5.012008e-09
0.005645741
-3.15811e-09
-1.47443e-09
0.005640857
-6.499231e-07
0.005640857
-3.44571e-07
0.005640914
-1.387293e-07
0.005640924
-1.135549e-07
0.005640943
-9.154309e-08
0.005640968
-6.786743e-08
0.005640991
-5.709562e-08
0.005641014
-5.280404e-08
0.005641038
-5.068803e-08
0.005641062
-5.013161e-08
0.005641087
-5.070633e-08
0.005641113
-5.193678e-08
0.00564114
-5.354848e-08
0.005641168
-5.539161e-08
0.005641197
-5.736401e-08
0.005641228
-5.939531e-08
0.005641259
-6.143819e-08
0.005641291
-6.346047e-08
0.005641324
-6.543993e-08
0.005641359
-6.736111e-08
0.005641394
-6.921365e-08
0.00564143
-7.099054e-08
0.005641467
-7.268755e-08
0.005641505
-7.430219e-08
0.005641543
-7.58336e-08
0.005641583
-7.728176e-08
0.005641623
-7.86477e-08
0.005641663
-7.993281e-08
0.005641704
-8.11391e-08
0.005641746
-8.226874e-08
0.005641789
-8.332422e-08
0.005641831
-8.430805e-08
0.005641875
-8.522289e-08
0.005641918
-8.607133e-08
0.005641963
-8.685598e-08
0.005642007
-8.757936e-08
0.005642052
-8.824388e-08
0.005642097
-8.885187e-08
0.005642142
-8.940546e-08
0.005642188
-8.990672e-08
0.005642234
-9.035747e-08
0.00564228
-9.075945e-08
0.005642326
-9.111412e-08
0.005642372
-9.142288e-08
0.005642419
-9.168682e-08
0.005642466
-9.190697e-08
0.005642512
-9.208404e-08
0.005642559
-9.221868e-08
0.005642606
-9.231121e-08
0.005642653
-9.23619e-08
0.0056427
-9.237067e-08
0.005642747
-9.23374e-08
0.005642793
-9.226162e-08
0.00564284
-9.214281e-08
0.005642887
-9.198009e-08
0.005642933
-9.177256e-08
0.00564298
-9.151892e-08
0.005643026
-9.121787e-08
0.005643072
-9.086771e-08
0.005643118
-9.046675e-08
0.005643164
-9.001287e-08
0.005643209
-8.950397e-08
0.005643254
-8.893756e-08
0.005643299
-8.831116e-08
0.005643344
-8.762187e-08
0.005643388
-8.686686e-08
0.005643432
-8.604289e-08
0.005643475
-8.514678e-08
0.005643518
-8.417502e-08
0.00564356
-8.312414e-08
0.005643602
-8.199039e-08
0.005643643
-8.077014e-08
0.005643683
-7.945951e-08
0.005643723
-7.805478e-08
0.005643762
-7.655207e-08
0.0056438
-7.494777e-08
0.005643837
-7.323817e-08
0.005643874
-7.141992e-08
0.005643909
-6.948971e-08
0.005643944
-6.744472e-08
0.005643977
-6.528226e-08
0.005644009
-6.300028e-08
0.00564404
-6.059704e-08
0.00564407
-5.807156e-08
0.005644098
-5.542331e-08
0.005644125
-5.26527e-08
0.005644151
-4.976074e-08
0.005644175
-4.674947e-08
0.005644198
-4.362172e-08
0.005644218
-4.038144e-08
0.005644238
-3.703349e-08
0.005644255
-3.358394e-08
0.005644271
-3.003989e-08
0.005644285
-2.640974e-08
0.005644297
-2.270312e-08
0.005644307
-1.893121e-08
0.005644315
-1.51068e-08
0.005644321
-1.124491e-08
0.005644325
-7.361896e-09
-3.475543e-09
0.005641128
-3.57838e-07
0.005641023
-2.387425e-07
0.00564102
-1.347865e-07
0.005641022
-1.155269e-07
0.005641034
-1.028504e-07
0.005641054
-8.793296e-08
0.005641077
-7.951158e-08
0.0056411
-7.592661e-08
0.005641124
-7.457656e-08
0.005641149
-7.475306e-08
0.005641174
-7.607572e-08
0.0056412
-7.814271e-08
0.005641227
-8.067338e-08
0.005641255
-8.348994e-08
0.005641284
-8.646823e-08
0.005641314
-8.951899e-08
0.005641345
-9.257941e-08
0.005641377
-9.56052e-08
0.00564141
-9.856506e-08
0.005641444
-1.01437e-07
0.005641479
-1.042059e-07
0.005641515
-1.068617e-07
0.005641552
-1.09398e-07
0.005641589
-1.118112e-07
0.005641627
-1.140999e-07
0.005641666
-1.162642e-07
0.005641706
-1.183056e-07
0.005641746
-1.202262e-07
0.005641787
-1.220288e-07
0.005641829
-1.23717e-07
0.00564187
-1.252942e-07
0.005641913
-1.267644e-07
0.005641956
-1.281314e-07
0.005641999
-1.293992e-07
0.005642043
-1.305716e-07
0.005642087
-1.316525e-07
0.005642131
-1.326454e-07
0.005642176
-1.335539e-07
0.005642221
-1.343811e-07
0.005642266
-1.351301e-07
0.005642311
-1.358037e-07
0.005642357
-1.364044e-07
0.005642403
-1.369345e-07
0.005642449
-1.37396e-07
0.005642495
-1.377906e-07
0.005642541
-1.381198e-07
0.005642587
-1.383847e-07
0.005642634
-1.385861e-07
0.00564268
-1.387248e-07
0.005642726
-1.388009e-07
0.005642773
-1.388144e-07
0.005642819
-1.387651e-07
0.005642866
-1.386524e-07
0.005642912
-1.384753e-07
0.005642958
-1.382327e-07
0.005643004
-1.37923e-07
0.00564305
-1.375446e-07
0.005643096
-1.370952e-07
0.005643142
-1.365725e-07
0.005643187
-1.359737e-07
0.005643233
-1.352959e-07
0.005643278
-1.345357e-07
0.005643322
-1.336896e-07
0.005643367
-1.327537e-07
0.005643411
-1.317237e-07
0.005643455
-1.305953e-07
0.005643498
-1.293637e-07
0.005643541
-1.280239e-07
0.005643583
-1.26571e-07
0.005643625
-1.249994e-07
0.005643666
-1.233036e-07
0.005643707
-1.214781e-07
0.005643747
-1.195171e-07
0.005643786
-1.174148e-07
0.005643825
-1.151656e-07
0.005643863
-1.127637e-07
0.0056439
-1.102037e-07
0.005643936
-1.074804e-07
0.005643971
-1.045889e-07
0.005644005
-1.015246e-07
0.005644038
-9.828371e-08
0.00564407
-9.48628e-08
0.0056441
-9.125934e-08
0.00564413
-8.747161e-08
0.005644158
-8.349891e-08
0.005644185
-7.934157e-08
0.00564421
-7.500118e-08
0.005644234
-7.04806e-08
0.005644256
-6.578412e-08
0.005644276
-6.091747e-08
0.005644295
-5.5888e-08
0.005644312
-5.070461e-08
0.005644328
-4.53779e-08
0.005644341
-3.992016e-08
0.005644353
-3.434542e-08
0.005644362
-2.866947e-08
0.00564437
-2.290963e-08
0.005644376
-1.708432e-08
0.00564438
-1.121049e-08
-5.297856e-09
0.005641219
-2.005258e-07
0.005641156
-1.755099e-07
0.005641154
-1.316301e-07
0.005641158
-1.189638e-07
0.005641166
-1.1077e-07
0.005641181
-1.018938e-07
0.005641198
-9.665315e-08
0.005641217
-9.489795e-08
0.005641238
-9.518019e-08
0.00564126
-9.68458e-08
0.005641283
-9.953229e-08
0.005641308
-1.029053e-07
0.005641334
-1.067085e-07
0.005641361
-1.107661e-07
0.005641389
-1.149523e-07
0.005641419
-1.191757e-07
0.00564145
-1.233702e-07
0.005641481
-1.274887e-07
0.005641514
-1.314975e-07
0.005641548
-1.353732e-07
0.005641583
-1.390994e-07
0.005641619
-1.426656e-07
0.005641655
-1.460655e-07
0.005641693
-1.49296e-07
0.005641731
-1.523563e-07
0.00564177
-1.552476e-07
0.00564181
-1.579723e-07
0.00564185
-1.605341e-07
0.005641891
-1.629373e-07
0.005641932
-1.651865e-07
0.005641974
-1.672871e-07
0.005642016
-1.692443e-07
0.005642059
-1.710635e-07
0.005642103
-1.727502e-07
0.005642146
-1.743097e-07
0.00564219
-1.75747e-07
0.005642235
-1.770671e-07
0.005642279
-1.782748e-07
0.005642324
-1.793743e-07
0.00564237
-1.803697e-07
0.005642415
-1.812649e-07
0.005642461
-1.820632e-07
0.005642507
-1.827676e-07
0.005642552
-1.833809e-07
0.005642599
-1.839055e-07
0.005642645
-1.843431e-07
0.005642691
-1.846954e-07
0.005642737
-1.849636e-07
0.005642784
-1.851483e-07
0.00564283
-1.852502e-07
0.005642877
-1.85269e-07
0.005642923
-1.852045e-07
0.005642969
-1.850558e-07
0.005643016
-1.848218e-07
0.005643062
-1.845009e-07
0.005643108
-1.84091e-07
0.005643154
-1.835899e-07
0.0056432
-1.829946e-07
0.005643246
-1.82302e-07
0.005643291
-1.815085e-07
0.005643337
-1.8061e-07
0.005643382
-1.796022e-07
0.005643427
-1.784802e-07
0.005643471
-1.772389e-07
0.005643515
-1.758726e-07
0.005643559
-1.743755e-07
0.005643602
-1.727411e-07
0.005643645
-1.709629e-07
0.005643688
-1.69034e-07
0.00564373
-1.669472e-07
0.005643771
-1.64695e-07
0.005643812
-1.6227e-07
0.005643852
-1.596643e-07
0.005643891
-1.568702e-07
0.00564393
-1.5388e-07
0.005643968
-1.50686e-07
0.005644005
-1.472809e-07
0.005644041
-1.436575e-07
0.005644076
-1.39809e-07
0.005644111
-1.357295e-07
0.005644144
-1.314134e-07
0.005644176
-1.268562e-07
0.005644206
-1.220542e-07
0.005644236
-1.170051e-07
0.005644264
-1.117075e-07
0.005644291
-1.06162e-07
0.005644316
-1.003704e-07
0.00564434
-9.433634e-08
0.005644363
-8.806545e-08
0.005644383
-8.156528e-08
0.005644402
-7.484544e-08
0.005644419
-6.791772e-08
0.005644435
-6.079603e-08
0.005644448
-5.349647e-08
0.00564446
-4.603723e-08
0.00564447
-3.843847e-08
0.005644478
-3.072199e-08
0.005644483
-2.291122e-08
0.005644487
-1.502859e-08
-7.104613e-09
0.005641289
-1.305505e-07
0.005641247
-1.332347e-07
0.005641233
-1.168795e-07
0.005641228
-1.136185e-07
0.00564123
-1.123106e-07
0.005641239
-1.104051e-07
0.005641253
-1.100549e-07
0.00564127
-1.116063e-07
0.005641289
-1.144603e-07
0.00564131
-1.182353e-07
0.005641333
-1.227021e-07
0.005641358
-1.276461e-07
0.005641384
-1.328853e-07
0.005641412
-1.382823e-07
0.00564144
-1.437332e-07
0.00564147
-1.491591e-07
0.005641501
-1.545007e-07
0.005641533
-1.597141e-07
0.005641567
-1.647675e-07
0.005641601
-1.696381e-07
0.005641636
-1.743105e-07
0.005641672
-1.787747e-07
0.005641709
-1.830251e-07
0.005641747
-1.870594e-07
0.005641785
-1.908779e-07
0.005641824
-1.94483e-07
0.005641864
-1.978784e-07
0.005641905
-2.01069e-07
0.005641946
-2.040608e-07
0.005641987
-2.068599e-07
0.005642029
-2.094731e-07
0.005642072
-2.119072e-07
0.005642115
-2.141691e-07
0.005642159
-2.162658e-07
0.005642202
-2.182039e-07
0.005642247
-2.1999e-07
0.005642291
-2.216302e-07
0.005642336
-2.231304e-07
0.005642381
-2.244961e-07
0.005642426
-2.257325e-07
0.005642472
-2.268443e-07
0.005642518
-2.278358e-07
0.005642564
-2.287108e-07
0.00564261
-2.294726e-07
0.005642656
-2.301241e-07
0.005642702
-2.306679e-07
0.005642749
-2.311057e-07
0.005642795
-2.314391e-07
0.005642842
-2.316691e-07
0.005642888
-2.317962e-07
0.005642935
-2.318203e-07
0.005642981
-2.31741e-07
0.005643028
-2.315573e-07
0.005643074
-2.312676e-07
0.00564312
-2.308701e-07
0.005643167
-2.303622e-07
0.005643213
-2.297409e-07
0.005643259
-2.290028e-07
0.005643305
-2.281438e-07
0.00564335
-2.271594e-07
0.005643396
-2.260445e-07
0.005643441
-2.247938e-07
0.005643486
-2.23401e-07
0.00564353
-2.218598e-07
0.005643575
-2.20163e-07
0.005643619
-2.183033e-07
0.005643662
-2.162727e-07
0.005643705
-2.140629e-07
0.005643748
-2.116652e-07
0.00564379
-2.090704e-07
0.005643831
-2.062694e-07
0.005643872
-2.032524e-07
0.005643913
-2.000096e-07
0.005643952
-1.965314e-07
0.005643991
-1.928077e-07
0.005644029
-1.88829e-07
0.005644067
-1.845857e-07
0.005644103
-1.800687e-07
0.005644139
-1.752694e-07
0.005644173
-1.701798e-07
0.005644206
-1.647931e-07
0.005644239
-1.59103e-07
0.00564427
-1.531048e-07
0.005644299
-1.467952e-07
0.005644328
-1.401725e-07
0.005644355
-1.332367e-07
0.005644381
-1.2599e-07
0.005644405
-1.184369e-07
0.005644427
-1.10584e-07
0.005644448
-1.024406e-07
0.005644467
-9.40186e-08
0.005644485
-8.533264e-08
0.0056445
-7.640002e-08
0.005644514
-6.724076e-08
0.005644526
-5.787747e-08
0.005644536
-4.833517e-08
0.005644544
-3.864084e-08
0.00564455
-2.882356e-08
0.005644553
-1.891115e-08
-8.943451e-09
0.005641295
-8.663216e-08
0.005641267
-1.05061e-07
0.005641258
-1.066806e-07
0.005641256
-1.116802e-07
0.005641261
-1.162713e-07
0.00564127
-1.197261e-07
0.005641284
-1.234669e-07
0.0056413
-1.280409e-07
0.005641319
-1.333338e-07
0.00564134
-1.391844e-07
0.005641363
-1.454658e-07
0.005641387
-1.52044e-07
0.005641413
-1.587902e-07
0.00564144
-1.655965e-07
0.005641469
-1.723763e-07
0.005641499
-1.79061e-07
0.00564153
-1.855976e-07
0.005641562
-1.919459e-07
0.005641595
-1.980765e-07
0.00564163
-2.039685e-07
0.005641665
-2.096078e-07
0.005641701
-2.149859e-07
0.005641738
-2.200988e-07
0.005641776
-2.249455e-07
0.005641814
-2.29528e-07
0.005641854
-2.338504e-07
0.005641894
-2.379181e-07
0.005641934
-2.417378e-07
0.005641976
-2.453172e-07
0.005642017
-2.486642e-07
0.00564206
-2.517874e-07
0.005642102
-2.546953e-07
0.005642145
-2.573964e-07
0.005642189
-2.598994e-07
0.005642233
-2.622123e-07
0.005642277
-2.643432e-07
0.005642322
-2.662996e-07
0.005642367
-2.680887e-07
0.005642412
-2.697173e-07
0.005642458
-2.711914e-07
0.005642503
-2.725168e-07
0.005642549
-2.736988e-07
0.005642595
-2.747419e-07
0.005642641
-2.756501e-07
0.005642687
-2.76427e-07
0.005642734
-2.770756e-07
0.00564278
-2.775981e-07
0.005642827
-2.779964e-07
0.005642873
-2.782715e-07
0.00564292
-2.784242e-07
0.005642967
-2.784544e-07
0.005643013
-2.783616e-07
0.00564306
-2.781445e-07
0.005643106
-2.778015e-07
0.005643153
-2.773301e-07
0.005643199
-2.767273e-07
0.005643245
-2.759896e-07
0.005643291
-2.751127e-07
0.005643337
-2.740919e-07
0.005643383
-2.729218e-07
0.005643429
-2.715962e-07
0.005643474
-2.701087e-07
0.005643519
-2.684518e-07
0.005643564
-2.666177e-07
0.005643608
-2.645981e-07
0.005643652
-2.623838e-07
0.005643696
-2.599654e-07
0.005643739
-2.573328e-07
0.005643782
-2.544754e-07
0.005643824
-2.513822e-07
0.005643866
-2.480419e-07
0.005643907
-2.444428e-07
0.005643948
-2.40573e-07
0.005643988
-2.364205e-07
0.005644027
-2.319733e-07
0.005644065
-2.272194e-07
0.005644103
-2.221471e-07
0.005644139
-2.167453e-07
0.005644175
-2.110031e-07
0.00564421
-2.049108e-07
0.005644244
-1.984595e-07
0.005644276
-1.916415e-07
0.005644307
-1.844506e-07
0.005644337
-1.768825e-07
0.005644366
-1.689346e-07
0.005644394
-1.606066e-07
0.005644419
-1.519008e-07
0.005644444
-1.42822e-07
0.005644467
-1.333781e-07
0.005644488
-1.235799e-07
0.005644507
-1.134415e-07
0.005644525
-1.029803e-07
0.005644541
-9.221712e-08
0.005644555
-8.11759e-08
0.005644567
-6.988387e-08
0.005644577
-5.837119e-08
0.005644585
-4.667051e-08
0.005644591
-3.481737e-08
0.005644595
-2.284621e-08
-1.080839e-08
0.005641304
-6.645691e-08
0.00564129
-9.011444e-08
0.005641284
-9.990286e-08
0.005641283
-1.102562e-07
0.005641287
-1.194923e-07
0.005641295
-1.274566e-07
0.005641306
-1.350958e-07
0.005641321
-1.429026e-07
0.005641339
-1.50949e-07
0.005641359
-1.591943e-07
0.005641381
-1.675825e-07
0.005641405
-1.760416e-07
0.00564143
-1.844922e-07
0.005641458
-1.928611e-07
0.005641486
-2.010859e-07
0.005641516
-2.091156e-07
0.005641548
-2.169096e-07
0.00564158
-2.244366e-07
0.005641613
-2.31674e-07
0.005641648
-2.386061e-07
0.005641684
-2.452228e-07
0.00564172
-2.515193e-07
0.005641757
-2.574942e-07
0.005641796
-2.631495e-07
0.005641834
-2.684897e-07
0.005641874
-2.735212e-07
0.005641914
-2.782518e-07
0.005641955
-2.826904e-07
0.005641997
-2.868466e-07
0.005642039
-2.907306e-07
0.005642081
-2.943528e-07
0.005642124
-2.977237e-07
0.005642168
-3.008536e-07
0.005642212
-3.037527e-07
0.005642256
-3.064308e-07
0.0056423
-3.088974e-07
0.005642345
-3.111615e-07
0.00564239
-3.132316e-07
0.005642436
-3.151155e-07
0.005642481
-3.168206e-07
0.005642527
-3.183537e-07
0.005642573
-3.197207e-07
0.005642619
-3.209271e-07
0.005642665
-3.219777e-07
0.005642712
-3.228765e-07
0.005642758
-3.236271e-07
0.005642805
-3.242321e-07
0.005642852
-3.246936e-07
0.005642898
-3.25013e-07
0.005642945
-3.25191e-07
0.005642992
-3.252277e-07
0.005643039
-3.251223e-07
0.005643085
-3.248735e-07
0.005643132
-3.244792e-07
0.005643179
-3.239367e-07
0.005643225
-3.232425e-07
0.005643271
-3.223924e-07
0.005643318
-3.213816e-07
0.005643364
-3.202044e-07
0.00564341
-3.188544e-07
0.005643455
-3.173247e-07
0.005643501
-3.156074e-07
0.005643546
-3.136941e-07
0.005643591
-3.115756e-07
0.005643636
-3.09242e-07
0.00564368
-3.066826e-07
0.005643724
-3.038864e-07
0.005643767
-3.008413e-07
0.00564381
-2.975351e-07
0.005643853
-2.939547e-07
0.005643895
-2.900866e-07
0.005643936
-2.859172e-07
0.005643977
-2.814321e-07
0.005644018
-2.766172e-07
0.005644057
-2.714581e-07
0.005644096
-2.659404e-07
0.005644134
-2.600503e-07
0.005644171
-2.537739e-07
0.005644207
-2.470985e-07
0.005644242
-2.40012e-07
0.005644276
-2.325035e-07
0.005644309
-2.245635e-07
0.00564434
-2.161841e-07
0.005644371
-2.073597e-07
0.0056444
-1.980865e-07
0.005644428
-1.883639e-07
0.005644454
-1.781938e-07
0.005644479
-1.675813e-07
0.005644502
-1.565353e-07
0.005644524
-1.450679e-07
0.005644543
-1.331956e-07
0.005644561
-1.209384e-07
0.005644577
-1.083205e-07
0.005644592
-9.537017e-08
0.005644604
-8.211936e-08
0.005644614
-6.860372e-08
0.005644622
-5.486187e-08
0.005644628
-4.093603e-08
0.005644632
-2.686719e-08
-1.271614e-08
0.005641297
-5.357017e-08
0.005641288
-8.094201e-08
0.005641285
-9.63061e-08
0.005641287
-1.108977e-07
0.005641292
-1.242608e-07
0.005641301
-1.362291e-07
0.005641313
-1.474227e-07
0.005641329
-1.582866e-07
0.005641347
-1.689867e-07
0.005641367
-1.795657e-07
0.00564139
-1.900278e-07
0.005641414
-2.003524e-07
0.00564144
-2.105013e-07
0.005641467
-2.204315e-07
0.005641496
-2.301025e-07
0.005641527
-2.394787e-07
0.005641558
-2.485312e-07
0.005641591
-2.572371e-07
0.005641625
-2.655802e-07
0.00564166
-2.735498e-07
0.005641695
-2.8114e-07
0.005641732
-2.883494e-07
0.00564177
-2.951799e-07
0.005641808
-3.016364e-07
0.005641848
-3.07726e-07
0.005641887
-3.134577e-07
0.005641928
-3.188417e-07
0.005641969
-3.238893e-07
0.005642011
-3.286124e-07
0.005642053
-3.330234e-07
0.005642096
-3.371347e-07
0.005642139
-3.409587e-07
0.005642183
-3.445078e-07
0.005642227
-3.477937e-07
0.005642271
-3.508282e-07
0.005642316
-3.536221e-07
0.005642361
-3.561859e-07
0.005642406
-3.585294e-07
0.005642451
-3.606619e-07
0.005642497
-3.625917e-07
0.005642543
-3.643266e-07
0.005642589
-3.658735e-07
0.005642636
-3.672388e-07
0.005642682
-3.684278e-07
0.005642728
-3.694453e-07
0.005642775
-3.702953e-07
0.005642822
-3.709808e-07
0.005642869
-3.715043e-07
0.005642915
-3.718673e-07
0.005642962
-3.720707e-07
0.005643009
-3.721146e-07
0.005643056
-3.719981e-07
0.005643103
-3.717196e-07
0.00564315
-3.71277e-07
0.005643196
-3.706669e-07
0.005643243
-3.698855e-07
0.00564329
-3.68928e-07
0.005643336
-3.677888e-07
0.005643382
-3.664615e-07
0.005643428
-3.649389e-07
0.005643474
-3.632128e-07
0.00564352
-3.612745e-07
0.005643565
-3.591141e-07
0.00564361
-3.567211e-07
0.005643655
-3.540841e-07
0.0056437
-3.51191e-07
0.005643744
-3.480289e-07
0.005643787
-3.44584e-07
0.005643831
-3.40842e-07
0.005643874
-3.36788e-07
0.005643916
-3.324062e-07
0.005643958
-3.276806e-07
0.005643999
-3.225948e-07
0.005644039
-3.17132e-07
0.005644079
-3.112755e-07
0.005644118
-3.050083e-07
0.005644156
-2.983139e-07
0.005644194
-2.911763e-07
0.00564423
-2.835799e-07
0.005644266
-2.755103e-07
0.0056443
-2.669543e-07
0.005644334
-2.579002e-07
0.005644366
-2.483384e-07
0.005644397
-2.382613e-07
0.005644426
-2.276641e-07
0.005644454
-2.16545e-07
0.005644481
-2.049056e-07
0.005644506
-1.927511e-07
0.00564453
-1.80091e-07
0.005644552
-1.669387e-07
0.005644572
-1.533126e-07
0.00564459
-1.392357e-07
0.005644606
-1.247355e-07
0.005644621
-1.098446e-07
0.005644633
-9.460015e-08
0.005644644
-7.904352e-08
0.005644652
-6.321996e-08
0.005644658
-4.717917e-08
0.005644663
-3.096966e-08
-1.466448e-08
0.005641291
-4.789872e-08
0.005641288
-7.737306e-08
0.005641288
-9.601735e-08
0.005641292
-1.136907e-07
0.005641298
-1.303276e-07
0.005641308
-1.455875e-07
0.005641321
-1.598664e-07
0.005641336
-1.735467e-07
0.005641354
-1.868076e-07
0.005641374
-1.997158e-07
0.005641396
-2.122995e-07
0.00564142
-2.24563e-07
0.005641446
-2.364915e-07
0.005641474
-2.480621e-07
0.005641503
-2.592505e-07
0.005641533
-2.700344e-07
0.005641565
-2.803955e-07
0.005641598
-2.9032e-07
0.005641632
-2.997989e-07
0.005641668
-3.088277e-07
0.005641704
-3.17406e-07
0.005641741
-3.255369e-07
0.005641779
-3.332267e-07
0.005641818
-3.404841e-07
0.005641857
-3.473196e-07
0.005641897
-3.537455e-07
0.005641938
-3.597752e-07
0.00564198
-3.654227e-07
0.005642022
-3.707026e-07
0.005642064
-3.756298e-07
0.005642107
-3.802191e-07
0.005642151
-3.844852e-07
0.005642195
-3.884423e-07
0.005642239
-3.921044e-07
0.005642284
-3.954847e-07
0.005642329
-3.98596e-07
0.005642374
-4.014501e-07
0.005642419
-4.040584e-07
0.005642465
-4.064312e-07
0.005642511
-4.085782e-07
0.005642557
-4.105082e-07
0.005642604
-4.122291e-07
0.00564265
-4.137479e-07
0.005642697
-4.150708e-07
0.005642743
-4.162033e-07
0.00564279
-4.171496e-07
0.005642837
-4.179134e-07
0.005642884
-4.184974e-07
0.005642931
-4.189034e-07
0.005642978
-4.191323e-07
0.005643025
-4.191842e-07
0.005643072
-4.190582e-07
0.005643119
-4.187525e-07
0.005643166
-4.182647e-07
0.005643213
-4.175911e-07
0.00564326
-4.167273e-07
0.005643307
-4.156679e-07
0.005643353
-4.144068e-07
0.0056434
-4.129366e-07
0.005643446
-4.112492e-07
0.005643492
-4.093357e-07
0.005643538
-4.071858e-07
0.005643584
-4.047888e-07
0.005643629
-4.021325e-07
0.005643674
-3.992042e-07
0.005643719
-3.959901e-07
0.005643763
-3.924756e-07
0.005643807
-3.88645e-07
0.005643851
-3.844821e-07
0.005643894
-3.799696e-07
0.005643937
-3.750898e-07
0.005643979
-3.698243e-07
0.005644021
-3.641541e-07
0.005644062
-3.5806e-07
0.005644102
-3.515224e-07
0.005644141
-3.445218e-07
0.00564418
-3.37039e-07
0.005644218
-3.29055e-07
0.005644255
-3.205516e-07
0.005644291
-3.115117e-07
0.005644326
-3.019193e-07
0.00564436
-2.917605e-07
0.005644392
-2.810231e-07
0.005644424
-2.696977e-07
0.005644454
-2.577777e-07
0.005644483
-2.452602e-07
0.00564451
-2.321457e-07
0.005644536
-2.184395e-07
0.00564456
-2.04151e-07
0.005644582
-1.892953e-07
0.005644602
-1.738922e-07
0.005644621
-1.579675e-07
0.005644638
-1.415523e-07
0.005644653
-1.246837e-07
0.005644666
-1.07404e-07
0.005644676
-8.976082e-08
0.005644685
-7.180637e-08
0.005644691
-5.359809e-08
0.005644696
-3.519222e-08
-1.667266e-08
0.00564128
-4.483324e-08
0.00564128
-7.647044e-08
0.005641282
-9.777879e-08
0.005641287
-1.180386e-07
0.005641295
-1.37588e-07
0.005641306
-1.558574e-07
0.005641319
-1.730317e-07
0.005641335
-1.894233e-07
0.005641353
-2.051936e-07
0.005641374
-2.204094e-07
0.005641397
-2.351091e-07
0.005641422
-2.493135e-07
0.005641448
-2.630258e-07
0.005641476
-2.762397e-07
0.005641506
-2.889458e-07
0.005641537
-3.011345e-07
0.005641569
-3.127982e-07
0.005641603
-3.239324e-07
0.005641637
-3.345357e-07
0.005641673
-3.446101e-07
0.00564171
-3.541611e-07
0.005641747
-3.63197e-07
0.005641786
-3.717284e-07
0.005641825
-3.797683e-07
0.005641865
-3.873309e-07
0.005641906
-3.944322e-07
0.005641947
-4.010886e-07
0.005641989
-4.073173e-07
0.005642031
-4.131357e-07
0.005642074
-4.185613e-07
0.005642117
-4.236114e-07
0.005642161
-4.283029e-07
0.005642205
-4.326523e-07
0.00564225
-4.366754e-07
0.005642295
-4.403874e-07
0.00564234
-4.438027e-07
0.005642385
-4.469347e-07
0.005642431
-4.497961e-07
0.005642477
-4.523987e-07
0.005642523
-4.547532e-07
0.005642569
-4.568696e-07
0.005642616
-4.587565e-07
0.005642663
-4.60422e-07
0.005642709
-4.61873e-07
0.005642756
-4.631153e-07
0.005642803
-4.64154e-07
0.00564285
-4.64993e-07
0.005642897
-4.656353e-07
0.005642945
-4.660829e-07
0.005642992
-4.663369e-07
0.005643039
-4.663973e-07
0.005643086
-4.662633e-07
0.005643133
-4.659329e-07
0.00564318
-4.654032e-07
0.005643227
-4.646703e-07
0.005643274
-4.637294e-07
0.005643321
-4.625744e-07
0.005643368
-4.611985e-07
0.005643415
-4.595936e-07
0.005643461
-4.577507e-07
0.005643508
-4.556597e-07
0.005643554
-4.533095e-07
0.0056436
-4.506878e-07
0.005643645
-4.477813e-07
0.005643691
-4.445756e-07
0.005643736
-4.410554e-07
0.00564378
-4.372042e-07
0.005643825
-4.330046e-07
0.005643869
-4.28438e-07
0.005643912
-4.234853e-07
0.005643955
-4.181262e-07
0.005643998
-4.123399e-07
0.00564404
-4.061049e-07
0.005644081
-3.993992e-07
0.005644122
-3.922004e-07
0.005644162
-3.844861e-07
0.005644201
-3.762339e-07
0.005644239
-3.674221e-07
0.005644277
-3.580292e-07
0.005644313
-3.48035e-07
0.005644349
-3.374207e-07
0.005644383
-3.261693e-07
0.005644416
-3.142661e-07
0.005644448
-3.016992e-07
0.005644479
-2.8846e-07
0.005644508
-2.745435e-07
0.005644536
-2.599494e-07
0.005644562
-2.446819e-07
0.005644587
-2.28751e-07
0.00564461
-2.121721e-07
0.005644631
-1.949669e-07
0.00564465
-1.771638e-07
0.005644667
-1.587975e-07
0.005644682
-1.399095e-07
0.005644695
-1.205478e-07
0.005644706
-1.007668e-07
0.005644715
-8.062633e-08
0.005644722
-6.019256e-08
0.005644726
-3.95306e-08
-1.873854e-08
0.005641269
-4.432653e-08
0.005641272
-7.803859e-08
0.005641276
-1.015498e-07
0.005641283
-1.241095e-07
0.005641292
-1.462621e-07
0.005641304
-1.672266e-07
0.005641318
-1.870344e-07
0.005641334
-2.059452e-07
0.005641353
-2.240951e-07
0.005641374
-2.415376e-07
0.005641398
-2.583102e-07
0.005641423
-2.744386e-07
0.005641449
-2.899348e-07
0.005641478
-3.04802e-07
0.005641508
-3.190402e-07
0.005641539
-3.326494e-07
0.005641572
-3.456302e-07
0.005641606
-3.579858e-07
0.005641641
-3.697218e-07
0.005641678
-3.808468e-07
0.005641715
-3.913721e-07
0.005641753
-4.013111e-07
0.005641792
-4.106797e-07
0.005641831
-4.194951e-07
0.005641872
-4.27776e-07
0.005641913
-4.355422e-07
0.005641954
-4.428136e-07
0.005641997
-4.49611e-07
0.005642039
-4.559548e-07
0.005642083
-4.618655e-07
0.005642126
-4.673629e-07
0.005642171
-4.724665e-07
0.005642215
-4.771952e-07
0.00564226
-4.815667e-07
0.005642305
-4.855983e-07
0.005642351
-4.893061e-07
0.005642396
-4.927052e-07
0.005642442
-4.958098e-07
0.005642488
-4.986328e-07
0.005642535
-5.011865e-07
0.005642581
-5.034815e-07
0.005642628
-5.055278e-07
0.005642675
-5.073341e-07
0.005642722
-5.089081e-07
0.005642769
-5.102562e-07
0.005642816
-5.113839e-07
0.005642864
-5.122957e-07
0.005642911
-5.129949e-07
0.005642958
-5.134836e-07
0.005643006
-5.137631e-07
0.005643053
-5.138334e-07
0.005643101
-5.136936e-07
0.005643148
-5.133415e-07
0.005643195
-5.127741e-07
0.005643243
-5.11987e-07
0.00564329
-5.109749e-07
0.005643337
-5.097313e-07
0.005643384
-5.082486e-07
0.005643431
-5.065179e-07
0.005643478
-5.045295e-07
0.005643524
-5.022721e-07
0.005643571
-4.997335e-07
0.005643617
-4.969002e-07
0.005643663
-4.937576e-07
0.005643709
-4.902897e-07
0.005643754
-4.864794e-07
0.005643799
-4.823086e-07
0.005643844
-4.777579e-07
0.005643888
-4.728066e-07
0.005643932
-4.674333e-07
0.005643976
-4.616153e-07
0.005644019
-4.553293e-07
0.005644061
-4.485509e-07
0.005644103
-4.412552e-07
0.005644144
-4.33417e-07
0.005644185
-4.250107e-07
0.005644224
-4.160106e-07
0.005644263
-4.063914e-07
0.005644301
-3.961285e-07
0.005644339
-3.851981e-07
0.005644375
-3.735782e-07
0.00564441
-3.612482e-07
0.005644444
-3.481904e-07
0.005644476
-3.343899e-07
0.005644508
-3.198353e-07
0.005644538
-3.045197e-07
0.005644566
-2.884407e-07
0.005644593
-2.716017e-07
0.005644618
-2.540119e-07
0.005644642
-2.356875e-07
0.005644664
-2.166516e-07
0.005644683
-1.969347e-07
0.005644701
-1.765753e-07
0.005644717
-1.556196e-07
0.00564473
-1.341215e-07
0.005644742
-1.121424e-07
0.005644751
-8.975033e-08
0.005644758
-6.702071e-08
0.005644762
-4.4028e-08
-2.088369e-08
0.005641257
-4.497611e-08
0.00564126
-8.101655e-08
0.005641266
-1.066604e-07
0.005641274
-1.314011e-07
0.005641284
-1.56012e-07
0.005641297
-1.795327e-07
0.005641312
-2.018656e-07
0.005641329
-2.232235e-07
0.005641349
-2.437111e-07
0.005641371
-2.633606e-07
0.005641394
-2.821999e-07
0.00564142
-3.002541e-07
0.005641448
-3.175384e-07
0.005641477
-3.340626e-07
0.005641508
-3.498342e-07
0.00564154
-3.648612e-07
0.005641573
-3.791526e-07
0.005641608
-3.92719e-07
0.005641644
-4.055738e-07
0.005641681
-4.177321e-07
0.005641718
-4.292117e-07
0.005641757
-4.40032e-07
0.005641796
-4.502142e-07
0.005641837
-4.597806e-07
0.005641878
-4.687546e-07
0.005641919
-4.771601e-07
0.005641961
-4.850212e-07
0.005642004
-4.923621e-07
0.005642047
-4.992066e-07
0.005642091
-5.055783e-07
0.005642135
-5.115e-07
0.00564218
-5.169936e-07
0.005642224
-5.220803e-07
0.00564227
-5.267803e-07
0.005642315
-5.311127e-07
0.005642361