/*--------------------------------*- C++ -*----------------------------------*\
| =========                 |                                                 |
| \\      /  F ield         | OpenFOAM: The Open Source CFD Toolbox           |
|  \\    /   O peration     | Version:  2.3.0                                 |
|   \\  /    A nd           | Web:      www.OpenFOAM.org                      |
|    \\/     M anipulation  |                                                 |
\*---------------------------------------------------------------------------*/
FoamFile
{
    version     2.0;
    format      ascii;
    class       volScalarField;
    location    "9900/wall";
    object      T;
}
// * * * * * * * * * * * * * * * * * * * * * * * * * * * * * * * * * * * * * //

dimensions      [0 0 0 1 0 0 0];

internalField   nonuniform List<scalar> 
2000
(
1177.025
1177.143
1177.206
1177.214
1177.215
1177.217
1177.219
1177.22
1177.22
1177.221
1177.221
1177.222
1177.222
1177.222
1177.223
1177.223
1177.223
1177.223
1177.224
1177.224
1177.224
1177.224
1177.225
1177.225
1177.225
1177.226
1177.226
1177.226
1177.226
1177.227
1177.227
1177.227
1177.227
1177.228
1177.228
1177.228
1177.228
1177.228
1177.229
1177.229
1177.229
1177.229
1177.23
1177.23
1177.23
1177.23
1177.231
1177.231
1177.231
1177.231
1177.232
1177.232
1177.232
1177.232
1177.233
1177.233
1177.233
1177.233
1177.234
1177.234
1177.234
1177.234
1177.235
1177.235
1177.235
1177.235
1177.235
1177.236
1177.236
1177.236
1177.236
1177.237
1177.237
1177.237
1177.237
1177.238
1177.238
1177.238
1177.238
1177.238
1177.239
1177.239
1177.239
1177.239
1177.24
1177.24
1177.24
1177.24
1177.24
1177.241
1177.241
1177.241
1177.241
1177.241
1177.242
1177.242
1177.242
1177.242
1177.242
1177.242
1132.131
1132.173
1132.209
1132.225
1132.232
1132.236
1132.239
1132.241
1132.242
1132.243
1132.244
1132.245
1132.245
1132.246
1132.246
1132.246
1132.247
1132.247
1132.247
1132.248
1132.248
1132.248
1132.248
1132.249
1132.249
1132.249
1132.249
1132.25
1132.25
1132.25
1132.25
1132.251
1132.251
1132.251
1132.251
1132.252
1132.252
1132.252
1132.252
1132.252
1132.253
1132.253
1132.253
1132.253
1132.254
1132.254
1132.254
1132.254
1132.255
1132.255
1132.255
1132.255
1132.255
1132.256
1132.256
1132.256
1132.256
1132.257
1132.257
1132.257
1132.257
1132.257
1132.258
1132.258
1132.258
1132.258
1132.259
1132.259
1132.259
1132.259
1132.259
1132.26
1132.26
1132.26
1132.26
1132.26
1132.261
1132.261
1132.261
1132.261
1132.262
1132.262
1132.262
1132.262
1132.262
1132.263
1132.263
1132.263
1132.263
1132.263
1132.263
1132.264
1132.264
1132.264
1132.264
1132.264
1132.264
1132.264
1132.264
1132.264
1087.192
1087.21
1087.229
1087.242
1087.25
1087.255
1087.259
1087.262
1087.263
1087.265
1087.266
1087.266
1087.267
1087.268
1087.268
1087.269
1087.269
1087.269
1087.27
1087.27
1087.27
1087.271
1087.271
1087.271
1087.271
1087.272
1087.272
1087.272
1087.272
1087.272
1087.273
1087.273
1087.273
1087.273
1087.274
1087.274
1087.274
1087.274
1087.274
1087.275
1087.275
1087.275
1087.275
1087.275
1087.276
1087.276
1087.276
1087.276
1087.276
1087.277
1087.277
1087.277
1087.277
1087.278
1087.278
1087.278
1087.278
1087.278
1087.279
1087.279
1087.279
1087.279
1087.279
1087.28
1087.28
1087.28
1087.28
1087.28
1087.281
1087.281
1087.281
1087.281
1087.281
1087.282
1087.282
1087.282
1087.282
1087.282
1087.283
1087.283
1087.283
1087.283
1087.283
1087.284
1087.284
1087.284
1087.284
1087.284
1087.284
1087.285
1087.285
1087.285
1087.285
1087.285
1087.285
1087.285
1087.285
1087.285
1087.285
1087.285
1042.234
1042.243
1042.254
1042.263
1042.27
1042.275
1042.279
1042.281
1042.283
1042.285
1042.286
1042.287
1042.288
1042.288
1042.289
1042.29
1042.29
1042.29
1042.291
1042.291
1042.291
1042.292
1042.292
1042.292
1042.292
1042.293
1042.293
1042.293
1042.293
1042.293
1042.294
1042.294
1042.294
1042.294
1042.294
1042.295
1042.295
1042.295
1042.295
1042.295
1042.296
1042.296
1042.296
1042.296
1042.296
1042.297
1042.297
1042.297
1042.297
1042.297
1042.298
1042.298
1042.298
1042.298
1042.298
1042.298
1042.299
1042.299
1042.299
1042.299
1042.299
1042.3
1042.3
1042.3
1042.3
1042.3
1042.301
1042.301
1042.301
1042.301
1042.301
1042.302
1042.302
1042.302
1042.302
1042.302
1042.302
1042.303
1042.303
1042.303
1042.303
1042.303
1042.303
1042.304
1042.304
1042.304
1042.304
1042.304
1042.304
1042.305
1042.305
1042.305
1042.305
1042.305
1042.305
1042.305
1042.305
1042.305
1042.305
1042.304
997.2673
997.2717
997.2781
997.2845
997.2899
997.2943
997.2978
997.3004
997.3025
997.3041
997.3054
997.3065
997.3073
997.308
997.3086
997.3092
997.3096
997.31
997.3104
997.3107
997.311
997.3112
997.3115
997.3117
997.312
997.3122
997.3124
997.3126
997.3128
997.313
997.3132
997.3134
997.3136
997.3138
997.314
997.3142
997.3143
997.3145
997.3147
997.3149
997.3151
997.3153
997.3154
997.3156
997.3158
997.316
997.3162
997.3163
997.3165
997.3167
997.3169
997.3171
997.3172
997.3174
997.3176
997.3178
997.3179
997.3181
997.3183
997.3185
997.3187
997.3188
997.319
997.3192
997.3194
997.3195
997.3197
997.3199
997.3201
997.3202
997.3204
997.3206
997.3207
997.3209
997.3211
997.3213
997.3214
997.3216
997.3218
997.3219
997.3221
997.3222
997.3224
997.3225
997.3227
997.3228
997.323
997.3231
997.3232
997.3233
997.3234
997.3235
997.3235
997.3236
997.3236
997.3236
997.3235
997.3234
997.3232
997.3229
952.2946
952.2972
952.3012
952.3056
952.3097
952.3133
952.3163
952.3188
952.3208
952.3224
952.3237
952.3248
952.3257
952.3264
952.327
952.3276
952.3281
952.3285
952.3288
952.3292
952.3294
952.3297
952.33
952.3302
952.3304
952.3306
952.3308
952.331
952.3312
952.3314
952.3316
952.3318
952.332
952.3321
952.3323
952.3325
952.3327
952.3328
952.333
952.3332
952.3333
952.3335
952.3337
952.3338
952.334
952.3342
952.3343
952.3345
952.3347
952.3348
952.335
952.3352
952.3353
952.3355
952.3357
952.3358
952.336
952.3362
952.3363
952.3365
952.3366
952.3368
952.337
952.3371
952.3373
952.3375
952.3376
952.3378
952.3379
952.3381
952.3383
952.3384
952.3386
952.3387
952.3389
952.339
952.3392
952.3394
952.3395
952.3397
952.3398
952.3399
952.3401
952.3402
952.3403
952.3405
952.3406
952.3407
952.3408
952.3409
952.341
952.341
952.3411
952.3411
952.341
952.341
952.3409
952.3408
952.3406
952.3403
907.3182
907.3199
907.3226
907.3257
907.3288
907.3317
907.3342
907.3364
907.3382
907.3397
907.341
907.3421
907.343
907.3437
907.3443
907.3449
907.3454
907.3458
907.3461
907.3465
907.3468
907.347
907.3473
907.3475
907.3477
907.3479
907.3481
907.3483
907.3485
907.3487
907.3488
907.349
907.3492
907.3493
907.3495
907.3497
907.3498
907.35
907.3501
907.3503
907.3504
907.3506
907.3507
907.3509
907.3511
907.3512
907.3514
907.3515
907.3517
907.3518
907.352
907.3521
907.3523
907.3524
907.3526
907.3527
907.3529
907.353
907.3532
907.3533
907.3535
907.3536
907.3538
907.3539
907.3541
907.3542
907.3544
907.3545
907.3547
907.3548
907.355
907.3551
907.3553
907.3554
907.3556
907.3557
907.3558
907.356
907.3561
907.3563
907.3564
907.3565
907.3566
907.3568
907.3569
907.357
907.3571
907.3572
907.3573
907.3573
907.3574
907.3574
907.3575
907.3575
907.3574
907.3573
907.3572
907.3571
907.3569
907.3566
862.3391
862.3403
862.3422
862.3444
862.3468
862.3491
862.3512
862.3531
862.3547
862.3561
862.3573
862.3583
862.3592
862.3599
862.3606
862.3611
862.3616
862.362
862.3624
862.3627
862.363
862.3632
862.3635
862.3637
862.3639
862.3641
862.3643
862.3645
862.3646
862.3648
862.3649
862.3651
862.3653
862.3654
862.3656
862.3657
862.3659
862.366
862.3661
862.3663
862.3664
862.3666
862.3667
862.3669
862.367
862.3671
862.3673
862.3674
862.3676
862.3677
862.3678
862.368
862.3681
862.3683
862.3684
862.3685
862.3687
862.3688
862.369
862.3691
862.3692
862.3694
862.3695
862.3697
862.3698
862.3699
862.3701
862.3702
862.3703
862.3705
862.3706
862.3708
862.3709
862.371
862.3712
862.3713
862.3714
862.3715
862.3717
862.3718
862.3719
862.372
862.3721
862.3722
862.3724
862.3724
862.3725
862.3726
862.3727
862.3727
862.3728
862.3728
862.3728
862.3728
862.3727
862.3727
862.3725
862.3724
862.3722
862.3719
817.3579
817.3588
817.3602
817.3619
817.3637
817.3656
817.3673
817.3689
817.3704
817.3716
817.3727
817.3737
817.3745
817.3752
817.3758
817.3763
817.3768
817.3772
817.3775
817.3779
817.3781
817.3784
817.3786
817.3788
817.379
817.3792
817.3794
817.3795
817.3797
817.3799
817.38
817.3802
817.3803
817.3804
817.3806
817.3807
817.3808
817.381
817.3811
817.3812
817.3814
817.3815
817.3816
817.3818
817.3819
817.382
817.3822
817.3823
817.3824
817.3826
817.3827
817.3828
817.3829
817.3831
817.3832
817.3833
817.3835
817.3836
817.3837
817.3838
817.384
817.3841
817.3842
817.3843
817.3845
817.3846
817.3847
817.3849
817.385
817.3851
817.3852
817.3854
817.3855
817.3856
817.3857
817.3858
817.386
817.3861
817.3862
817.3863
817.3864
817.3865
817.3866
817.3867
817.3868
817.3869
817.387
817.387
817.3871
817.3871
817.3872
817.3872
817.3872
817.3871
817.3871
817.387
817.3869
817.3867
817.3865
817.3863
772.375
772.3757
772.3767
772.378
772.3795
772.381
772.3825
772.3838
772.3851
772.3862
772.3872
772.3881
772.3889
772.3895
772.3901
772.3906
772.391
772.3914
772.3917
772.392
772.3923
772.3926
772.3928
772.393
772.3932
772.3933
772.3935
772.3937
772.3938
772.3939
772.3941
772.3942
772.3944
772.3945
772.3946
772.3947
772.3949
772.395
772.3951
772.3952
772.3953
772.3955
772.3956
772.3957
772.3958
772.3959
772.3961
772.3962
772.3963
772.3964
772.3965
772.3967
772.3968
772.3969
772.397
772.3971
772.3973
772.3974
772.3975
772.3976
772.3977
772.3978
772.398
772.3981
772.3982
772.3983
772.3984
772.3985
772.3987
772.3988
772.3989
772.399
772.3991
772.3992
772.3993
772.3994
772.3996
772.3997
772.3998
772.3999
772.4
772.4001
772.4002
772.4002
772.4003
772.4004
772.4005
772.4005
772.4006
772.4006
772.4006
772.4006
772.4006
772.4006
772.4005
772.4004
772.4003
772.4002
772.4
772.3997
727.3905
727.3911
727.3919
727.393
727.3942
727.3954
727.3967
727.3979
727.399
727.4
727.4008
727.4016
727.4023
727.4029
727.4035
727.4039
727.4044
727.4047
727.405
727.4053
727.4056
727.4058
727.406
727.4062
727.4064
727.4065
727.4067
727.4068
727.407
727.4071
727.4072
727.4074
727.4075
727.4076
727.4077
727.4078
727.4079
727.4081
727.4082
727.4083
727.4084
727.4085
727.4086
727.4087
727.4088
727.4089
727.4091
727.4092
727.4093
727.4094
727.4095
727.4096
727.4097
727.4098
727.4099
727.41
727.4101
727.4102
727.4104
727.4105
727.4106
727.4107
727.4108
727.4109
727.411
727.4111
727.4112
727.4113
727.4114
727.4115
727.4116
727.4117
727.4118
727.4119
727.412
727.4121
727.4122
727.4123
727.4124
727.4125
727.4126
727.4127
727.4128
727.4129
727.4129
727.413
727.4131
727.4131
727.4132
727.4132
727.4132
727.4132
727.4132
727.4131
727.4131
727.413
727.4129
727.4127
727.4125
727.4123
682.4047
682.4052
682.406
682.4069
682.4079
682.4089
682.41
682.411
682.412
682.4129
682.4136
682.4144
682.415
682.4155
682.416
682.4165
682.4168
682.4172
682.4175
682.4177
682.418
682.4182
682.4184
682.4186
682.4187
682.4189
682.419
682.4191
682.4193
682.4194
682.4195
682.4196
682.4197
682.4199
682.42
682.4201
682.4202
682.4203
682.4204
682.4205
682.4206
682.4207
682.4208
682.4209
682.421
682.4211
682.4212
682.4213
682.4214
682.4215
682.4216
682.4217
682.4218
682.4219
682.422
682.4221
682.4222
682.4223
682.4224
682.4225
682.4226
682.4227
682.4228
682.4229
682.423
682.4231
682.4232
682.4233
682.4234
682.4235
682.4235
682.4236
682.4237
682.4238
682.4239
682.424
682.4241
682.4242
682.4243
682.4244
682.4244
682.4245
682.4246
682.4247
682.4247
682.4248
682.4249
682.4249
682.4249
682.425
682.425
682.425
682.4249
682.4249
682.4248
682.4248
682.4246
682.4245
682.4243
682.4241
637.4178
637.4182
637.4189
637.4197
637.4206
637.4215
637.4225
637.4234
637.4242
637.425
637.4257
637.4263
637.4269
637.4274
637.4278
637.4282
637.4285
637.4289
637.4291
637.4294
637.4296
637.4298
637.43
637.4301
637.4303
637.4304
637.4305
637.4307
637.4308
637.4309
637.431
637.4311
637.4312
637.4313
637.4314
637.4315
637.4316
637.4317
637.4318
637.4319
637.432
637.4321
637.4322
637.4322
637.4323
637.4324
637.4325
637.4326
637.4327
637.4328
637.4329
637.433
637.4331
637.4332
637.4332
637.4333
637.4334
637.4335
637.4336
637.4337
637.4338
637.4339
637.434
637.4341
637.4341
637.4342
637.4343
637.4344
637.4345
637.4346
637.4347
637.4348
637.4349
637.4349
637.435
637.4351
637.4352
637.4353
637.4354
637.4354
637.4355
637.4356
637.4356
637.4357
637.4358
637.4358
637.4359
637.4359
637.4359
637.436
637.436
637.436
637.4359
637.4359
637.4358
637.4358
637.4357
637.4355
637.4354
637.4352
592.4297
592.4301
592.4308
592.4316
592.4324
592.4333
592.4341
592.4349
592.4357
592.4364
592.437
592.4375
592.438
592.4385
592.4389
592.4392
592.4395
592.4398
592.44
592.4403
592.4405
592.4406
592.4408
592.4409
592.4411
592.4412
592.4413
592.4414
592.4415
592.4416
592.4417
592.4418
592.4419
592.442
592.4421
592.4422
592.4423
592.4424
592.4425
592.4425
592.4426
592.4427
592.4428
592.4429
592.443
592.443
592.4431
592.4432
592.4433
592.4434
592.4435
592.4435
592.4436
592.4437
592.4438
592.4439
592.444
592.444
592.4441
592.4442
592.4443
592.4444
592.4444
592.4445
592.4446
592.4447
592.4448
592.4449
592.4449
592.445
592.4451
592.4452
592.4453
592.4453
592.4454
592.4455
592.4456
592.4456
592.4457
592.4458
592.4458
592.4459
592.446
592.446
592.4461
592.4461
592.4462
592.4462
592.4462
592.4463
592.4463
592.4463
592.4462
592.4462
592.4462
592.4461
592.446
592.4459
592.4457
592.4456
547.4406
547.4411
547.4418
547.4427
547.4435
547.4443
547.4451
547.4458
547.4465
547.4471
547.4476
547.4481
547.4485
547.4489
547.4493
547.4496
547.4498
547.4501
547.4503
547.4505
547.4507
547.4508
547.451
547.4511
547.4512
547.4513
547.4514
547.4515
547.4516
547.4517
547.4518
547.4519
547.452
547.4521
547.4521
547.4522
547.4523
547.4524
547.4525
547.4525
547.4526
547.4527
547.4528
547.4528
547.4529
547.453
547.4531
547.4531
547.4532
547.4533
547.4534
547.4534
547.4535
547.4536
547.4537
547.4537
547.4538
547.4539
547.454
547.454
547.4541
547.4542
547.4543
547.4543
547.4544
547.4545
547.4546
547.4546
547.4547
547.4548
547.4549
547.4549
547.455
547.4551
547.4551
547.4552
547.4553
547.4553
547.4554
547.4555
547.4555
547.4556
547.4557
547.4557
547.4558
547.4558
547.4558
547.4559
547.4559
547.4559
547.4559
547.4559
547.4559
547.4559
547.4558
547.4558
547.4557
547.4556
547.4555
547.4553
502.4504
502.4511
502.452
502.453
502.4539
502.4548
502.4555
502.4561
502.4567
502.4572
502.4577
502.4581
502.4584
502.4588
502.459
502.4593
502.4595
502.4597
502.4599
502.4601
502.4602
502.4604
502.4605
502.4606
502.4607
502.4608
502.4609
502.461
502.4611
502.4612
502.4613
502.4613
502.4614
502.4615
502.4616
502.4616
502.4617
502.4618
502.4618
502.4619
502.462
502.462
502.4621
502.4622
502.4623
502.4623
502.4624
502.4625
502.4625
502.4626
502.4627
502.4627
502.4628
502.4629
502.4629
502.463
502.4631
502.4631
502.4632
502.4633
502.4633
502.4634
502.4635
502.4635
502.4636
502.4637
502.4637
502.4638
502.4639
502.4639
502.464
502.4641
502.4641
502.4642
502.4643
502.4643
502.4644
502.4645
502.4645
502.4646
502.4646
502.4647
502.4647
502.4648
502.4648
502.4649
502.4649
502.4649
502.465
502.465
502.465
502.465
502.465
502.465
502.465
502.4649
502.4648
502.4648
502.4646
502.4645
457.459
457.4601
457.4615
457.4628
457.4638
457.4646
457.4653
457.4659
457.4664
457.4668
457.4672
457.4675
457.4678
457.468
457.4683
457.4685
457.4687
457.4689
457.469
457.4691
457.4693
457.4694
457.4695
457.4696
457.4697
457.4698
457.4699
457.4699
457.47
457.4701
457.4702
457.4702
457.4703
457.4704
457.4704
457.4705
457.4705
457.4706
457.4707
457.4707
457.4708
457.4709
457.4709
457.471
457.471
457.4711
457.4712
457.4712
457.4713
457.4713
457.4714
457.4715
457.4715
457.4716
457.4717
457.4717
457.4718
457.4718
457.4719
457.472
457.472
457.4721
457.4721
457.4722
457.4723
457.4723
457.4724
457.4724
457.4725
457.4726
457.4726
457.4727
457.4727
457.4728
457.4729
457.4729
457.473
457.473
457.4731
457.4731
457.4732
457.4732
457.4733
457.4733
457.4734
457.4734
457.4735
457.4735
457.4735
457.4735
457.4736
457.4736
457.4736
457.4736
457.4735
457.4735
457.4735
457.4734
457.4733
457.4732
412.4661
412.4683
412.4706
412.4723
412.4734
412.4741
412.4747
412.4752
412.4756
412.4759
412.4762
412.4764
412.4766
412.4768
412.477
412.4772
412.4773
412.4775
412.4776
412.4777
412.4778
412.4779
412.478
412.4781
412.4781
412.4782
412.4783
412.4784
412.4784
412.4785
412.4785
412.4786
412.4787
412.4787
412.4788
412.4788
412.4789
412.4789
412.479
412.4791
412.4791
412.4792
412.4792
412.4793
412.4793
412.4794
412.4794
412.4795
412.4796
412.4796
412.4797
412.4797
412.4798
412.4798
412.4799
412.4799
412.48
412.48
412.4801
412.4802
412.4802
412.4803
412.4803
412.4804
412.4804
412.4805
412.4805
412.4806
412.4806
412.4807
412.4807
412.4808
412.4808
412.4809
412.481
412.481
412.4811
412.4811
412.4812
412.4812
412.4813
412.4813
412.4813
412.4814
412.4814
412.4815
412.4815
412.4815
412.4816
412.4816
412.4816
412.4816
412.4816
412.4816
412.4816
412.4816
412.4816
412.4815
412.4815
412.4814
367.4706
367.4757
367.4799
367.4818
367.4827
367.4833
367.4838
367.4841
367.4843
367.4846
367.4847
367.4849
367.4851
367.4852
367.4853
367.4854
367.4855
367.4856
367.4857
367.4858
367.4859
367.486
367.486
367.4861
367.4862
367.4862
367.4863
367.4863
367.4864
367.4864
367.4865
367.4865
367.4866
367.4866
367.4867
367.4867
367.4868
367.4868
367.4869
367.4869
367.487
367.487
367.4871
367.4871
367.4872
367.4872
367.4873
367.4873
367.4874
367.4874
367.4875
367.4875
367.4876
367.4876
367.4877
367.4877
367.4878
367.4878
367.4879
367.4879
367.488
367.488
367.4881
367.4881
367.4881
367.4882
367.4882
367.4883
367.4883
367.4884
367.4884
367.4885
367.4885
367.4886
367.4886
367.4887
367.4887
367.4888
367.4888
367.4888
367.4889
367.4889
367.489
367.489
367.4891
367.4891
367.4891
367.4892
367.4892
367.4892
367.4893
367.4893
367.4893
367.4893
367.4893
367.4893
367.4893
367.4893
367.4893
367.4892
322.4697
322.4835
322.4909
322.4919
322.492
322.4923
322.4925
322.4926
322.4928
322.4929
322.493
322.493
322.4931
322.4932
322.4932
322.4933
322.4934
322.4934
322.4935
322.4935
322.4936
322.4936
322.4937
322.4937
322.4938
322.4938
322.4939
322.4939
322.494
322.494
322.4941
322.4941
322.4941
322.4942
322.4942
322.4943
322.4943
322.4944
322.4944
322.4944
322.4945
322.4945
322.4946
322.4946
322.4947
322.4947
322.4947
322.4948
322.4948
322.4949
322.4949
322.495
322.495
322.495
322.4951
322.4951
322.4952
322.4952
322.4952
322.4953
322.4953
322.4954
322.4954
322.4955
322.4955
322.4955
322.4956
322.4956
322.4957
322.4957
322.4957
322.4958
322.4958
322.4959
322.4959
322.4959
322.496
322.496
322.4961
322.4961
322.4962
322.4962
322.4962
322.4963
322.4963
322.4963
322.4964
322.4964
322.4965
322.4965
322.4965
322.4966
322.4966
322.4966
322.4966
322.4967
322.4967
322.4967
322.4967
322.4967
)
;

boundaryField
{
    leftLet
    {
        type            zeroGradient;
    }
    rightLet
    {
        type            zeroGradient;
    }
    frontAndBack
    {
        type            empty;
    }
    wall_to_bottomAir
    {
        type            compressible::turbulentTemperatureCoupledBaffleMixed;
        refValue        nonuniform List<scalar> 
100
(
1199.438
1199.679
1199.758
1199.738
1199.731
1199.733
1199.734
1199.734
1199.734
1199.735
1199.735
1199.735
1199.735
1199.736
1199.736
1199.736
1199.736
1199.737
1199.737
1199.737
1199.737
1199.738
1199.738
1199.738
1199.738
1199.739
1199.739
1199.739
1199.739
1199.74
1199.74
1199.74
1199.74
1199.741
1199.741
1199.741
1199.741
1199.742
1199.742
1199.742
1199.743
1199.743
1199.743
1199.743
1199.744
1199.744
1199.744
1199.744
1199.745
1199.745
1199.745
1199.745
1199.746
1199.746
1199.746
1199.746
1199.747
1199.747
1199.747
1199.747
1199.748
1199.748
1199.748
1199.748
1199.748
1199.749
1199.749
1199.749
1199.749
1199.75
1199.75
1199.75
1199.75
1199.751
1199.751
1199.751
1199.751
1199.752
1199.752
1199.752
1199.752
1199.753
1199.753
1199.753
1199.753
1199.754
1199.754
1199.754
1199.754
1199.754
1199.755
1199.755
1199.755
1199.755
1199.756
1199.756
1199.756
1199.756
1199.756
1199.756
)
;
        refGradient     uniform 0;
        valueFraction   uniform 0.9988347;
        value           nonuniform List<scalar> 
100
(
1199.412
1199.653
1199.731
1199.712
1199.704
1199.707
1199.708
1199.708
1199.708
1199.708
1199.709
1199.709
1199.709
1199.709
1199.71
1199.71
1199.71
1199.71
1199.711
1199.711
1199.711
1199.711
1199.712
1199.712
1199.712
1199.712
1199.713
1199.713
1199.713
1199.713
1199.714
1199.714
1199.714
1199.714
1199.715
1199.715
1199.715
1199.716
1199.716
1199.716
1199.716
1199.717
1199.717
1199.717
1199.717
1199.718
1199.718
1199.718
1199.718
1199.719
1199.719
1199.719
1199.719
1199.72
1199.72
1199.72
1199.72
1199.721
1199.721
1199.721
1199.721
1199.722
1199.722
1199.722
1199.722
1199.722
1199.723
1199.723
1199.723
1199.723
1199.724
1199.724
1199.724
1199.724
1199.725
1199.725
1199.725
1199.725
1199.726
1199.726
1199.726
1199.726
1199.727
1199.727
1199.727
1199.727
1199.728
1199.728
1199.728
1199.728
1199.728
1199.729
1199.729
1199.729
1199.729
1199.729
1199.73
1199.73
1199.73
1199.73
)
;
        Tnbr            T;
        thicknessLayers 0();
        kappaLayers     0();
        kappa           solidThermo;
        kappaName       none;
    }
    wall_to_topAir
    {
        type            compressible::turbulentTemperatureCoupledBaffleMixed;
        refValue        nonuniform List<scalar> 
100
(
299.9356
299.964
299.9731
299.9708
299.97
299.9703
299.9704
299.9704
299.9704
299.9705
299.9705
299.9706
299.9706
299.9706
299.9707
299.9707
299.9708
299.9708
299.9708
299.9709
299.9709
299.971
299.971
299.971
299.9711
299.9711
299.9712
299.9712
299.9712
299.9713
299.9713
299.9714
299.9714
299.9714
299.9715
299.9715
299.9716
299.9716
299.9716
299.9717
299.9717
299.9717
299.9718
299.9718
299.9719
299.9719
299.9719
299.972
299.972
299.9721
299.9721
299.9721
299.9722
299.9722
299.9723
299.9723
299.9723
299.9724
299.9724
299.9724
299.9725
299.9725
299.9726
299.9726
299.9726
299.9727
299.9727
299.9728
299.9728
299.9728
299.9729
299.9729
299.973
299.973
299.973
299.9731
299.9731
299.9731
299.9732
299.9732
299.9733
299.9733
299.9733
299.9734
299.9734
299.9734
299.9735
299.9735
299.9736
299.9736
299.9736
299.9737
299.9737
299.9737
299.9738
299.9738
299.9738
299.9739
299.9739
299.9739
)
;
        refGradient     uniform 0;
        valueFraction   nonuniform List<scalar> 
100
(
0.9988347
0.9988347
0.9988347
0.9988347
0.9988347
0.9988347
0.9988347
0.9988347
0.9988347
0.9988347
0.9988347
0.9988347
0.9988347
0.9988347
0.9988347
0.9988347
0.9988347
0.9988347
0.9988347
0.9988347
0.9988347
0.9988347
0.9988347
0.9988347
0.9988347
0.9988347
0.9988347
0.9988347
0.9988347
0.9988347
0.9988347
0.9988347
0.9988347
0.9988347
0.9988347
0.9988347
0.9988347
0.9988347
0.9988347
0.9988347
0.9988347
0.9988347
0.9988347
0.9988347
0.9988347
0.9988347
0.9988347
0.9988347
0.9988347
0.9988347
0.9988347
0.9988347
0.9988347
0.9988347
0.9988347
0.9988347
0.9988347
0.9988347
0.9988347
0.9988347
0.9988347
0.9988347
0.9988347
0.9988347
0.9988347
0.9988347
0.9988347
0.9988347
0.9988347
0.9988347
0.9988347
0.9988347
0.9988347
0.9988347
0.9988347
0.9988347
0.9988347
0.9988347
0.9988347
0.9988347
0.9988347
0.9988347
0.9988347
0.9988347
0.9988347
0.9988347
0.9988347
0.9988347
0.9988347
0.9988347
0.9988347
0.9988347
0.9988347
0.9988347
0.9988347
0.9988347
0.9988347
0.9988347
0.9988347
0.9988347
)
;
        value           nonuniform List<scalar> 
100
(
299.9619
299.9902
299.9993
299.9971
299.9962
299.9965
299.9966
299.9967
299.9967
299.9967
299.9968
299.9968
299.9969
299.9969
299.9969
299.997
299.997
299.997
299.9971
299.9971
299.9972
299.9972
299.9972
299.9973
299.9973
299.9974
299.9974
299.9974
299.9975
299.9975
299.9976
299.9976
299.9976
299.9977
299.9977
299.9978
299.9978
299.9978
299.9979
299.9979
299.998
299.998
299.998
299.9981
299.9981
299.9981
299.9982
299.9982
299.9983
299.9983
299.9983
299.9984
299.9984
299.9985
299.9985
299.9985
299.9986
299.9986
299.9987
299.9987
299.9987
299.9988
299.9988
299.9988
299.9989
299.9989
299.999
299.999
299.999
299.9991
299.9991
299.9992
299.9992
299.9992
299.9993
299.9993
299.9993
299.9994
299.9994
299.9995
299.9995
299.9995
299.9996
299.9996
299.9997
299.9997
299.9997
299.9998
299.9998
299.9998
299.9999
299.9999
300
300
300
300.0001
300.0001
300.0001
300.0002
300.0002
)
;
        Tnbr            T;
        thicknessLayers 0();
        kappaLayers     0();
        kappa           solidThermo;
        kappaName       none;
    }
}


// ************************************************************************* //
