/*--------------------------------*- C++ -*----------------------------------*\
| =========                 |                                                 |
| \\      /  F ield         | OpenFOAM: The Open Source CFD Toolbox           |
|  \\    /   O peration     | Version:  2.3.0                                 |
|   \\  /    A nd           | Web:      www.OpenFOAM.org                      |
|    \\/     M anipulation  |                                                 |
\*---------------------------------------------------------------------------*/
FoamFile
{
    version     2.0;
    format      ascii;
    class       surfaceScalarField;
    location    "9700/topAir";
    object      phi;
}
// * * * * * * * * * * * * * * * * * * * * * * * * * * * * * * * * * * * * * //

dimensions      [1 0 -1 0 0 0 0];

internalField   nonuniform List<scalar> 
7860
(
0.008832926
4.282876e-06
0.008829122
3.805308e-06
0.008826112
3.013172e-06
0.008823028
3.086134e-06
0.00881981
3.219284e-06
0.008816553
3.25831e-06
0.00881327
3.283511e-06
0.008809958
3.31223e-06
0.008806621
3.336572e-06
0.008803266
3.355712e-06
0.008799894
3.371414e-06
0.008796509
3.384518e-06
0.008793114
3.395435e-06
0.008789709
3.404559e-06
0.008786296
3.412223e-06
0.008782878
3.418682e-06
0.008779453
3.424135e-06
0.008776024
3.428744e-06
0.008772591
3.432637e-06
0.008769155
3.435919e-06
0.008765716
3.438677e-06
0.008762275
3.440981e-06
0.008758832
3.442891e-06
0.008755387
3.444455e-06
0.008751941
3.445717e-06
0.008748495
3.44671e-06
0.008745047
3.447467e-06
0.008741599
3.448011e-06
0.00873815
3.448367e-06
0.008734702
3.448553e-06
0.008731253
3.448586e-06
0.008727804
3.448481e-06
0.008724356
3.448251e-06
0.008720908
3.447907e-06
0.00871746
3.447459e-06
0.008714013
3.446915e-06
0.008710567
3.446284e-06
0.008707121
3.445572e-06
0.008703676
3.444785e-06
0.008700232
3.443927e-06
0.008696789
3.443005e-06
0.008693347
3.442021e-06
0.008689906
3.440978e-06
0.008686466
3.43988e-06
0.008683027
3.43873e-06
0.00867959
3.437529e-06
0.008676153
3.436278e-06
0.008672718
3.434979e-06
0.008669285
3.433633e-06
0.008665852
3.43224e-06
0.008662422
3.430801e-06
0.008658992
3.429314e-06
0.008655564
3.427781e-06
0.008652138
3.426198e-06
0.008648713
3.424566e-06
0.008645291
3.422883e-06
0.008641869
3.421146e-06
0.00863845
3.419353e-06
0.008635032
3.417501e-06
0.008631617
3.415586e-06
0.008628203
3.413604e-06
0.008624792
3.411551e-06
0.008621382
3.409421e-06
0.008617975
3.407209e-06
0.00861457
3.404906e-06
0.008611167
3.402506e-06
0.008607767
3.4e-06
0.00860437
3.397377e-06
0.008600975
3.394625e-06
0.008597584
3.391732e-06
0.008594195
3.388683e-06
0.008590809
3.38546e-06
0.008587427
3.382043e-06
0.008584049
3.378409e-06
0.008580674
3.374533e-06
0.008577304
3.370382e-06
0.008573938
3.365921e-06
0.008570577
3.361106e-06
0.008567221
3.355888e-06
0.008563871
3.350204e-06
0.008560527
3.343983e-06
0.00855719
3.337135e-06
0.00855386
3.32955e-06
0.008550539
3.321093e-06
0.008547227
3.311592e-06
0.008543926
3.300829e-06
0.008540638
3.28852e-06
0.008537364
3.274286e-06
0.008534106
3.257619e-06
0.008530868
3.237807e-06
0.008527654
3.21383e-06
0.00852447
3.184165e-06
0.008521324
3.146437e-06
0.008518227
3.096741e-06
0.008515198
3.028354e-06
0.00851227
2.928599e-06
0.008509496
2.774255e-06
0.008506986
2.509966e-06
0.008504931
2.054039e-06
1.034923e-06
0.008841839
5.911204e-07
0.008843239
2.407161e-06
0.008843665
2.590115e-06
0.008844108
2.644893e-06
0.008844522
2.807069e-06
0.008844859
2.922609e-06
0.008845144
2.999386e-06
0.008845394
3.062436e-06
0.008845616
3.114619e-06
0.008845814
3.15693e-06
0.008845994
3.191858e-06
0.008846157
3.221219e-06
0.008846306
3.246154e-06
0.008846443
3.267518e-06
0.008846569
3.285986e-06
0.008846685
3.302077e-06
0.008846793
3.316192e-06
0.008846893
3.328648e-06
0.008846985
3.3397e-06
0.008847071
3.349555e-06
0.008847151
3.358379e-06
0.008847226
3.366313e-06
0.008847295
3.373471e-06
0.008847359
3.379949e-06
0.008847419
3.38583e-06
0.008847475
3.391182e-06
0.008847526
3.396065e-06
0.008847573
3.40053e-06
0.008847617
3.40462e-06
0.008847657
3.408373e-06
0.008847693
3.411823e-06
0.008847727
3.414998e-06
0.008847757
3.417923e-06
0.008847784
3.42062e-06
0.008847808
3.42311e-06
0.00884783
3.425408e-06
0.008847848
3.42753e-06
0.008847864
3.42949e-06
0.008847878
3.431298e-06
0.008847889
3.432964e-06
0.008847897
3.434499e-06
0.008847903
3.435909e-06
0.008847907
3.437201e-06
0.008847908
3.43838e-06
0.008847907
3.439452e-06
0.008847904
3.440421e-06
0.008847899
3.441288e-06
0.008847892
3.442058e-06
0.008847883
3.442731e-06
0.008847872
3.443308e-06
0.008847859
3.44379e-06
0.008847844
3.444175e-06
0.008847827
3.444464e-06
0.008847809
3.444653e-06
0.008847789
3.444741e-06
0.008847767
3.444723e-06
0.008847743
3.444596e-06
0.008847718
3.444354e-06
0.008847692
3.443992e-06
0.008847664
3.443502e-06
0.008847634
3.442877e-06
0.008847604
3.442107e-06
0.008847572
3.441181e-06
0.008847539
3.440087e-06
0.008847505
3.438812e-06
0.00884747
3.43734e-06
0.008847435
3.435653e-06
0.008847398
3.433731e-06
0.008847361
3.431551e-06
0.008847324
3.429087e-06
0.008847286
3.426309e-06
0.008847248
3.423182e-06
0.008847211
3.419668e-06
0.008847173
3.415721e-06
0.008847137
3.411288e-06
0.008847101
3.406309e-06
0.008847066
3.400711e-06
0.008847033
3.394411e-06
0.008847001
3.387308e-06
0.008846972
3.379283e-06
0.008846946
3.370194e-06
0.008846923
3.359865e-06
0.008846905
3.348085e-06
0.008846891
3.334588e-06
0.008846884
3.319045e-06
0.008846883
3.301034e-06
0.008846892
3.280015e-06
0.008846911
3.255276e-06
0.008846942
3.22587e-06
0.00884699
3.190501e-06
0.008847056
3.147365e-06
0.008847146
3.093876e-06
0.008847267
3.026238e-06
0.008847425
2.938701e-06
0.008847631
2.822358e-06
0.008847896
2.662833e-06
0.008848233
2.437238e-06
0.008848639
2.104615e-06
0.008849085
1.607782e-06
8.003432e-07
0.008839261
8.709321e-07
0.008839989
1.681104e-06
0.008840543
2.037869e-06
0.008840957
2.23385e-06
0.008841327
2.438201e-06
0.008841654
2.597306e-06
0.008841943
2.710804e-06
0.008842205
2.800552e-06
0.008842445
2.874257e-06
0.008842667
2.934721e-06
0.008842874
2.984926e-06
0.008843068
3.027255e-06
0.00884325
3.063322e-06
0.008843423
3.094315e-06
0.008843588
3.121162e-06
0.008843745
3.144581e-06
0.008843896
3.165138e-06
0.008844041
3.183281e-06
0.008844181
3.199373e-06
0.008844317
3.213709e-06
0.008844448
3.226532e-06
0.008844576
3.238043e-06
0.008844701
3.248409e-06
0.008844823
3.257771e-06
0.008844943
3.26625e-06
0.00884506
3.273946e-06
0.008845175
3.280947e-06
0.008845288
3.287329e-06
0.008845399
3.293155e-06
0.008845509
3.298483e-06
0.008845617
3.303361e-06
0.008845724
3.307832e-06
0.00884583
3.311934e-06
0.008845935
3.315699e-06
0.008846039
3.319157e-06
0.008846142
3.322332e-06
0.008846244
3.325248e-06
0.008846345
3.327923e-06
0.008846446
3.330376e-06
0.008846546
3.332621e-06
0.008846646
3.334672e-06
0.008846745
3.33654e-06
0.008846844
3.338235e-06
0.008846943
3.339766e-06
0.008847041
3.341139e-06
0.008847139
3.342362e-06
0.008847237
3.343437e-06
0.008847335
3.34437e-06
0.008847432
3.345161e-06
0.008847529
3.345814e-06
0.008847627
3.346328e-06
0.008847724
3.346703e-06
0.008847822
3.346937e-06
0.008847919
3.347026e-06
0.008848017
3.346968e-06
0.008848115
3.346758e-06
0.008848213
3.346389e-06
0.008848312
3.345853e-06
0.00884841
3.345143e-06
0.00884851
3.344248e-06
0.008848609
3.343155e-06
0.00884871
3.341852e-06
0.00884881
3.340322e-06
0.008848912
3.338549e-06
0.008849014
3.336512e-06
0.008849117
3.334188e-06
0.008849221
3.331552e-06
0.008849327
3.328573e-06
0.008849433
3.325219e-06
0.00884954
3.321452e-06
0.008849649
3.317227e-06
0.00884976
3.312496e-06
0.008849873
3.307201e-06
0.008849987
3.301277e-06
0.008850104
3.294648e-06
0.008850223
3.287225e-06
0.008850344
3.278906e-06
0.008850469
3.26957e-06
0.008850597
3.259073e-06
0.008850729
3.247246e-06
0.008850866
3.233886e-06
0.008851007
3.218746e-06
0.008851153
3.201527e-06
0.008851306
3.181861e-06
0.008851466
3.159289e-06
0.008851634
3.133236e-06
0.008851811
3.102967e-06
0.008851998
3.067532e-06
0.008852199
3.025689e-06
0.008852413
2.975777e-06
0.008852645
2.915548e-06
0.008852897
2.8419e-06
0.008853173
2.750478e-06
0.008853476
2.635077e-06
0.008853812
2.486768e-06
0.008854182
2.292588e-06
0.008854585
2.034208e-06
0.008855004
1.685859e-06
0.008855394
1.217654e-06
6.03409e-07
0.008840221
5.586883e-07
0.008840593
1.310951e-06
0.008840915
1.718411e-06
0.008841202
1.949174e-06
0.008841485
2.156881e-06
0.008841754
2.329149e-06
0.008842003
2.461663e-06
0.008842236
2.568453e-06
0.008842453
2.657216e-06
0.008842656
2.731272e-06
0.008842847
2.793535e-06
0.008843028
2.846457e-06
0.008843199
2.891834e-06
0.008843362
2.931023e-06
0.008843518
2.965094e-06
0.008843668
2.994897e-06
0.008843811
3.02111e-06
0.00884395
3.044279e-06
0.008844084
3.064847e-06
0.008844215
3.08318e-06
0.008844341
3.09958e-06
0.008844465
3.114298e-06
0.008844586
3.127546e-06
0.008844704
3.139503e-06
0.008844819
3.150319e-06
0.008844933
3.160125e-06
0.008845045
3.169033e-06
0.008845155
3.177137e-06
0.008845263
3.184521e-06
0.00884537
3.191259e-06
0.008845476
3.197412e-06
0.008845581
3.203035e-06
0.008845685
3.208179e-06
0.008845787
3.212884e-06
0.008845889
3.217189e-06
0.00884599
3.221126e-06
0.008846091
3.224724e-06
0.00884619
3.22801e-06
0.00884629
3.231005e-06
0.008846389
3.23373e-06
0.008846487
3.236201e-06
0.008846585
3.238434e-06
0.008846683
3.240441e-06
0.00884678
3.242233e-06
0.008846877
3.243821e-06
0.008846974
3.245211e-06
0.008847071
3.24641e-06
0.008847168
3.247422e-06
0.008847265
3.24825e-06
0.008847362
3.248897e-06
0.008847459
3.249363e-06
0.008847556
3.249647e-06
0.008847653
3.249747e-06
0.00884775
3.249659e-06
0.008847848
3.249379e-06
0.008847946
3.248899e-06
0.008848044
3.248212e-06
0.008848142
3.247308e-06
0.008848241
3.246176e-06
0.008848341
3.244801e-06
0.008848441
3.24317e-06
0.008848541
3.241264e-06
0.008848643
3.239062e-06
0.008848744
3.236543e-06
0.008848847
3.233679e-06
0.008848951
3.230441e-06
0.008849056
3.226796e-06
0.008849162
3.222705e-06
0.008849269
3.218125e-06
0.008849377
3.213007e-06
0.008849487
3.207295e-06
0.008849598
3.200924e-06
0.008849712
3.193822e-06
0.008849827
3.185905e-06
0.008849945
3.177074e-06
0.008850065
3.167218e-06
0.008850187
3.156204e-06
0.008850313
3.143881e-06
0.008850442
3.130066e-06
0.008850575
3.114547e-06
0.008850711
3.097069e-06
0.008850853
3.077327e-06
0.008850999
3.054949e-06
0.008851152
3.029486e-06
0.008851311
3.000381e-06
0.008851477
2.966946e-06
0.008851652
2.928312e-06
0.008851836
2.883382e-06
0.008852031
2.830743e-06
0.008852238
2.768567e-06
0.008852459
2.694455e-06
0.008852696
2.605237e-06
0.008852949
2.496688e-06
0.008853221
2.363173e-06
0.008853511
2.197204e-06
0.008853814
1.988991e-06
0.008854122
1.726235e-06
0.008854413
1.394772e-06
0.00885465
9.805787e-07
4.83597e-07
0.00884009
5.926991e-07
0.008840298
1.104359e-06
0.008840581
1.438153e-06
0.008840854
1.678634e-06
0.008841119
1.893117e-06
0.008841374
2.075602e-06
0.008841613
2.222727e-06
0.008841838
2.34386e-06
0.008842049
2.445693e-06
0.008842249
2.531699e-06
0.008842438
2.604747e-06
0.008842617
2.667302e-06
0.008842787
2.72126e-06
0.00884295
2.768096e-06
0.008843105
2.808984e-06
0.008843255
2.844871e-06
0.0088434
2.876521e-06
0.008843539
2.904557e-06
0.008843674
2.92949e-06
0.008843805
2.951744e-06
0.008843933
2.971672e-06
0.008844058
2.989568e-06
0.008844179
3.005684e-06
0.008844298
3.020231e-06
0.008844415
3.03339e-06
0.00884453
3.045317e-06
0.008844642
3.056144e-06
0.008844753
3.065989e-06
0.008844863
3.074952e-06
0.008844971
3.08312e-06
0.008845078
3.09057e-06
0.008845183
3.097369e-06
0.008845288
3.103577e-06
0.008845391
3.109246e-06
0.008845494
3.114421e-06
0.008845596
3.119142e-06
0.008845697
3.123446e-06
0.008845797
3.127364e-06
0.008845897
3.130923e-06
0.008845997
3.134148e-06
0.008846096
3.13706e-06
0.008846195
3.139678e-06
0.008846293
3.142017e-06
0.008846391
3.144091e-06
0.008846489
3.145912e-06
0.008846586
3.14749e-06
0.008846684
3.148831e-06
0.008846781
3.149941e-06
0.008846879
3.150826e-06
0.008846976
3.151486e-06
0.008847074
3.151924e-06
0.008847171
3.152137e-06
0.008847269
3.152123e-06
0.008847366
3.151878e-06
0.008847464
3.151396e-06
0.008847562
3.150669e-06
0.008847661
3.149687e-06
0.00884776
3.148438e-06
0.008847859
3.146909e-06
0.008847959
3.145083e-06
0.008848059
3.142941e-06
0.00884816
3.140462e-06
0.008848261
3.137621e-06
0.008848363
3.13439e-06
0.008848466
3.130737e-06
0.00884857
3.126627e-06
0.008848675
3.122019e-06
0.00884878
3.116866e-06
0.008848887
3.111117e-06
0.008848996
3.104712e-06
0.008849105
3.097582e-06
0.008849217
3.089653e-06
0.008849329
3.080834e-06
0.008849444
3.071027e-06
0.008849561
3.060114e-06
0.00884968
3.047961e-06
0.008849802
3.034414e-06
0.008849927
3.019292e-06
0.008850054
3.002382e-06
0.008850186
2.983435e-06
0.00885032
2.962156e-06
0.00885046
2.938193e-06
0.008850603
2.911123e-06
0.008850752
2.880438e-06
0.008850907
2.845517e-06
0.008851069
2.805599e-06
0.008851237
2.759747e-06
0.008851414
2.706791e-06
0.008851599
2.645267e-06
0.008851794
2.573327e-06
0.008852
2.48863e-06
0.008852217
2.3882e-06
0.008852446
2.268265e-06
0.008852685
2.124078e-06
0.008852932
1.949781e-06
0.008853183
1.73842e-06
0.008853427
1.482273e-06
0.008853647
1.174331e-06
0.008853818
8.09622e-07
3.97369e-07
0.008840495
4.353181e-07
0.008840686
9.155364e-07
0.008840894
1.232326e-06
0.008841105
1.470113e-06
0.008841316
1.683715e-06
0.008841525
1.868176e-06
0.008841727
2.021182e-06
0.008841921
2.149678e-06
0.008842107
2.259147e-06
0.008842286
2.352774e-06
0.008842458
2.433192e-06
0.008842622
2.502687e-06
0.00884278
2.563087e-06
0.008842932
2.615848e-06
0.008843079
2.662154e-06
0.00884322
2.702976e-06
0.008843357
2.73911e-06
0.008843491
2.771215e-06
0.00884362
2.799839e-06
0.008843746
2.825437e-06
0.008843869
2.848397e-06
0.008843989
2.869044e-06
0.008844107
2.887654e-06
0.008844223
2.904465e-06
0.008844336
2.919679e-06
0.008844448
2.933471e-06
0.008844558
2.945994e-06
0.008844666
2.957378e-06
0.008844774
2.967738e-06
0.008844879
2.977175e-06
0.008844984
2.985777e-06
0.008845088
2.99362e-06
0.00884519
3.000774e-06
0.008845292
3.007298e-06
0.008845393
3.013245e-06
0.008845494
3.018662e-06
0.008845593
3.02359e-06
0.008845692
3.028066e-06
0.008845791
3.032122e-06
0.008845889
3.035786e-06
0.008845987
3.039082e-06
0.008846085
3.042034e-06
0.008846182
3.044658e-06
0.008846279
3.046971e-06
0.008846376
3.048987e-06
0.008846473
3.050717e-06
0.008846569
3.052169e-06
0.008846666
3.05335e-06
0.008846762
3.054265e-06
0.008846859
3.054916e-06
0.008846956
3.055305e-06
0.008847052
3.055431e-06
0.008847149
3.055289e-06
0.008847246
3.054876e-06
0.008847343
3.054184e-06
0.008847441
3.053204e-06
0.008847538
3.051923e-06
0.008847636
3.05033e-06
0.008847735
3.048406e-06
0.008847834
3.046134e-06
0.008847933
3.04349e-06
0.008848033
3.040451e-06
0.008848134
3.036987e-06
0.008848235
3.033066e-06
0.008848337
3.028651e-06
0.00884844
3.023699e-06
0.008848544
3.018165e-06
0.008848649
3.011994e-06
0.008848755
3.005125e-06
0.008848862
2.997492e-06
0.00884897
2.989015e-06
0.00884908
2.979606e-06
0.008849192
2.969165e-06
0.008849305
2.957576e-06
0.008849421
2.944709e-06
0.008849538
2.93041e-06
0.008849658
2.914505e-06
0.008849781
2.89679e-06
0.008849906
2.87703e-06
0.008850034
2.854947e-06
0.008850166
2.830217e-06
0.008850302
2.802456e-06
0.008850442
2.771206e-06
0.008850586
2.735923e-06
0.008850736
2.695953e-06
0.008850891
2.650506e-06
0.008851052
2.598622e-06
0.00885122
2.539132e-06
0.008851394
2.470608e-06
0.008851576
2.391297e-06
0.008851766
2.299054e-06
0.008851963
2.191264e-06
0.008852166
2.064772e-06
0.008852375
1.91584e-06
0.008852584
1.740189e-06
0.008852789
1.533218e-06
0.008852981
1.290465e-06
0.008853147
1.00894e-06
0.008853268
6.877235e-07
3.360671e-07
0.008840523
4.286785e-07
0.008840631
8.094201e-07
0.008840787
1.078639e-06
0.008840958
1.301389e-06
0.008841138
1.505451e-06
0.008841322
1.684958e-06
0.008841506
1.838033e-06
0.008841686
1.969493e-06
0.008841862
2.083335e-06
0.008842033
2.182082e-06
0.008842198
2.267934e-06
0.008842357
2.342871e-06
0.008842512
2.408544e-06
0.008842661
2.466314e-06
0.008842806
2.517316e-06
0.008842946
2.562502e-06
0.008843082
2.602668e-06
0.008843215
2.638483e-06
0.008843344
2.67051e-06
0.00884347
2.699227e-06
0.008843593
2.72504e-06
0.008843713
2.748294e-06
0.008843831
2.769287e-06
0.008843947
2.788274e-06
0.008844061
2.805474e-06
0.008844174
2.82108e-06
0.008844284
2.835258e-06
0.008844393
2.848152e-06
0.008844501
2.859889e-06
0.008844607
2.870582e-06
0.008844713
2.880327e-06
0.008844817
2.889211e-06
0.00884492
2.897312e-06
0.008845023
2.904694e-06
0.008845125
2.91142e-06
0.008845226
2.91754e-06
0.008845326
2.923103e-06
0.008845426
2.928148e-06
0.008845525
2.932713e-06
0.008845624
2.93683e-06
0.008845722
2.940526e-06
0.008845821
2.943827e-06
0.008845918
2.946753e-06
0.008846016
2.949322e-06
0.008846113
2.95155e-06
0.008846211
2.95345e-06
0.008846308
2.955032e-06
0.008846405
2.956303e-06
0.008846502
2.957268e-06
0.008846599
2.957932e-06
0.008846695
2.958295e-06
0.008846793
2.958355e-06
0.00884689
2.95811e-06
0.008846987
2.957553e-06
0.008847084
2.956677e-06
0.008847182
2.95547e-06
0.00884728
2.953921e-06
0.008847378
2.952013e-06
0.008847477
2.949728e-06
0.008847576
2.947045e-06
0.008847676
2.943938e-06
0.008847776
2.94038e-06
0.008847876
2.936337e-06
0.008847977
2.931774e-06
0.008848079
2.926648e-06
0.008848182
2.920913e-06
0.008848286
2.914516e-06
0.00884839
2.907396e-06
0.008848496
2.899487e-06
0.008848603
2.890712e-06
0.008848711
2.880984e-06
0.00884882
2.870206e-06
0.008848931
2.858266e-06
0.008849043
2.845037e-06
0.008849158
2.830375e-06
0.008849274
2.814114e-06
0.008849392
2.796063e-06
0.008849513
2.776002e-06
0.008849637
2.753678e-06
0.008849763
2.728796e-06
0.008849892
2.701011e-06
0.008850024
2.66992e-06
0.00885016
2.635051e-06
0.008850301
2.595843e-06
0.008850445
2.551636e-06
0.008850594
2.501642e-06
0.008850747
2.444924e-06
0.008850906
2.380365e-06
0.00885107
2.306629e-06
0.008851239
2.222129e-06
0.008851413
2.124985e-06
0.008851591
2.012996e-06
0.008851773
1.883629e-06
0.008851954
1.734061e-06
0.008852133
1.561292e-06
0.008852304
1.362427e-06
0.008852459
1.13511e-06
0.00885259
8.785643e-07
0.008852684
5.937905e-07
2.889829e-07
0.008840737
3.560625e-07
0.008840843
7.052462e-07
0.008840975
9.49569e-07
0.008841122
1.15681e-06
0.008841278
1.351146e-06
0.008841439
1.525249e-06
0.0088416
1.676718e-06
0.008841761
1.80901e-06
0.008841919
1.925092e-06
0.008842074
2.026944e-06
0.008842226
2.116394e-06
0.008842373
2.195152e-06
0.008842517
2.264687e-06
0.008842657
2.326245e-06
0.008842793
2.380893e-06
0.008842926
2.42954e-06
0.008843055
2.47296e-06
0.008843181
2.511812e-06
0.008843305
2.546661e-06
0.008843426
2.57799e-06
0.008843545
2.606212e-06
0.008843661
2.631684e-06
0.008843775
2.654716e-06
0.008843888
2.675574e-06
0.008843999
2.694491e-06
0.008844108
2.71167e-06
0.008844216
2.727286e-06
0.008844322
2.741496e-06
0.008844428
2.754436e-06
0.008844532
2.766226e-06
0.008844635
2.776972e-06
0.008844737
2.786768e-06
0.008844839
2.795696e-06
0.00884494
2.803831e-06
0.00884504
2.811236e-06
0.008845139
2.817971e-06
0.008845238
2.824086e-06
0.008845336
2.829626e-06
0.008845434
2.834632e-06
0.008845532
2.839139e-06
0.008845629
2.843178e-06
0.008845726
2.846775e-06
0.008845823
2.849955e-06
0.008845919
2.852737e-06
0.008846016
2.855139e-06
0.008846112
2.857174e-06
0.008846208
2.858853e-06
0.008846304
2.860186e-06
0.0088464
2.861177e-06
0.008846496
2.861832e-06
0.008846592
2.862149e-06
0.008846689
2.86213e-06
0.008846785
2.861768e-06
0.008846881
2.861059e-06
0.008846978
2.859992e-06
0.008847075
2.858558e-06
0.008847172
2.85674e-06
0.008847269
2.854522e-06
0.008847367
2.851884e-06
0.008847465
2.848801e-06
0.008847564
2.845247e-06
0.008847663
2.841189e-06
0.008847763
2.836593e-06
0.008847863
2.831418e-06
0.008847964
2.825619e-06
0.008848066
2.819143e-06
0.008848169
2.811933e-06
0.008848272
2.803923e-06
0.008848376
2.795041e-06
0.008848482
2.785202e-06
0.008848589
2.774313e-06
0.008848696
2.762269e-06
0.008848806
2.74895e-06
0.008848916
2.734219e-06
0.008849029
2.717921e-06
0.008849143
2.699882e-06
0.008849259
2.679899e-06
0.008849378
2.657742e-06
0.008849498
2.633145e-06
0.008849621
2.605804e-06
0.008849747
2.575364e-06
0.008849875
2.541417e-06
0.008850007
2.503487e-06
0.008850141
2.461018e-06
0.00885028
2.413364e-06
0.008850422
2.359766e-06
0.008850567
2.29934e-06
0.008850716
2.231052e-06
0.008850869
2.1537e-06
0.008851026
2.065894e-06
0.008851184
1.966043e-06
0.008851345
1.852361e-06
0.008851506
1.72289e-06
0.008851664
1.575579e-06
0.008851817
1.40842e-06
0.00885196
1.219716e-06
0.008852086
1.008419e-06
0.00885219
7.748554e-07
0.008852263
5.206861e-07
2.524663e-07
0.008840819
3.346953e-07
0.008840892
6.344855e-07
0.008840994
8.502976e-07
0.008841111
1.041817e-06
0.00884124
1.224124e-06
0.008841376
1.389612e-06
0.008841518
1.536025e-06
0.008841661
1.665893e-06
0.008841805
1.781348e-06
0.008841948
1.883842e-06
0.008842089
1.974808e-06
0.008842228
2.055644e-06
0.008842365
2.127591e-06
0.0088425
2.191738e-06
0.008842631
2.249036e-06
0.00884276
2.300317e-06
0.008842887
2.346303e-06
0.00884301
2.387622e-06
0.008843132
2.424817e-06
0.008843251
2.458359e-06
0.008843369
2.488657e-06
0.008843484
2.51607e-06
0.008843598
2.540907e-06
0.00884371
2.563441e-06
0.00884382
2.58391e-06
0.008843929
2.602522e-06
0.008844037
2.619462e-06
0.008844143
2.634891e-06
0.008844249
2.648952e-06
0.008844353
2.661771e-06
0.008844456
2.673461e-06
0.008844559
2.684122e-06
0.008844661
2.69384e-06
0.008844762
2.702695e-06
0.008844862
2.710756e-06
0.008844962
2.718086e-06
0.008845061
2.724738e-06
0.00884516
2.730763e-06
0.008845258
2.736203e-06
0.008845356
2.741097e-06
0.008845454
2.745477e-06
0.008845551
2.749373e-06
0.008845648
2.752811e-06
0.008845745
2.755813e-06
0.008845842
2.758396e-06
0.008845938
2.760576e-06
0.008846034
2.762365e-06
0.008846131
2.763773e-06
0.008846227
2.764805e-06
0.008846323
2.765467e-06
0.00884642
2.765759e-06
0.008846516
2.765679e-06
0.008846613
2.765224e-06
0.008846709
2.764386e-06
0.008846806
2.763156e-06
0.008846903
2.761521e-06
0.008847
2.759466e-06
0.008847098
2.756972e-06
0.008847196
2.754016e-06
0.008847294
2.750574e-06
0.008847392
2.746615e-06
0.008847492
2.742105e-06
0.008847591
2.737007e-06
0.008847691
2.731276e-06
0.008847792
2.724864e-06
0.008847893
2.717715e-06
0.008847995
2.709767e-06
0.008848098
2.70095e-06
0.008848202
2.691186e-06
0.008848307
2.680386e-06
0.008848413
2.668452e-06
0.00884852
2.65527e-06
0.008848628
2.640715e-06
0.008848738
2.624644e-06
0.008848849
2.606896e-06
0.008848961
2.587288e-06
0.008849075
2.565613e-06
0.008849191
2.541632e-06
0.008849309
2.515078e-06
0.00884943
2.48564e-06
0.008849552
2.452966e-06
0.008849677
2.416649e-06
0.008849804
2.376224e-06
0.008849934
2.331154e-06
0.008850066
2.280822e-06
0.008850202
2.224519e-06
0.008850339
2.161431e-06
0.00885048
2.09063e-06
0.008850622
2.01106e-06
0.008850767
1.921539e-06
0.008850912
1.820757e-06
0.008851057
1.707302e-06
0.0088512
1.579705e-06
0.008851339
1.436524e-06
0.008851471
1.276478e-06
0.008851592
1.098666e-06
0.008851698
9.028212e-07
0.008851783
6.897961e-07
0.008851842
4.614217e-07
2.229567e-07
0.008840954
2.946802e-07
0.008841023
5.681718e-07
0.008841111
7.639817e-07
0.008841215
9.402547e-07
0.00884133
1.110675e-06
0.008841453
1.267574e-06
0.008841581
1.408473e-06
0.008841712
1.535151e-06
0.008841845
1.649094e-06
0.008841977
1.751308e-06
0.008842109
1.842876e-06
0.008842239
1.924919e-06
0.008842368
1.998471e-06
0.008842495
2.064467e-06
0.00884262
2.123747e-06
0.008842743
2.177065e-06
0.008842864
2.225085e-06
0.008842983
2.268394e-06
0.0088431
2.307511e-06
0.008843216
2.342889e-06
0.008843329
2.374929e-06
0.008843441
2.403981e-06
0.008843551
2.430356e-06
0.00884366
2.454325e-06
0.008843768
2.476129e-06
0.008843874
2.495981e-06
0.008843979
2.514068e-06
0.008844084
2.530556e-06
0.008844187
2.545594e-06
0.008844289
2.559312e-06
0.008844391
2.571827e-06
0.008844491
2.583243e-06
0.008844591
2.593652e-06
0.008844691
2.603137e-06
0.00884479
2.611771e-06
0.008844888
2.619619e-06
0.008844986
2.62674e-06
0.008845083
2.633186e-06
0.008845181
2.639002e-06
0.008845277
2.644229e-06
0.008845374
2.648902e-06
0.00884547
2.653053e-06
0.008845566
2.656709e-06
0.008845662
2.659893e-06
0.008845758
2.662625e-06
0.008845853
2.664921e-06
0.008845949
2.666795e-06
0.008846044
2.668255e-06
0.00884614
2.66931e-06
0.008846235
2.669963e-06
0.008846331
2.670216e-06
0.008846426
2.670067e-06
0.008846522
2.669511e-06
0.008846618
2.668541e-06
0.008846714
2.667148e-06
0.00884681
2.665316e-06
0.008846906
2.663031e-06
0.008847003
2.660271e-06
0.0088471
2.657013e-06
0.008847197
2.65323e-06
0.008847295
2.648889e-06
0.008847393
2.643957e-06
0.008847491
2.63839e-06
0.008847591
2.632143e-06
0.00884769
2.625165e-06
0.008847791
2.617396e-06
0.008847891
2.608772e-06
0.008847993
2.599219e-06
0.008848096
2.588654e-06
0.008848199
2.576985e-06
0.008848303
2.564109e-06
0.008848409
2.549909e-06
0.008848515
2.534254e-06
0.008848623
2.516999e-06
0.008848732
2.497978e-06
0.008848842
2.477004e-06
0.008848954
2.453867e-06
0.008849067
2.42833e-06
0.008849182
2.400122e-06
0.008849298
2.368938e-06
0.008849417
2.334431e-06
0.008849537
2.296209e-06
0.00884966
2.253823e-06
0.008849784
2.206767e-06
0.008849911
2.154466e-06
0.008850039
2.096269e-06
0.008850169
2.031445e-06
0.0088503
1.959179e-06
0.008850433
1.878564e-06
0.008850565
1.788618e-06
0.008850698
1.688287e-06
0.008850829
1.576483e-06
0.008850956
1.452136e-06
0.008851079
1.314268e-06
0.008851193
1.162119e-06
0.008851296
9.953052e-07
0.008851385
8.14002e-07
0.008851456
6.192594e-07
0.008851504
4.128182e-07
1.988335e-07
0.008841041
2.7318e-07
0.008841094
5.169061e-07
0.008841167
6.935984e-07
0.008841253
8.56385e-07
0.00884135
1.015392e-06
0.008841456
1.163228e-06
0.008841567
1.297543e-06
0.008841683
1.419638e-06
0.008841801
1.530553e-06
0.008841921
1.630966e-06
0.008842042
1.721687e-06
0.008842164
1.803598e-06
0.008842284
1.877544e-06
0.008842404
1.94431e-06
0.008842523
2.00462e-06
0.008842641
2.059139e-06
0.008842757
2.108462e-06
0.008842872
2.153127e-06
0.008842986
2.193614e-06
0.008843098
2.230349e-06
0.008843209
2.263713e-06
0.008843319
2.294044e-06
0.008843427
2.321642e-06
0.008843535
2.346773e-06
0.008843641
2.369676e-06
0.008843746
2.390561e-06
0.008843851
2.409615e-06
0.008843954
2.427007e-06
0.008844056
2.442885e-06
0.008844158
2.457384e-06
0.008844259
2.470621e-06
0.00884436
2.482703e-06
0.00884446
2.493725e-06
0.008844559
2.503773e-06
0.008844658
2.512922e-06
0.008844756
2.521239e-06
0.008844854
2.528786e-06
0.008844951
2.535617e-06
0.008845048
2.541778e-06
0.008845145
2.547314e-06
0.008845242
2.55226e-06
0.008845338
2.55665e-06
0.008845434
2.560512e-06
0.00884553
2.56387e-06
0.008845626
2.566746e-06
0.008845722
2.569157e-06
0.008845817
2.571115e-06
0.008845913
2.572633e-06
0.008846008
2.573716e-06
0.008846104
2.574371e-06
0.008846199
2.574596e-06
0.008846295
2.574393e-06
0.008846391
2.573754e-06
0.008846487
2.572673e-06
0.008846582
2.571139e-06
0.008846679
2.569137e-06
0.008846775
2.56665e-06
0.008846872
2.563657e-06
0.008846968
2.560133e-06
0.008847066
2.556049e-06
0.008847163
2.551373e-06
0.008847261
2.546065e-06
0.008847359
2.540084e-06
0.008847458
2.533382e-06
0.008847557
2.525903e-06
0.008847657
2.517588e-06
0.008847757
2.508369e-06
0.008847858
2.498168e-06
0.00884796
2.486902e-06
0.008848062
2.474474e-06
0.008848166
2.460779e-06
0.00884827
2.445698e-06
0.008848375
2.429099e-06
0.008848481
2.410831e-06
0.008848588
2.39073e-06
0.008848697
2.368607e-06
0.008848806
2.344254e-06
0.008848917
2.317435e-06
0.008849029
2.287886e-06
0.008849143
2.255309e-06
0.008849258
2.219371e-06
0.008849375
2.179697e-06
0.008849493
2.135866e-06
0.008849612
2.087406e-06
0.008849733
2.033791e-06
0.008849854
1.974437e-06
0.008849977
1.908698e-06
0.0088501
1.83587e-06
0.008850224
1.755193e-06
0.008850346
1.665861e-06
0.008850468
1.567046e-06
0.008850586
1.45793e-06
0.008850701
1.337753e-06
0.008850809
1.205886e-06
0.008850909
1.061925e-06
0.008850999
9.05814e-07
0.008851075
7.37964e-07
0.008851134
5.594642e-07
0.008851175
3.718895e-07
1.785794e-07
0.00884114
2.471603e-07
0.008841189
4.701696e-07
0.008841253
6.315713e-07
0.00884133
7.816743e-07
0.008841418
9.296669e-07
0.008841513
1.068569e-06
0.008841615
1.196089e-06
0.008841722
1.313174e-06
0.008841832
1.42052e-06
0.008841944
1.518545e-06
0.008842058
1.607815e-06
0.008842172
1.689006e-06
0.008842287
1.762786e-06
0.008842401
1.8298e-06
0.008842515
1.89066e-06
0.008842628
1.945941e-06
0.00884274
1.996171e-06
0.008842851
2.041834e-06
0.008842961
2.083368e-06
0.00884307
2.121171e-06
0.008843178
2.155599e-06
0.008843284
2.186974e-06
0.00884339
2.215584e-06
0.008843495
2.241689e-06
0.008843599
2.265519e-06
0.008843702
2.287282e-06
0.008843805
2.307165e-06
0.008843906
2.325334e-06
0.008844007
2.341939e-06
0.008844107
2.357113e-06
0.008844206
2.370978e-06
0.008844305
2.38364e-06
0.008844404
2.395198e-06
0.008844502
2.405736e-06
0.008844599
2.415335e-06
0.008844696
2.424062e-06
0.008844793
2.431981e-06
0.008844889
2.439147e-06
0.008844985
2.445609e-06
0.008845081
2.451412e-06
0.008845177
2.456594e-06
0.008845272
2.46119e-06
0.008845367
2.465228e-06
0.008845463
2.468735e-06
0.008845557
2.471732e-06
0.008845652
2.474237e-06
0.008845747
2.476264e-06
0.008845842
2.477824e-06
0.008845937
2.478926e-06
0.008846031
2.479573e-06
0.008846126
2.479767e-06
0.008846221
2.479506e-06
0.008846316
2.478785e-06
0.008846411
2.477597e-06
0.008846506
2.475929e-06
0.008846601
2.473768e-06
0.008846697
2.471094e-06
0.008846793
2.467886e-06
0.008846889
2.464118e-06
0.008846985
2.459761e-06
0.008847081
2.454779e-06
0.008847178
2.449133e-06
0.008847276
2.44278e-06
0.008847373
2.43567e-06
0.008847471
2.427746e-06
0.00884757
2.418947e-06
0.008847669
2.409202e-06
0.008847769
2.398434e-06
0.008847869
2.386556e-06
0.00884797
2.373471e-06
0.008848072
2.359071e-06
0.008848174
2.343237e-06
0.008848277
2.325836e-06
0.008848382
2.306718e-06
0.008848487
2.285719e-06
0.008848592
2.262653e-06
0.008848699
2.237314e-06
0.008848807
2.209475e-06
0.008848916
2.178878e-06
0.008849026
2.145239e-06
0.008849137