/*--------------------------------*- C++ -*----------------------------------*\
| =========                 |                                                 |
| \\      /  F ield         | OpenFOAM: The Open Source CFD Toolbox           |
|  \\    /   O peration     | Version:  2.3.0                                 |
|   \\  /    A nd           | Web:      www.OpenFOAM.org                      |
|    \\/     M anipulation  |                                                 |
\*---------------------------------------------------------------------------*/
FoamFile
{
    version     2.0;
    format      ascii;
    class       volVectorField;
    location    "9700/topAir";
    object      U;
}
// * * * * * * * * * * * * * * * * * * * * * * * * * * * * * * * * * * * * * //

dimensions      [0 1 -1 0 0 0 0];

internalField   nonuniform List<vector> 
4000
(
(11.19922 0.002843965 0)
(8.383164 0.002998489 0)
(7.246489 0.002493884 0)
(7.545877 0.002451027 0)
(7.657907 0.00250523 0)
(7.622741 0.002525228 0)
(7.60832 0.002541156 0)
(7.608936 0.002561996 0)
(7.607237 0.002582285 0)
(7.603978 0.002600321 0)
(7.600957 0.002616479 0)
(7.59808 0.002630972 0)
(7.595166 0.002643895 0)
(7.592227 0.002655403 0)
(7.589284 0.002665663 0)
(7.586336 0.002674821 0)
(7.583383 0.002683005 0)
(7.580425 0.002690328 0)
(7.577464 0.002696887 0)
(7.5745 0.002702766 0)
(7.571533 0.002708039 0)
(7.568564 0.002712767 0)
(7.565593 0.002717006 0)
(7.562621 0.002720803 0)
(7.559647 0.002724201 0)
(7.556673 0.002727235 0)
(7.553698 0.002729939 0)
(7.550722 0.00273234 0)
(7.547746 0.002734465 0)
(7.54477 0.002736335 0)
(7.541793 0.00273797 0)
(7.538817 0.00273939 0)
(7.53584 0.002740609 0)
(7.532864 0.002741643 0)
(7.529889 0.002742505 0)
(7.526914 0.002743206 0)
(7.523939 0.002743757 0)
(7.520965 0.002744168 0)
(7.517991 0.002744447 0)
(7.515019 0.002744603 0)
(7.512047 0.002744644 0)
(7.509075 0.002744574 0)
(7.506105 0.002744402 0)
(7.503136 0.002744131 0)
(7.500167 0.002743767 0)
(7.4972 0.002743315 0)
(7.494234 0.002742779 0)
(7.491268 0.002742162 0)
(7.488304 0.002741468 0)
(7.485341 0.0027407 0)
(7.48238 0.002739859 0)
(7.479419 0.00273895 0)
(7.47646 0.002737974 0)
(7.473503 0.002736932 0)
(7.470546 0.002735825 0)
(7.467591 0.002734657 0)
(7.464638 0.002733426 0)
(7.461686 0.002732134 0)
(7.458735 0.00273078 0)
(7.455787 0.002729366 0)
(7.45284 0.002727891 0)
(7.449894 0.002726353 0)
(7.446951 0.002724753 0)
(7.444009 0.002723088 0)
(7.441069 0.002721357 0)
(7.438132 0.002719558 0)
(7.435196 0.002717687 0)
(7.432263 0.002715742 0)
(7.429332 0.002713718 0)
(7.426403 0.002711611 0)
(7.423477 0.002709415 0)
(7.420554 0.002707123 0)
(7.417633 0.002704728 0)
(7.414716 0.002702221 0)
(7.411802 0.002699591 0)
(7.408891 0.002696824 0)
(7.405984 0.002693908 0)
(7.403081 0.002690822 0)
(7.400182 0.002687547 0)
(7.397288 0.002684056 0)
(7.394399 0.002680319 0)
(7.391516 0.002676298 0)
(7.388639 0.002671945 0)
(7.385769 0.002667202 0)
(7.382907 0.002661996 0)
(7.380053 0.00265623 0)
(7.377209 0.002649782 0)
(7.374377 0.002642486 0)
(7.371557 0.002634114 0)
(7.368754 0.002624349 0)
(7.365969 0.002612723 0)
(7.363207 0.002598519 0)
(7.360473 0.002580581 0)
(7.357776 0.002556914 0)
(7.355129 0.00252389 0)
(7.35255 0.002474217 0)
(7.350079 0.002393698 0)
(7.347761 0.00224652 0)
(7.345793 0.001975397 0)
(7.344087 0.001323946 0)
(11.20628 0.002483895 0)
(8.392911 0.003325433 0)
(7.260346 0.002983593 0)
(7.562661 0.002942173 0)
(7.677632 0.003042855 0)
(7.645616 0.003094767 0)
(7.634309 0.003121835 0)
(7.637995 0.003146688 0)
(7.639365 0.00316731 0)
(7.639178 0.003182639 0)
(7.639224 0.003194177 0)
(7.639412 0.003203001 0)
(7.639559 0.003209687 0)
(7.639679 0.003214693 0)
(7.639792 0.00321839 0)
(7.639897 0.003221061 0)
(7.639995 0.003222917 0)
(7.640085 0.003224125 0)
(7.640169 0.003224812 0)
(7.640247 0.00322508 0)
(7.64032 0.003225008 0)
(7.640388 0.003224659 0)
(7.640451 0.003224085 0)
(7.640509 0.003223326 0)
(7.640564 0.003222416 0)
(7.640614 0.003221382 0)
(7.640661 0.003220247 0)
(7.640705 0.00321903 0)
(7.640745 0.003217744 0)
(7.640782 0.003216404 0)
(7.640816 0.00321502 0)
(7.640847 0.0032136 0)
(7.640875 0.003212151 0)
(7.640901 0.00321068 0)
(7.640924 0.003209192 0)
(7.640945 0.003207691 0)
(7.640963 0.003206179 0)
(7.640979 0.00320466 0)
(7.640993 0.003203135 0)
(7.641004 0.003201606 0)
(7.641013 0.003200074 0)
(7.641021 0.00319854 0)
(7.641026 0.003197003 0)
(7.641029 0.003195464 0)
(7.64103 0.003193922 0)
(7.64103 0.003192376 0)
(7.641027 0.003190825 0)
(7.641023 0.003189269 0)
(7.641017 0.003187705 0)
(7.641009 0.00318613 0)
(7.640999 0.003184545 0)
(7.640988 0.003182944 0)
(7.640976 0.003181326 0)
(7.640961 0.003179688 0)
(7.640946 0.003178025 0)
(7.640928 0.003176334 0)
(7.64091 0.00317461 0)
(7.64089 0.003172849 0)
(7.640869 0.003171044 0)
(7.640846 0.003169191 0)
(7.640822 0.003167282 0)
(7.640797 0.00316531 0)
(7.640771 0.003163267 0)
(7.640744 0.003161144 0)
(7.640717 0.00315893 0)
(7.640688 0.003156615 0)
(7.640658 0.003154186 0)
(7.640628 0.003151629 0)
(7.640597 0.003148927 0)
(7.640566 0.003146064 0)
(7.640535 0.003143017 0)
(7.640503 0.003139765 0)
(7.640472 0.003136281 0)
(7.64044 0.003132534 0)
(7.640409 0.003128489 0)
(7.640379 0.003124105 0)
(7.640349 0.003119334 0)
(7.640321 0.00311412 0)
(7.640294 0.003108397 0)
(7.640268 0.003102086 0)
(7.640245 0.00309509 0)
(7.640225 0.003087295 0)
(7.640208 0.003078558 0)
(7.640195 0.003068702 0)
(7.640187 0.003057506 0)
(7.640184 0.003044687 0)
(7.640188 0.003029878 0)
(7.640201 0.003012595 0)
(7.640223 0.002992186 0)
(7.640258 0.00296775 0)
(7.640307 0.002938007 0)
(7.640375 0.002901082 0)
(7.640465 0.002854127 0)
(7.640585 0.002792626 0)
(7.640741 0.002709155 0)
(7.640943 0.002590621 0)
(7.641202 0.00241427 0)
(7.641526 0.002131523 0)
(7.641897 0.001670293 0)
(7.642306 0.0007607541 0)
(11.20416 8.333995e-05 0)
(8.390703 0.001026991 0)
(7.25749 0.001410871 0)
(7.559901 0.001627084 0)
(7.67491 0.001832544 0)
(7.642854 0.001981666 0)
(7.631537 0.00208729 0)
(7.635234 0.002171136 0)
(7.636619 0.002239705 0)
(7.63645 0.002296035 0)
(7.636518 0.002343222 0)
(7.63673 0.002383497 0)
(7.636905 0.002418316 0)
(7.637055 0.002448736 0)
(7.637201 0.002475567 0)
(7.637341 0.002499424 0)
(7.637475 0.002520785 0)
(7.637603 0.00254003 0)
(7.637727 0.002557462 0)
(7.637847 0.002573327 0)
(7.637963 0.002587828 0)
(7.638076 0.002601135 0)
(7.638186 0.002613389 0)
(7.638294 0.00262471 0)
(7.638399 0.002635199 0)
(7.638502 0.002644944 0)
(7.638603 0.00265402 0)
(7.638702 0.002662492 0)
(7.6388 0.002670418 0)
(7.638897 0.002677848 0)
(7.638992 0.002684824 0)
(7.639086 0.002691387 0)
(7.639178 0.002697569 0)
(7.63927 0.002703401 0)
(7.639361 0.00270891 0)
(7.639452 0.002714119 0)
(7.639541 0.002719051 0)
(7.63963 0.002723723 0)
(7.639718 0.002728153 0)
(7.639806 0.002732356 0)
(7.639893 0.002736345 0)
(7.63998 0.002740132 0)
(7.640067 0.002743727 0)
(7.640153 0.00274714 0)
(7.640239 0.002750378 0)
(7.640324 0.002753449 0)
(7.64041 0.002756359 0)
(7.640495 0.002759112 0)
(7.64058 0.002761712 0)
(7.640665 0.002764163 0)
(7.64075 0.002766466 0)
(7.640836 0.002768624 0)
(7.640921 0.002770636 0)
(7.641006 0.002772503 0)
(7.641091 0.002774222 0)
(7.641176 0.002775793 0)
(7.641262 0.002777211 0)
(7.641348 0.002778473 0)
(7.641434 0.002779573 0)
(7.64152 0.002780505 0)
(7.641607 0.002781262 0)
(7.641694 0.002781835 0)
(7.641782 0.002782213 0)
(7.64187 0.002782384 0)
(7.641959 0.002782335 0)
(7.642049 0.00278205 0)
(7.642139 0.002781511 0)
(7.642231 0.002780696 0)
(7.642323 0.002779583 0)
(7.642416 0.002778143 0)
(7.642511 0.002776346 0)
(7.642606 0.002774155 0)
(7.642704 0.00277153 0)
(7.642802 0.002768423 0)
(7.642903 0.002764777 0)
(7.643006 0.002760529 0)
(7.643111 0.002755602 0)
(7.643218 0.002749908 0)
(7.643328 0.00274334 0)
(7.643441 0.002735773 0)
(7.643558 0.002727055 0)
(7.643679 0.002717002 0)
(7.643804 0.002705389 0)
(7.643934 0.002691939 0)
(7.644069 0.002676303 0)
(7.644212 0.002658043 0)
(7.644361 0.002636592 0)
(7.644519 0.002611215 0)
(7.644687 0.002580934 0)
(7.644867 0.002544428 0)
(7.64506 0.002499879 0)
(7.645269 0.002444723 0)
(7.645497 0.002375282 0)
(7.645748 0.002286158 0)
(7.646024 0.00216934 0)
(7.646329 0.00201274 0)
(7.646665 0.001798609 0)
(7.647027 0.00150045 0)
(7.647382 0.001086408 0)
(7.647718 0.0005201979 0)
(11.20508 0.0008150303 0)
(8.391504 0.001608435 0)
(7.257881 0.001962003 0)
(7.560122 0.002142996 0)
(7.675076 0.00230922 0)
(7.642964 0.002442722 0)
(7.631603 0.002541103 0)
(7.635272 0.002618574 0)
(7.636635 0.002681876 0)
(7.636447 0.002733694 0)
(7.636501 0.002776432 0)
(7.636701 0.00281207 0)
(7.636866 0.002842019 0)
(7.637007 0.002867339 0)
(7.637144 0.002888861 0)
(7.637277 0.002907242 0)
(7.637405 0.002923003 0)
(7.637527 0.002936563 0)
(7.637646 0.002948262 0)
(7.637761 0.002958378 0)
(7.637873 0.002967138 0)
(7.637982 0.002974734 0)
(7.638088 0.002981322 0)
(7.638192 0.002987037 0)
(7.638294 0.002991989 0)
(7.638394 0.002996274 0)
(7.638492 0.002999974 0)
(7.638589 0.003003157 0)
(7.638684 0.003005884 0)
(7.638778 0.003008205 0)
(7.638871 0.003010166 0)
(7.638963 0.003011805 0)
(7.639054 0.003013155 0)
(7.639144 0.003014246 0)
(7.639233 0.003015103 0)
(7.639322 0.003015748 0)
(7.639409 0.003016201 0)
(7.639497 0.003016478 0)
(7.639584 0.003016595 0)
(7.63967 0.003016563 0)
(7.639756 0.003016393 0)
(7.639842 0.003016095 0)
(7.639927 0.003015676 0)
(7.640013 0.003015143 0)
(7.640098 0.003014501 0)
(7.640183 0.003013754 0)
(7.640267 0.003012905 0)
(7.640352 0.003011955 0)
(7.640436 0.003010907 0)
(7.640521 0.003009759 0)
(7.640606 0.00300851 0)
(7.64069 0.00300716 0)
(7.640775 0.003005704 0)
(7.64086 0.003004139 0)
(7.640945 0.003002459 0)
(7.64103 0.003000659 0)
(7.641116 0.002998732 0)
(7.641202 0.002996669 0)
(7.641288 0.00299446 0)
(7.641374 0.002992094 0)
(7.641461 0.002989559 0)
(7.641549 0.00298684 0)
(7.641637 0.002983921 0)
(7.641726 0.002980783 0)
(7.641815 0.002977406 0)
(7.641905 0.002973767 0)
(7.641996 0.002969838 0)
(7.642088 0.002965591 0)
(7.642181 0.002960991 0)
(7.642275 0.002956 0)
(7.64237 0.002950574 0)
(7.642466 0.002944664 0)
(7.642564 0.002938212 0)
(7.642664 0.002931153 0)
(7.642766 0.002923412 0)
(7.642869 0.0029149 0)
(7.642975 0.002905516 0)
(7.643083 0.00289514 0)
(7.643194 0.002883631 0)
(7.643307 0.002870822 0)
(7.643425 0.002856514 0)
(7.643546 0.002840465 0)
(7.643671 0.002822383 0)
(7.643801 0.00280191 0)
(7.643936 0.002778604 0)
(7.644077 0.002751909 0)
(7.644225 0.002721123 0)
(7.644381 0.002685347 0)
(7.644545 0.002643412 0)
(7.644719 0.00259378 0)
(7.644905 0.0025344 0)
(7.645103 0.002462496 0)
(7.645316 0.002374272 0)
(7.645543 0.002264481 0)
(7.645787 0.002125858 0)
(7.646045 0.001948359 0)
(7.646312 0.001718519 0)
(7.646579 0.001419002 0)
(7.64681 0.001030907 0)
(7.647009 0.0005446283 0)
(11.20503 0.0004175998 0)
(8.391374 0.0008655556 0)
(7.257587 0.001136269 0)
(7.559808 0.001323486 0)
(7.67477 0.001499814 0)
(7.642644 0.001651313 0)
(7.63127 0.001772874 0)
(7.63493 0.0018732 0)
(7.636288 0.001957875 0)
(7.636097 0.002029594 0)
(7.636148 0.002090725 0)
(7.636347 0.002143329 0)
(7.63651 0.002188977 0)
(7.63665 0.002228879 0)
(7.636788 0.002263998 0)
(7.636921 0.002295103 0)
(7.637049 0.002322812 0)
(7.637172 0.002347625 0)
(7.637291 0.00236995 0)
(7.637407 0.002390123 0)
(7.63752 0.002408424 0)
(7.63763 0.002425085 0)
(7.637737 0.002440303 0)
(7.637842 0.002454245 0)
(7.637945 0.002467053 0)
(7.638045 0.002478848 0)
(7.638144 0.002489736 0)
(7.638242 0.002499808 0)
(7.638338 0.002509142 0)
(7.638433 0.002517809 0)
(7.638526 0.002525869 0)
(7.638619 0.002533374 0)
(7.638711 0.002540373 0)
(7.638801 0.002546906 0)
(7.638891 0.002553011 0)
(7.63898 0.00255872 0)
(7.639069 0.002564062 0)
(7.639157 0.002569061 0)
(7.639245 0.002573742 0)
(7.639332 0.002578124 0)
(7.639418 0.002582224 0)
(7.639505 0.002586057 0)
(7.639591 0.002589639 0)
(7.639676 0.002592979 0)
(7.639762 0.002596087 0)
(7.639847 0.002598973 0)
(7.639932 0.002601643 0)
(7.640018 0.002604102 0)
(7.640103 0.002606354 0)
(7.640188 0.002608403 0)
(7.640273 0.002610248 0)
(7.640358 0.002611891 0)
(7.640443 0.002613329 0)
(7.640528 0.002614561 0)
(7.640614 0.002615581 0)
(7.640699 0.002616385 0)
(7.640785 0.002616966 0)
(7.640871 0.002617314 0)
(7.640958 0.002617419 0)
(7.641044 0.002617269 0)
(7.641132 0.00261685 0)
(7.641219 0.002616145 0)
(7.641308 0.002615136 0)
(7.641396 0.0026138 0)
(7.641486 0.002612114 0)
(7.641576 0.002610048 0)
(7.641667 0.002607572 0)
(7.641759 0.00260465 0)
(7.641852 0.002601239 0)
(7.641945 0.002597294 0)
(7.64204 0.002592761 0)
(7.642137 0.00258758 0)
(7.642234 0.00258168 0)
(7.642334 0.002574981 0)
(7.642435 0.002567392 0)
(7.642538 0.002558805 0)
(7.642643 0.002549095 0)
(7.64275 0.002538118 0)
(7.64286 0.002525703 0)
(7.642972 0.002511648 0)
(7.643088 0.002495714 0)
(7.643207 0.002477613 0)
(7.64333 0.002457 0)
(7.643457 0.002433455 0)
(7.643589 0.002406463 0)
(7.643727 0.002375389 0)
(7.64387 0.002339442 0)
(7.64402 0.002297625 0)
(7.644177 0.002248675 0)
(7.644342 0.002190975 0)
(7.644516 0.002122443 0)
(7.644699 0.002040378 0)
(7.644893 0.00194128 0)
(7.645096 0.00182063 0)
(7.645307 0.001672679 0)
(7.645525 0.001490347 0)
(7.645741 0.001265427 0)
(7.645948 0.0009898634 0)
(7.646119 0.0006573279 0)
(7.646261 0.000275221 0)
(11.2054 0.0004758474 0)
(8.391766 0.0009421545 0)
(7.257894 0.00125506 0)
(7.560042 0.001488074 0)
(7.674961 0.001691898 0)
(7.642794 0.001863553 0)
(7.631382 0.002002709 0)
(7.635014 0.002117384 0)
(7.636348 0.002213504 0)
(7.636138 0.002294497 0)
(7.636172 0.002363125 0)
(7.636357 0.002421698 0)
(7.636509 0.002472013 0)
(7.63664 0.002515468 0)
(7.636768 0.002553185 0)
(7.636894 0.002586066 0)
(7.637015 0.002614846 0)
(7.637133 0.002640124 0)
(7.637247 0.002662394 0)
(7.637358 0.002682068 0)
(7.637467 0.002699489 0)
(7.637573 0.002714946 0)
(7.637676 0.002728683 0)
(7.637778 0.002740908 0)
(7.637878 0.0027518 0)
(7.637976 0.002761511 0)
(7.638073 0.002770173 0)
(7.638168 0.002777899 0)
(7.638262 0.00278479 0)
(7.638355 0.002790931 0)
(7.638446 0.002796397 0)
(7.638537 0.002801256 0)
(7.638627 0.002805564 0)
(7.638717 0.002809373 0)
(7.638805 0.002812727 0)
(7.638893 0.002815667 0)
(7.63898 0.002818227 0)
(7.639067 0.002820437 0)
(7.639154 0.002822324 0)
(7.63924 0.002823912 0)
(7.639325 0.002825222 0)
(7.639411 0.002826271 0)
(7.639496 0.002827074 0)
(7.63958 0.002827645 0)
(7.639665 0.002827995 0)
(7.63975 0.002828132 0)
(7.639834 0.002828064 0)
(7.639918 0.002827797 0)
(7.640003 0.002827334 0)
(7.640087 0.002826677 0)
(7.640171 0.002825826 0)
(7.640256 0.002824782 0)
(7.64034 0.00282354 0)
(7.640425 0.002822098 0)
(7.640509 0.002820448 0)
(7.640594 0.002818584 0)
(7.640679 0.002816495 0)
(7.640765 0.002814171 0)
(7.640851 0.002811599 0)
(7.640937 0.002808762 0)
(7.641023 0.002805643 0)
(7.64111 0.002802221 0)
(7.641198 0.002798474 0)
(7.641286 0.002794374 0)
(7.641375 0.002789892 0)
(7.641464 0.002784994 0)
(7.641554 0.002779641 0)
(7.641645 0.00277379 0)
(7.641737 0.002767393 0)
(7.64183 0.002760392 0)
(7.641924 0.002752726 0)
(7.64202 0.002744322 0)
(7.642116 0.002735099 0)
(7.642214 0.002724962 0)
(7.642314 0.002713803 0)
(7.642416 0.002701499 0)
(7.642519 0.002687905 0)
(7.642625 0.002672855 0)
(7.642732 0.002656154 0)
(7.642843 0.002637572 0)
(7.642956 0.00261684 0)
(7.643073 0.002593638 0)
(7.643193 0.002567581 0)
(7.643316 0.002538211 0)
(7.643444 0.002504971 0)
(7.643576 0.002467186 0)
(7.643714 0.002424026 0)
(7.643857 0.002374471 0)
(7.644005 0.002317256 0)
(7.64416 0.002250812 0)
(7.644322 0.002173179 0)
(7.644489 0.002081923 0)
(7.644664 0.001974034 0)
(7.644843 0.001845842 0)
(7.645025 0.001692986 0)
(7.645206 0.001510544 0)
(7.645381 0.001293403 0)
(7.64554 0.00103751 0)
(7.645665 0.0007406667 0)
(7.645765 0.0004112044 0)
(11.20547 0.0003522953 0)
(8.391794 0.0006974536 0)
(7.257816 0.0009284204 0)
(7.559921 0.001109075 0)
(7.67482 0.001274132 0)
(7.64263 0.001418807 0)
(7.631198 0.001541084 0)
(7.634816 0.001645517 0)
(7.63614 0.001735722 0)
(7.635922 0.001813828 0)
(7.63595 0.001881663 0)
(7.63613 0.001940869 0)
(7.636279 0.001992795 0)
(7.636407 0.00203854 0)
(7.636533 0.002079017 0)
(7.636657 0.002114984 0)
(7.636778 0.002147071 0)
(7.636895 0.002175805 0)
(7.637009 0.002201628 0)
(7.63712 0.002224911 0)
(7.637228 0.002245969 0)
(7.637334 0.002265069 0)
(7.637438 0.002282438 0)
(7.63754 0.002298272 0)
(7.63764 0.00231274 0)
(7.637739 0.002325986 0)
(7.637836 0.002338137 0)
(7.637932 0.002349303 0)
(7.638026 0.002359579 0)
(7.63812 0.002369049 0)
(7.638212 0.002377788 0)
(7.638303 0.00238586 0)
(7.638394 0.002393322 0)
(7.638484 0.002400225 0)
(7.638573 0.002406615 0)
(7.638661 0.002412529 0)
(7.638749 0.002418004 0)
(7.638837 0.00242307 0)
(7.638924 0.002427754 0)
(7.63901 0.002432081 0)
(7.639096 0.002436071 0)
(7.639182 0.002439743 0)
(7.639268 0.002443113 0)
(7.639353 0.002446193 0)
(7.639438 0.002448996 0)
(7.639523 0.002451531 0)
(7.639608 0.002453804 0)
(7.639692 0.002455821 0)
(7.639777 0.002457587 0)
(7.639862 0.002459103 0)
(7.639946 0.00246037 0)
(7.640031 0.002461385 0)
(7.640116 0.002462146 0)
(7.640201 0.002462647 0)
(7.640286 0.002462882 0)
(7.640371 0.002462842 0)
(7.640456 0.002462517 0)
(7.640542 0.002461892 0)
(7.640628 0.002460954 0)
(7.640714 0.002459684 0)
(7.640801 0.002458062 0)
(7.640888 0.002456065 0)
(7.640976 0.002453667 0)
(7.641064 0.002450836 0)
(7.641152 0.002447539 0)
(7.641242 0.002443739 0)
(7.641332 0.00243939 0)
(7.641423 0.002434445 0)
(7.641514 0.002428847 0)
(7.641607 0.002422534 0)
(7.6417 0.002415435 0)
(7.641795 0.002407468 0)
(7.641891 0.002398543 0)
(7.641989 0.002388553 0)
(7.642087 0.002377379 0)
(7.642188 0.002364882 0)
(7.64229 0.002350905 0)
(7.642394 0.002335263 0)
(7.642501 0.002317743 0)
(7.642609 0.002298097 0)
(7.64272 0.002276032 0)
(7.642834 0.002251208 0)
(7.642951 0.002223218 0)
(7.643071 0.002191582 0)
(7.643195 0.002155725 0)
(7.643322 0.002114962 0)
(7.643454 0.002068465 0)
(7.64359 0.002015237 0)
(7.64373 0.001954075 0)
(7.643875 0.001883525 0)
(7.644024 0.001801839 0)
(7.644177 0.00170693 0)
(7.644334 0.001596349 0)
(7.644492 0.001467286 0)
(7.64465 0.001316666 0)
(7.644803 0.001141382 0)
(7.644946 0.0009387236 0)
(7.645073 0.0007074178 0)
(7.64517 0.0004479525 0)
(7.645247 0.0001681815 0)
(11.20568 0.0003481683 0)
(8.392005 0.0006730243 0)
(7.257989 0.0009040964 0)
(7.560068 0.001101411 0)
(7.674951 0.001285679 0)
(7.642741 0.00144989 0)
(7.631289 0.00159187 0)
(7.634889 0.001715074 0)
(7.636197 0.001822498 0)
(7.635964 0.001916169 0)
(7.63598 0.001997945 0)
(7.636149 0.002069537 0)
(7.636288 0.002132405 0)
(7.636407 0.002187773 0)
(7.636526 0.00223668 0)
(7.636643 0.002280002 0)
(7.636757 0.002318481 0)
(7.636869 0.002352745 0)
(7.636977 0.002383326 0)
(7.637084 0.002410679 0)
(7.637188 0.002435192 0)
(7.637291 0.002457197 0)
(7.637391 0.002476981 0)
(7.63749 0.002494792 0)
(7.637588 0.002510844 0)
(7.637683 0.002525325 0)
(7.637778 0.002538397 0)
(7.637872 0.002550203 0)
(7.637964 0.002560869 0)
(7.638055 0.002570504 0)
(7.638146 0.002579206 0)
(7.638235 0.00258706 0)
(7.638324 0.002594143 0)
(7.638413 0.002600521 0)
(7.6385 0.002606254 0)
(7.638587 0.002611395 0)
(7.638674 0.002615991 0)
(7.63876 0.002620084 0)
(7.638846 0.002623709 0)
(7.638931 0.002626899 0)
(7.639016 0.002629684 0)
(7.639101 0.002632087 0)
(7.639186 0.00263413 0)
(7.63927 0.002635833 0)
(7.639354 0.00263721 0)
(7.639438 0.002638276 0)
(7.639522 0.00263904 0)
(7.639606 0.002639513 0)
(7.63969 0.002639699 0)
(7.639774 0.002639602 0)
(7.639858 0.002639226 0)
(7.639942 0.002638569 0)
(7.640026 0.002637629 0)
(7.64011 0.002636402 0)
(7.640194 0.002634881 0)
(7.640279 0.002633057 0)
(7.640363 0.00263092 0)
(7.640448 0.002628454 0)
(7.640534 0.002625645 0)
(7.640619 0.002622472 0)
(7.640705 0.002618913 0)
(7.640791 0.002614944 0)
(7.640878 0.002610535 0)
(7.640966 0.002605652 0)
(7.641053 0.002600259 0)
(7.641142 0.002594313 0)
(7.641231 0.002587766 0)
(7.641321 0.002580564 0)
(7.641412 0.002572646 0)
(7.641503 0.002563943 0)
(7.641596 0.002554377 0)
(7.641689 0.00254386 0)
(7.641784 0.002532292 0)
(7.64188 0.002519559 0)
(7.641977 0.002505532 0)
(7.642076 0.002490061 0)
(7.642176 0.002472977 0)
(7.642278 0.002454085 0)
(7.642382 0.002433159 0)
(7.642488 0.002409938 0)
(7.642597 0.00238412 0)
(7.642707 0.002355351 0)
(7.64282 0.00232322 0)
(7.642936 0.002287242 0)
(7.643055 0.002246847 0)
(7.643177 0.002201366 0)
(7.643302 0.002150005 0)
(7.64343 0.002091832 0)
(7.643562 0.002025746 0)
(7.643696 0.001950457 0)
(7.643834 0.001864464 0)
(7.643973 0.00176605 0)
(7.644113 0.001653289 0)
(7.644252 0.001524102 0)
(7.644388 0.001376376 0)
(7.644518 0.001208203 0)
(7.644636 0.001018222 0)
(7.644739 0.0008063594 0)
(7.644815 0.0005738801 0)
(7.644875 0.0003271449 0)
(11.20579 0.0002914072 0)
(8.392087 0.0005631462 0)
(7.258015 0.0007542748 0)
(7.560066 0.0009189335 0)
(7.67493 0.0010737 0)
(7.642698 0.001212432 0)
(7.631225 0.001333487 0)
(7.634809 0.001439614 0)
(7.636104 0.001533069 0)
(7.635859 0.001615351 0)
(7.635866 0.001687857 0)
(7.636027 0.0017519 0)
(7.636159 0.001808612 0)
(7.636273 0.001858963 0)
(7.636388 0.001903783 0)
(7.636502 0.001943787 0)
(7.636613 0.001979586 0)
(7.636722 0.002011704 0)
(7.636829 0.00204059 0)
(7.636934 0.00206663 0)
(7.637037 0.002090156 0)
(7.637138 0.002111456 0)
(7.637238 0.002130776 0)
(7.637337 0.002148334 0)
(7.637433 0.002164316 0)
(7.637529 0.002178886 0)
(7.637624 0.002192187 0)
(7.637717 0.002204344 0)
(7.637809 0.002215468 0)
(7.637901 0.002225656 0)
(7.637991 0.002234993 0)
(7.638081 0.002243554 0)
(7.63817 0.002251407 0)
(7.638259 0.002258611 0)
(7.638347 0.002265217 0)
(7.638434 0.002271273 0)
(7.638521 0.00227682 0)
(7.638607 0.002281893 0)
(7.638693 0.002286524 0)
(7.638779 0.002290743 0)
(7.638864 0.002294572 0)
(7.63895 0.002298033 0)
(7.639034 0.002301145 0)
(7.639119 0.002303923 0)
(7.639204 0.002306379 0)
(7.639288 0.002308525 0)
(7.639372 0.002310369 0)
(7.639456 0.002311915 0)
(7.63954 0.002313169 0)
(7.639625 0.002314131 0)
(7.639709 0.002314802 0)
(7.639793 0.002315178 0)
(7.639877 0.002315255 0)
(7.639961 0.002315026 0)
(7.640046 0.002314481 0)
(7.64013 0.002313611 0)
(7.640215 0.002312399 0)
(7.6403 0.002310832 0)
(7.640385 0.002308888 0)
(7.640471 0.002306546 0)
(7.640557 0.00230378 0)
(7.640643 0.002300563 0)
(7.64073 0.00229686 0)
(7.640817 0.002292636 0)
(7.640905 0.002287849 0)
(7.640993 0.002282452 0)
(7.641082 0.002276392 0)
(7.641171 0.002269611 0)
(7.641261 0.002262043 0)
(7.641352 0.002253612 0)
(7.641444 0.002244235 0)
(7.641537 0.002233817 0)
(7.641631 0.002222251 0)
(7.641726 0.002209417 0)
(7.641822 0.002195176 0)
(7.641919 0.002179372 0)
(7.642018 0.002161829 0)
(7.642119 0.002142343 0)
(7.642221 0.002120681 0)
(7.642324 0.002096577 0)
(7.64243 0.002069723 0)
(7.642538 0.002039766 0)
(7.642647 0.002006296 0)
(7.642759 0.001968839 0)
(7.642874 0.001926846 0)
(7.64299 0.00187968 0)
(7.643109 0.001826605 0)
(7.64323 0.001766768 0)
(7.643353 0.001699194 0)
(7.643478 0.001622771 0)
(7.643605 0.001536248 0)
(7.643731 0.001438254 0)
(7.643857 0.001327325 0)
(7.64398 0.001201983 0)
(7.644099 0.001060859 0)
(7.64421 0.0009029009 0)
(7.64431 0.0007276375 0)
(7.644395 0.0005356846 0)
(7.644457 0.0003286511 0)
(7.644505 0.0001116319 0)
(11.20593 0.0002744049 0)
(8.392221 0.0005244516 0)
(7.258121 0.0007046574 0)
(7.560158 0.0008673206 0)
(7.675015 0.001024538 0)
(7.642771 0.001169257 0)
(7.631286 0.001299166 0)
(7.634858 0.00141589 0)
(7.636143 0.001520803 0)
(7.635889 0.001614842 0)
(7.635887 0.001699018 0)
(7.63604 0.001774379 0)
(7.636165 0.001841889 0)
(7.636273 0.001902419 0)
(7.636381 0.001956754 0)
(7.63649 0.002005592 0)
(7.636596 0.002049549 0)
(7.636701 0.00208917 0)
(7.636803 0.002124932 0)
(7.636905 0.002157254 0)
(7.637004 0.002186505 0)
(7.637103 0.002213009 0)
(7.637199 0.002237048 0)
(7.637295 0.002258875 0)
(7.637389 0.002278708 0)
(7.637483 0.002296744 0)
(7.637575 0.002313155 0)
(7.637666 0.002328093 0)
(7.637757 0.002341695 0)
(7.637847 0.00235408 0)
(7.637935 0.002365356 0)
(7.638024 0.002375619 0)
(7.638111 0.002384954 0)
(7.638198 0.002393437 0)
(7.638285 0.002401136 0)
(7.638371 0.002408111 0)
(7.638457 0.002414417 0)
(7.638542 0.002420102 0)
(7.638627 0.002425208 0)
(7.638712 0.002429774 0)
(7.638796 0.002433833 0)
(7.63888 0.002437415 0)
(7.638964 0.002440545 0)
(7.639048 0.002443246 0)
(7.639132 0.002445538 0)
(7.639215 0.002447436 0)
(7.639299 0.002448953 0)
(7.639382 0.0024501 0)
(7.639465 0.002450885 0)
(7.639549 0.002451313 0)
(7.639632 0.002451387 0)
(7.639715 0.002451106 0)
(7.639799 0.00245047 0)
(7.639883 0.002449472 0)
(7.639966 0.002448106 0)
(7.64005 0.002446361 0)
(7.640134 0.002444225 0)
(7.640219 0.002441681 0)
(7.640303 0.002438712 0)
(7.640388 0.002435294 0)
(7.640473 0.002431402 0)
(7.640558 0.002427007 0)
(7.640644 0.002422076 0)
(7.640731 0.002416568 0)
(7.640817 0.002410443 0)
(7.640905 0.002403651 0)
(7.640992 0.002396137 0)
(7.641081 0.00238784 0)
(7.64117 0.002378691 0)
(7.64126 0.002368612 0)
(7.64135 0.002357514 0)
(7.641442 0.002345301 0)
(7.641534 0.002331861 0)
(7.641628 0.002317068 0)
(7.641722 0.002300782 0)
(7.641818 0.002282843 0)
(7.641914 0.00226307 0)
(7.642012 0.002241258 0)
(7.642112 0.002217172 0)
(7.642213 0.002190546 0)
(7.642315 0.002161079 0)
(7.642419 0.002128421 0)
(7.642525 0.00209218 0)
(7.642633 0.002051901 0)
(7.642742 0.002007069 0)
(7.642853 0.001957095 0)
(7.642965 0.001901311 0)
(7.643079 0.001838963 0)
(7.643194 0.001769206 0)
(7.64331 0.001691105 0)
(7.643426 0.001603648 0)
(7.64354 0.001505766 0)
(7.643653 0.001396379 0)
(7.643763 0.001274468 0)
(7.643866 0.001139186 0)
(7.643962 0.0009900238 0)
(7.644046 0.0008269898 0)
(7.644117 0.0006509488 0)
(7.644169 0.0004634684 0)
(7.644208 0.0002685757 0)
(11.20603 0.0002428061 0)
(8.392307 0.0004630478 0)
(7.258173 0.0006210616 0)
(7.560196 0.0007646152 0)
(7.67504 0.0009036502 0)
(7.642781 0.00103167 0)
(7.631281 0.001146711 0)
(7.634839 0.001250195 0)
(7.636111 0.001343286 0)
(7.635846 0.00142678 0)
(7.635834 0.001501552 0)
(7.635979 0.001568509 0)
(7.636096 0.001628495 0)
(7.636197 0.001682273 0)
(7.6363 0.001730533 0)
(7.636403 0.001773894 0)
(7.636505 0.001812903 0)
(7.636606 0.001848046 0)
(7.636706 0.001879749 0)
(7.636804 0.001908388 0)
(7.636902 0.001934295 0)
(7.636998 0.00195776 0)
(7.637093 0.001979039 0)
(7.637187 0.001998358 0)
(7.63728 0.002015914 0)
(7.637373 0.002031884 0)
(7.637464 0.002046422 0)
(7.637555 0.002059666 0)
(7.637645 0.002071738 0)
(7.637734 0.002082744 0)
(7.637822 0.00209278 0)
(7.63791 0.002101932 0)
(7.637998 0.002110275 0)
(7.638084 0.002117876 0)
(7.638171 0.002124794 0)
(7.638257 0.002131083 0)
(7.638342 0.002136789 0)
(7.638428 0.002141955 0)
(7.638513 0.002146616 0)
(7.638597 0.002150805 0)
(7.638682 0.00215455 0)
(7.638766 0.002157876 0)
(7.63885 0.002160804 0)
(7.638934 0.002163351 0)
(7.639018 0.002165532 0)
(7.639101 0.00216736 0)
(7.639185 0.002168844 0)
(7.639268 0.00216999 0)
(7.639352 0.002170803 0)
(7.639435 0.002171284 0)
(7.639519 0.002171434 0)
(7.639602 0.002171248 0)
(7.639686 0.002170721 0)
(7.639769 0.002169846 0)
(7.639853 0.002168611 0)
(7.639937 0.002167004 0)
(7.640021 0.002165008 0)
(7.640105 0.002162604 0)
(7.64019 0.002159771 0)
(7.640274 0.002156484 0)
(7.640359 0.002152712 0)
(7.640445 0.002148424 0)
(7.64053 0.002143582 0)
(7.640616 0.002138145 0)
(7.640703 0.002132066 0)
(7.640789 0.002125293 0)
(7.640877 0.002117767 0)
(7.640965 0.002109423 0)
(7.641053 0.002100187 0)
(7.641142 0.002089979 0)
(7.641232 0.002078706 0)
(7.641323 0.002066266 0)
(7.641414 0.002052545 0)
(7.641506 0.002037414 0)
(7.641599 0.00202073 0)
(7.641693 0.002002329 0)
(7.641788 0.001982029 0)
(7.641884 0.001959625 0)
(7.641982 0.001934885 0)
(7.64208 0.001907548 0)
(7.64218 0.001877319 0)
(7.642281 0.001843863 0)
(7.642383 0.001806805 0)
(7.642486 0.00176572 0)
(7.642591 0.001720132 0)
(7.642696 0.001669506 0)
(7.642803 0.001613247 0)
(7.64291 0.001550699 0)
(7.643018 0.001481143 0)
(7.643125 0.001403811 0)
(7.643232 0.001317897 0)
(7.643336 0.001222588 0)
(7.643438 0.001117109 0)
(7.643536 0.001000786 0)
(7.643627 0.0008731464 0)
(7.643711 0.0007340329 0)
(7.643784 0.0005837347 0)
(7.643844 0.000423206 0)
(7.643888 0.0002538962 0)
(7.643921 7.901295e-05 0)
(11.20614 0.0002253466 0)
(8.392405 0.0004273529 0)
(7.25825 0.0005738297 0)
(7.560263 0.0007100723 0)
(7.675103 0.0008443165 0)
(7.642835 0.0009702591 0)
(7.631326 0.001085853 0)
(7.634877 0.00119199 0)
(7.636141 0.001289328 0)
(7.635869 0.001378257 0)
(7.63585 0.001459302 0)
(7.635989 0.001533078 0)
(7.636101 0.001600191 0)
(7.636196 0.001661223 0)
(7.636295 0.001716725 0)
(7.636394 0.001767212 0)
(7.636492 0.001813158 0)
(7.636589 0.001854994 0)
(7.636686 0.001893112 0)
(7.636781 0.001927867 0)
(7.636876 0.001959577 0)
(7.63697 0.001988528 0)
(7.637062 0.002014979 0)
(7.637154 0.002039158 0)
(7.637245 0.002061274 0)
(7.637336 0.00208151 0)
(7.637425 0.002100035 0)
(7.637514 0.002116996 0)
(7.637603 0.002132527 0)
(7.63769 0.00214675 0)
(7.637777 0.002159771 0)
(7.637864 0.002171689 0)
(7.63795 0.00218259 0)
(7.638036 0.002192552 0)
(7.638121 0.002201647 0)
(7.638206 0.002209938 0)
(7.638291 0.002217481 0)
(7.638375 0.002224327 0)
(7.638459 0.002230522 0)
(7.638543 0.002236106 0)
(7.638626 0.002241115 0)
(7.63871 0.002245581 0)
(7.638793 0.002249531 0)
(7.638876 0.00225299 0)
(7.638959 0.002255978 0)
(7.639042 0.002258513 0)
(7.639125 0.002260609 0)
(7.639207 0.002262278 0)
(7.63929 0.002263528 0)
(7.639373 0.002264364 0)
(7.639456 0.002264789 0)
(7.639539 0.002264804 0)
(7.639621 0.002264406 0)
(7.639704 0.002263589 0)
(7.639787 0.002262346 0)
(7.639871 0.002260664 0)
(7.639954 0.00225853 0)
(7.640037 0.002255926 0)
(7.640121 0.002252831 0)
(7.640205 0.002249222 0)
(7.640289 0.002245068 0)
(7.640374 0.00224034 0)
(7.640459 0.002234998 0)
(7.640544 0.002229003 0)
(7.640629 0.002222307 0)
(7.640715 0.002214857 0)
(7.640801 0.002206594 0)
(7.640888 0.002197453 0)
(7.640975 0.00218736 0)
(7.641063 0.002176232 0)
(7.641152 0.002163977 0)
(7.641241 0.002150492 0)
(7.64133 0.002135663 0)