/*--------------------------------*- C++ -*----------------------------------*\
| =========                 |                                                 |
| \\      /  F ield         | OpenFOAM: The Open Source CFD Toolbox           |
|  \\    /   O peration     | Version:  2.3.0                                 |
|   \\  /    A nd           | Web:      www.OpenFOAM.org                      |
|    \\/     M anipulation  |                                                 |
\*---------------------------------------------------------------------------*/
FoamFile
{
    version     2.0;
    format      ascii;
    class       surfaceScalarField;
    location    "9600/bottomAir";
    object      phi;
}
// * * * * * * * * * * * * * * * * * * * * * * * * * * * * * * * * * * * * * //

dimensions      [1 0 -1 0 0 0 0];

internalField   nonuniform List<scalar> 
7860
(
0.00663785
-1.218142e-06
0.006638205
-3.547065e-07
0.006638296
-8.994869e-08
0.00663841
-1.126403e-07
0.006638493
-8.286915e-08
0.006638548
-5.455619e-08
0.006638595
-4.622532e-08
0.006638638
-4.354512e-08
0.006638681
-4.21917e-08
0.006638723
-4.231169e-08
0.006638766
-4.344039e-08
0.006638811
-4.505206e-08
0.006638858
-4.691804e-08
0.006638907
-4.892388e-08
0.006638958
-5.099043e-08
0.006639011
-5.306372e-08
0.006639066
-5.511057e-08
0.006639123
-5.710905e-08
0.006639182
-5.904465e-08
0.006639243
-6.090795e-08
0.006639305
-6.269276e-08
0.006639369
-6.439576e-08
0.006639435
-6.601493e-08
0.006639503
-6.755006e-08
0.006639572
-6.900139e-08
0.006639642
-7.037037e-08
0.006639714
-7.165851e-08
0.006639786
-7.286811e-08
0.00663986
-7.400138e-08
0.006639935
-7.506101e-08
0.006640011
-7.604951e-08
0.006640088
-7.696972e-08
0.006640166
-7.782423e-08
0.006640245
-7.861578e-08
0.006640324
-7.934691e-08
0.006640404
-8.002015e-08
0.006640485
-8.063788e-08
0.006640566
-8.120235e-08
0.006640647
-8.171569e-08
0.006640729
-8.217984e-08
0.006640812
-8.259665e-08
0.006640895
-8.296771e-08
0.006640978
-8.329453e-08
0.006641062
-8.357836e-08
0.006641146
-8.382038e-08
0.00664123
-8.402145e-08
0.006641314
-8.418241e-08
0.006641398
-8.430376e-08
0.006641482
-8.438598e-08
0.006641567
-8.442918e-08
0.006641651
-8.44335e-08
0.006641735
-8.439867e-08
0.00664182
-8.432447e-08
0.006641904
-8.421026e-08
0.006641988
-8.405544e-08
0.006642072
-8.3859e-08
0.006642155
-8.361997e-08
0.006642239
-8.333696e-08
0.006642322
-8.300864e-08
0.006642404
-8.263324e-08
0.006642487
-8.220906e-08
0.006642568
-8.173396e-08
0.006642649
-8.120588e-08
0.00664273
-8.062232e-08
0.00664281
-7.998089e-08
0.006642889
-7.927873e-08
0.006642968
-7.851314e-08
0.006643045
-7.768097e-08
0.006643122
-7.677923e-08
0.006643198
-7.580455e-08
0.006643273
-7.475371e-08
0.006643346
-7.362317e-08
0.006643419
-7.240961e-08
0.00664349
-7.110943e-08
0.00664356
-6.97193e-08
0.006643628
-6.823571e-08
0.006643694
-6.665552e-08
0.006643759
-6.497544e-08
0.006643823
-6.31927e-08
0.006643884
-6.13045e-08
0.006643943
-5.930865e-08
0.006644
-5.720307e-08
0.006644055
-5.498641e-08
0.006644108
-5.265759e-08
0.006644158
-5.021637e-08
0.006644206
-4.766292e-08
0.006644251
-4.499841e-08
0.006644293
-4.22245e-08
0.006644332
-3.9344e-08
0.006644369
-3.636033e-08
0.006644402
-3.32781e-08
0.006644432
-3.010269e-08
0.006644459
-2.684078e-08
0.006644482
-2.350007e-08
0.006644502
-2.009e-08
0.006644519
-1.662232e-08
0.006644532
-1.311267e-08
0.006644542
-9.587743e-09
0.006644548
-6.082525e-09
-2.737085e-09
0.006636862
-6.613663e-07
0.006636865
-3.574711e-07
0.006636929
-1.524747e-07
0.006636947
-1.295798e-07
0.006636975
-1.10391e-07
0.006637011
-8.958456e-08
0.006637046
-8.168226e-08
0.006637083
-8.02568e-08
0.006637122
-8.09717e-08
0.006637163
-8.318424e-08
0.006637205
-8.645165e-08
0.006637251
-9.02913e-08
0.006637298
-9.442259e-08
0.006637348
-9.869152e-08
0.0066374
-1.02993e-07
0.006637454
-1.072549e-07
0.00663751
-1.114293e-07
0.006637568
-1.154837e-07
0.006637629
-1.193965e-07
0.006637691
-1.231535e-07
0.006637755
-1.267457e-07
0.00663782
-1.301681e-07
0.006637888
-1.334189e-07
0.006637956
-1.364979e-07
0.006638027
-1.394071e-07
0.006638099
-1.421494e-07
0.006638172
-1.447288e-07
0.006638246
-1.471496e-07
0.006638321
-1.494172e-07
0.006638397
-1.515365e-07
0.006638475
-1.535132e-07
0.006638553
-1.553528e-07
0.006638632
-1.570608e-07
0.006638712
-1.586425e-07
0.006638793
-1.601033e-07
0.006638874
-1.614482e-07
0.006638956
-1.62682e-07
0.006639039
-1.638093e-07
0.006639122
-1.648343e-07
0.006639206
-1.657611e-07
0.00663929
-1.665931e-07
0.006639374
-1.673338e-07
0.006639459
-1.67986e-07
0.006639543
-1.685524e-07
0.006639629
-1.690352e-07
0.006639714
-1.694364e-07
0.0066398
-1.697573e-07
0.006639885
-1.699993e-07
0.006639971
-1.70163e-07
0.006640057
-1.70249e-07
0.006640143
-1.702572e-07
0.006640228
-1.701874e-07
0.006640314
-1.700388e-07
0.0066404
-1.698106e-07
0.006640485
-1.695011e-07
0.00664057
-1.691088e-07
0.006640655
-1.686312e-07
0.00664074
-1.68066e-07
0.006640824
-1.674102e-07
0.006640908
-1.666606e-07
0.006640992
-1.658133e-07
0.006641075
-1.648646e-07
0.006641158
-1.638099e-07
0.00664124
-1.626446e-07
0.006641321
-1.613634e-07
0.006641402
-1.599612e-07
0.006641482
-1.58432e-07
0.006641561
-1.567699e-07
0.006641639
-1.549687e-07
0.006641716
-1.530217e-07
0.006641792
-1.509224e-07
0.006641867
-1.486638e-07
0.006641941
-1.46239e-07
0.006642014
-1.43641e-07
0.006642085
-1.40863e-07
0.006642154
-1.37898e-07
0.006642222
-1.347394e-07
0.006642289
-1.313811e-07
0.006642353
-1.278169e-07
0.006642416
-1.240416e-07
0.006642477
-1.200504e-07
0.006642535
-1.158394e-07
0.006642592
-1.114056e-07
0.006642646
-1.06747e-07
0.006642698
-1.018627e-07
0.006642747
-9.675333e-08
0.006642793
-9.142085e-08
0.006642837
-8.586892e-08
0.006642877
-8.010268e-08
0.006642915
-7.412928e-08
0.00664295
-6.795753e-08
0.006642981
-6.159838e-08
0.00664301
-5.506457e-08
0.006643034
-4.837107e-08
0.006643056
-4.153487e-08
0.006643074
-3.457541e-08
0.006643088
-2.751447e-08
0.006643099
-2.037737e-08
0.006643106
-1.319083e-08
-5.990965e-09
0.006637135
-3.68221e-07
0.006637032
-2.543045e-07
0.006637035
-1.541533e-07
0.006637045
-1.389877e-07
0.006637066
-1.308195e-07
0.006637098
-1.204316e-07
0.006637133
-1.164347e-07
0.00663717
-1.172017e-07
0.006637209
-1.201271e-07
0.00663725
-1.244743e-07
0.006637293
-1.298468e-07
0.006637339
-1.35834e-07
0.006637386
-1.421482e-07
0.006637436
-1.486059e-07
0.006637488
-1.550791e-07
0.006637542
-1.614761e-07
0.006637599
-1.677332e-07
0.006637657
-1.738061e-07
0.006637717
-1.796643e-07
0.006637779
-1.852876e-07
0.006637843
-1.906634e-07
0.006637908
-1.957844e-07
0.006637975
-2.006479e-07
0.006638044
-2.052542e-07
0.006638114
-2.096059e-07
0.006638186
-2.137076e-07
0.006638259
-2.175652e-07
0.006638333
-2.211855e-07
0.006638408
-2.245762e-07
0.006638484
-2.27745e-07
0.006638561
-2.307004e-07
0.006638639
-2.334505e-07
0.006638718
-2.360037e-07
0.006638797
-2.383681e-07
0.006638878
-2.405515e-07
0.006638959
-2.425617e-07
0.006639041
-2.444057e-07
0.006639123
-2.460905e-07
0.006639206
-2.476224e-07
0.006639289
-2.490074e-07
0.006639372
-2.502509e-07
0.006639456
-2.513579e-07
0.006639541
-2.523327e-07
0.006639625
-2.531793e-07
0.00663971
-2.539011e-07
0.006639795
-2.545008e-07
0.00663988
-2.549807e-07
0.006639966
-2.553427e-07
0.006640051
-2.555878e-07
0.006640136
-2.557167e-07
0.006640222
-2.557295e-07
0.006640307
-2.556258e-07
0.006640393
-2.554045e-07
0.006640478
-2.55064e-07
0.006640563
-2.546023e-07
0.006640648
-2.540165e-07
0.006640732
-2.533036e-07
0.006640817
-2.524596e-07
0.006640901
-2.514802e-07
0.006640985
-2.503605e-07
0.006641068
-2.490949e-07
0.006641151
-2.476774e-07
0.006641233
-2.461015e-07
0.006641315
-2.4436e-07
0.006641396
-2.424453e-07
0.006641476
-2.403492e-07
0.006641556
-2.380631e-07
0.006641634
-2.355779e-07
0.006641712
-2.328843e-07
0.006641789
-2.299724e-07
0.006641865
-2.26832e-07
0.00664194
-2.234528e-07
0.006642014
-2.198244e-07
0.006642086
-2.159362e-07
0.006642157
-2.117777e-07
0.006642226
-2.073384e-07
0.006642294
-2.026085e-07
0.00664236
-1.975782e-07
0.006642425
-1.922386e-07
0.006642487
-1.865815e-07
0.006642548
-1.805996e-07
0.006642606
-1.742868e-07
0.006642662
-1.676384e-07
0.006642716
-1.606513e-07
0.006642768
-1.533241e-07
0.006642817
-1.456574e-07
0.006642863
-1.376541e-07
0.006642906
-1.293194e-07
0.006642947
-1.206611e-07
0.006642984
-1.116897e-07
0.006643019
-1.024184e-07
0.00664305
-9.286334e-08
0.006643078
-8.304373e-08
0.006643103
-7.298163e-08
0.006643124
-6.270212e-08
0.006643141
-5.223326e-08
0.006643156
-4.16057e-08
0.006643166
-3.085265e-08
0.006643173
-2.000568e-08
-9.096965e-09
0.006637224
-2.111014e-07
0.006637165
-1.945212e-07
0.006637169
-1.568137e-07
0.006637181
-1.499643e-07
0.006637199
-1.479282e-07
0.006637224
-1.45213e-07
0.006637253
-1.459609e-07
0.006637286
-1.500643e-07
0.006637322
-1.560836e-07
0.006637361
-1.633368e-07
0.006637403
-1.714425e-07
0.006637447
-1.800566e-07
0.006637493
-1.889146e-07
0.006637543
-1.97834e-07
0.006637594
-2.066844e-07
0.006637648
-2.153718e-07
0.006637704
-2.23829e-07
0.006637762
-2.320092e-07
0.006637822
-2.398801e-07
0.006637884
-2.474207e-07
0.006637948
-2.546182e-07
0.006638014
-2.614662e-07
0.006638081
-2.679633e-07
0.00663815
-2.741114e-07
0.00663822
-2.799157e-07
0.006638291
-2.853831e-07
0.006638364
-2.905224e-07
0.006638438
-2.953433e-07
0.006638514
-2.998565e-07
0.00663859
-3.040729e-07
0.006638667
-3.08004e-07
0.006638745
-3.11661e-07
0.006638824
-3.150553e-07
0.006638904
-3.181978e-07
0.006638985
-3.210993e-07
0.006639066
-3.2377e-07
0.006639147
-3.262196e-07
0.00663923
-3.284574e-07
0.006639313
-3.304919e-07
0.006639396
-3.323311e-07
0.00663948
-3.339823e-07
0.006639564
-3.354522e-07
0.006639648
-3.367466e-07
0.006639733
-3.378708e-07
0.006639818
-3.388293e-07
0.006639903
-3.396258e-07
0.006639988
-3.402635e-07
0.006640073
-3.407446e-07
0.006640159
-3.410707e-07
0.006640244
-3.412427e-07
0.00664033
-3.412608e-07
0.006640415
-3.411243e-07
0.006640501
-3.408318e-07
0.006640586
-3.403814e-07
0.006640671
-3.397701e-07
0.006640756
-3.389943e-07
0.006640841
-3.380498e-07
0.006640925
-3.369314e-07
0.006641009
-3.356333e-07
0.006641093
-3.34149e-07
0.006641176
-3.324711e-07
0.006641259
-3.305915e-07
0.006641342
-3.285014e-07
0.006641424
-3.261914e-07
0.006641505
-3.236511e-07
0.006641585
-3.208698e-07
0.006641665
-3.178358e-07
0.006641744
-3.145371e-07
0.006641822
-3.109609e-07
0.006641899
-3.070941e-07
0.006641975
-3.029231e-07
0.00664205
-2.984339e-07
0.006642124
-2.936124e-07
0.006642196
-2.884445e-07
0.006642268
-2.829158e-07
0.006642337
-2.770125e-07
0.006642405
-2.707208e-07
0.006642472
-2.640278e-07
0.006642536
-2.569211e-07
0.006642599
-2.493895e-07
0.00664266
-2.41423e-07
0.006642719
-2.330133e-07
0.006642775
-2.241536e-07
0.006642829
-2.148396e-07
0.006642881
-2.05069e-07
0.00664293
-1.948424e-07
0.006642977
-1.841633e-07
0.006643021
-1.730384e-07
0.006643061
-1.614779e-07
0.006643099
-1.494956e-07
0.006643134
-1.371089e-07
0.006643165
-1.243392e-07
0.006643193
-1.11212e-07
0.006643218
-9.775638e-08
0.006643239
-8.400531e-08
0.006643257
-6.99954e-08
0.006643271
-5.576618e-08
0.006643282
-4.136057e-08
0.006643289
-2.681997e-08
-1.220235e-08
0.006637292
-1.425753e-07
0.006637254
-1.561903e-07
0.006637246
-1.478996e-07
0.006637249
-1.52155e-07
0.006637261
-1.586965e-07
0.006637281
-1.646107e-07
0.006637307
-1.718441e-07
0.006637338
-1.807895e-07
0.006637372
-1.908647e-07
0.006637411
-2.016604e-07
0.006637452
-2.129281e-07
0.006637496
-2.244431e-07
0.006637543
-2.360147e-07
0.006637593
-2.474982e-07
0.006637645
-2.587849e-07
0.006637699
-2.697931e-07
0.006637756
-2.804627e-07
0.006637814
-2.907504e-07
0.006637875
-3.006266e-07
0.006637938
-3.10072e-07
0.006638002
-3.190758e-07
0.006638068
-3.276333e-07
0.006638136
-3.357452e-07
0.006638205
-3.43416e-07
0.006638276
-3.506533e-07
0.006638348
-3.57467e-07
0.006638421
-3.638688e-07
0.006638495
-3.698717e-07
0.006638571
-3.754892e-07
0.006638648
-3.807358e-07
0.006638725
-3.856259e-07
0.006638804
-3.901738e-07
0.006638883
-3.943941e-07
0.006638963
-3.983005e-07
0.006639044
-4.019066e-07
0.006639125
-4.052253e-07
0.006639207
-4.082688e-07
0.00663929
-4.110489e-07
0.006639373
-4.135762e-07
0.006639456
-4.158607e-07
0.00663954
-4.179116e-07
0.006639624
-4.197371e-07
0.006639709
-4.213448e-07
0.006639794
-4.227412e-07
0.006639879
-4.239317e-07
0.006639964
-4.249213e-07
0.006640049
-4.257138e-07
0.006640135
-4.263119e-07
0.006640221
-4.267177e-07
0.006640306
-4.269324e-07
0.006640392
-4.26956e-07
0.006640477
-4.267878e-07
0.006640563
-4.264261e-07
0.006640649
-4.258683e-07
0.006640734
-4.251108e-07
0.006640819
-4.241492e-07
0.006640904
-4.229781e-07
0.006640989
-4.215911e-07
0.006641073
-4.199808e-07
0.006641157
-4.181392e-07
0.00664124
-4.160569e-07
0.006641323
-4.137239e-07
0.006641406
-4.111292e-07
0.006641488
-4.082608e-07
0.00664157
-4.051059e-07
0.00664165
-4.016508e-07
0.00664173
-3.97881e-07
0.00664181
-3.937813e-07
0.006641888
-3.893357e-07
0.006641965
-3.845275e-07
0.006642042
-3.793396e-07
0.006642117
-3.737545e-07
0.006642191
-3.677541e-07
0.006642264
-3.613205e-07
0.006642336
-3.544357e-07
0.006642406
-3.470817e-07
0.006642474
-3.392412e-07
0.006642541
-3.308975e-07
0.006642606
-3.220348e-07
0.006642669
-3.126386e-07
0.006642731
-3.026959e-07
0.00664279
-2.921957e-07
0.006642847
-2.811292e-07
0.006642901
-2.694901e-07
0.006642954
-2.572755e-07
0.006643003
-2.444853e-07
0.00664305
-2.311237e-07
0.006643094
-2.171985e-07
0.006643136
-2.02722e-07
0.006643174
-1.877112e-07
0.006643209
-1.721878e-07
0.006643241
-1.561784e-07
0.006643269
-1.397147e-07
0.006643294
-1.22833e-07
0.006643316
-1.055746e-07
0.006643334
-8.798516e-08
0.006643348
-7.0114e-08
0.006643359
-5.201457e-08
0.006643366
-3.373843e-08
-1.535956e-08
0.006637294
-1.00489e-07
0.00663727
-1.322419e-07
0.006637267
-1.437323e-07
0.006637274
-1.579354e-07
0.006637288
-1.720727e-07
0.006637309
-1.850036e-07
0.006637335
-1.979264e-07
0.006637366
-2.114394e-07
0.0066374
-2.254475e-07
0.006637439
-2.397617e-07
0.00663748
-2.542347e-07
0.006637524
-2.687211e-07
0.006637571
-2.83083e-07
0.006637621
-2.972045e-07
0.006637673
-3.10994e-07
0.006637727
-3.243801e-07
0.006637784
-3.37309e-07
0.006637843
-3.497421e-07
0.006637904
-3.616528e-07
0.006637967
-3.730249e-07
0.006638031
-3.838501e-07
0.006638098
-3.941268e-07
0.006638166
-4.038587e-07
0.006638235
-4.130534e-07
0.006638306
-4.21722e-07
0.006638379
-4.298777e-07
0.006638452
-4.375358e-07
0.006638527
-4.447127e-07
0.006638603
-4.514257e-07
0.00663868
-4.576925e-07
0.006638758
-4.635312e-07
0.006638836
-4.689595e-07
0.006638916
-4.739949e-07
0.006638996
-4.786546e-07
0.006639077
-4.829549e-07
0.006639159
-4.869115e-07
0.006639241
-4.905394e-07
0.006639324
-4.938526e-07
0.006639407
-4.968641e-07
0.006639491
-4.99586e-07
0.006639575
-5.020294e-07
0.006639659
-5.042042e-07
0.006639744
-5.061195e-07
0.006639829
-5.07783e-07
0.006639914
-5.092016e-07
0.00664
-5.103809e-07
0.006640085
-5.113256e-07
0.006640171
-5.120391e-07
0.006640257
-5.125239e-07
0.006640342
-5.127813e-07
0.006640428
-5.128114e-07
0.006640514
-5.126133e-07
0.0066406
-5.121851e-07
0.006640685
-5.115236e-07
0.006640771
-5.106246e-07
0.006640856
-5.094826e-07
0.006640941
-5.080913e-07
0.006641026
-5.064429e-07
0.006641111
-5.045288e-07
0.006641195
-5.02339e-07
0.006641279
-4.998626e-07
0.006641362
-4.970873e-07
0.006641445
-4.939999e-07
0.006641527
-4.90586e-07
0.006641609
-4.868302e-07
0.00664169
-4.827159e-07
0.00664177
-4.782257e-07
0.00664185
-4.733411e-07
0.006641929
-4.680427e-07
0.006642006
-4.623104e-07
0.006642083
-4.561234e-07
0.006642159
-4.494603e-07
0.006642233
-4.422992e-07
0.006642307
-4.346181e-07
0.006642379
-4.26395e-07
0.006642449
-4.17608e-07
0.006642518
-4.082356e-07
0.006642585
-3.982571e-07
0.006642651
-3.876531e-07
0.006642715
-3.764054e-07
0.006642777
-3.644977e-07
0.006642836
-3.51916e-07
0.006642894
-3.38649e-07
0.006642949
-3.246885e-07
0.006643002
-3.100298e-07
0.006643052
-2.946726e-07
0.006643099
-2.786208e-07
0.006643144
-2.618833e-07
0.006643186
-2.444744e-07
0.006643224
-2.264139e-07
0.00664326
-2.077278e-07
0.006643292
-1.884477e-07
0.006643321
-1.686115e-07
0.006643347
-1.482633e-07
0.006643368
-1.274527e-07
0.006643387
-1.06235e-07
0.006643401
-8.467003e-08
0.006643412
-6.282303e-08
0.006643419
-4.075741e-08
-1.856679e-08
0.006637298
-8.259848e-08
0.006637288
-1.218331e-07
0.006637289
-1.431814e-07
0.006637296
-1.644054e-07
0.00663731
-1.848881e-07
0.006637329
-2.039941e-07
0.006637354
-2.224293e-07
0.006637383
-2.407391e-07
0.006637417
-2.590139e-07
0.006637454
-2.771828e-07
0.006637495
-2.951676e-07
0.006637539
-3.128838e-07
0.006637586
-3.302421e-07
0.006637636
-3.471609e-07
0.006637689
-3.635727e-07
0.006637744
-3.794237e-07
0.006637801
-3.946734e-07
0.00663786
-4.092928e-07
0.006637922
-4.232634e-07
0.006637985
-4.365751e-07
0.006638051
-4.492256e-07
0.006638118
-4.612181e-07
0.006638186
-4.725612e-07
0.006638256
-4.832672e-07
0.006638328
-4.933513e-07
0.006638401
-5.028312e-07
0.006638475
-5.117265e-07
0.00663855
-5.200575e-07
0.006638627
-5.278457e-07
0.006638704
-5.351125e-07
0.006638782
-5.418798e-07
0.006638861
-5.481688e-07
0.006638941
-5.540005e-07
0.006639022
-5.593952e-07
0.006639103
-5.643724e-07
0.006639185
-5.689507e-07
0.006639268
-5.731477e-07
0.006639351
-5.769799e-07
0.006639434
-5.804626e-07
0.006639518
-5.836101e-07
0.006639603
-5.864352e-07
0.006639688
-5.889497e-07
0.006639773
-5.911641e-07
0.006639858
-5.930876e-07
0.006639943
-5.947281e-07
0.006640029
-5.960923e-07
0.006640115
-5.971855e-07
0.006640201
-5.980118e-07
0.006640287
-5.985741e-07
0.006640373
-5.988738e-07
0.006640459
-5.989112e-07
0.006640545
-5.986852e-07
0.006640631
-5.981936e-07
0.006640717
-5.974326e-07
0.006640803
-5.963973e-07
0.006640888
-5.950814e-07
0.006640974
-5.934775e-07
0.006641059
-5.915766e-07
0.006641143
-5.893684e-07
0.006641228
-5.868415e-07
0.006641312
-5.83983e-07
0.006641396
-5.807786e-07
0.006641479
-5.772128e-07
0.006641562
-5.732688e-07
0.006641644
-5.689285e-07
0.006641725
-5.641724e-07
0.006641806
-5.589801e-07
0.006641886
-5.533297e-07
0.006641965
-5.471986e-07
0.006642043
-5.405628e-07
0.00664212
-5.333979e-07
0.006642197
-5.256783e-07
0.006642272
-5.173783e-07
0.006642346
-5.084716e-07
0.006642418
-4.989318e-07
0.006642489
-4.887328e-07
0.006642559
-4.778487e-07
0.006642627
-4.662548e-07
0.006642693
-4.539272e-07
0.006642757
-4.408438e-07
0.00664282
-4.269848e-07
0.00664288
-4.123325e-07
0.006642939
-3.968728e-07
0.006642994
-3.805949e-07
0.006643048
-3.634924e-07
0.006643099
-3.455637e-07
0.006643147
-3.268124e-07
0.006643192
-3.07248e-07
0.006643235
-2.868866e-07
0.006643274
-2.657505e-07
0.00664331
-2.438697e-07
0.006643343
-2.212809e-07
0.006643372
-1.980285e-07
0.006643398
-1.741642e-07
0.006643421
-1.497465e-07
0.006643439
-1.248408e-07
0.006643454
-9.9518e-08
0.006643465
-7.385571e-08
0.006643472
-4.792946e-08
-2.185025e-08
0.006637285
-7.217346e-08
0.006637281
-1.173964e-07
0.006637285
-1.460128e-07
0.006637295
-1.731568e-07
0.00663731
-1.994877e-07
0.006637331
-2.242837e-07
0.006637357
-2.479069e-07
0.006637387
-2.708568e-07
0.006637421
-2.933159e-07
0.006637459
-3.152933e-07
0.006637501
-3.367692e-07
0.006637545
-3.577093e-07
0.006637593
-3.780647e-07
0.006637644
-3.977837e-07
0.006637697
-4.168205e-07
0.006637753
-4.351375e-07
0.00663781
-4.527064e-07
0.006637871
-4.695078e-07
0.006637933
-4.855307e-07
0.006637997
-5.007719e-07
0.006638063
-5.152348e-07
0.00663813
-5.289281e-07
0.0066382
-5.418654e-07
0.00663827
-5.54064e-07
0.006638342
-5.655438e-07
0.006638416
-5.763273e-07
0.006638491
-5.864384e-07
0.006638566
-5.95902e-07
0.006638643
-6.047436e-07
0.006638721
-6.129889e-07
0.0066388
-6.206636e-07
0.006638879
-6.277927e-07
0.00663896
-6.344007e-07
0.006639041
-6.405113e-07
0.006639122
-6.461472e-07
0.006639205
-6.513299e-07
0.006639288
-6.560797e-07
0.006639371
-6.604157e-07
0.006639455
-6.643556e-07
0.006639539
-6.679157e-07
0.006639624
-6.711109e-07
0.006639709
-6.739547e-07
0.006639794
-6.764591e-07
0.006639879
-6.786346e-07
0.006639965
-6.804903e-07
0.006640051
-6.820338e-07
0.006640137
-6.832714e-07
0.006640223
-6.842076e-07
0.00664031
-6.848456e-07
0.006640396
-6.851874e-07
0.006640482
-6.85233e-07
0.006640568
-6.849814e-07
0.006640655
-6.844298e-07
0.006640741
-6.835741e-07
0.006640827
-6.824088e-07
0.006640913
-6.809265e-07
0.006640998
-6.791188e-07
0.006641084
-6.769755e-07
0.006641169
-6.744849e-07
0.006641253
-6.716337e-07
0.006641338
-6.684073e-07
0.006641422
-6.647894e-07
0.006641505
-6.607621e-07
0.006641588
-6.563062e-07
0.006641671
-6.514008e-07
0.006641753
-6.460237e-07
0.006641834
-6.401511e-07
0.006641914
-6.33758e-07
0.006641994
-6.268179e-07
0.006642073
-6.193035e-07
0.00664215
-6.111861e-07
0.006642227
-6.024363e-07
0.006642303
-5.930238e-07
0.006642377
-5.829179e-07
0.00664245
-5.720879e-07
0.006642522
-5.605028e-07
0.006642592
-5.481323e-07
0.006642661
-5.349467e-07
0.006642728
-5.209179e-07
0.006642793
-5.060192e-07
0.006642856
-4.902264e-07
0.006642918
-4.735182e-07
0.006642976
-4.558766e-07
0.006643033
-4.372881e-07
0.006643087
-4.177438e-07
0.006643139
-3.972403e-07
0.006643188
-3.757804e-07
0.006643234
-3.533738e-07
0.006643277
-3.300377e-07
0.006643317
-3.05797e-07
0.006643354
-2.806852e-07
0.006643388
-2.547442e-07
0.006643418
-2.280249e-07
0.006643444
-2.005869e-07
0.006643467
-1.72498e-07
0.006643486
-1.438344e-07
0.006643501
-1.146792e-07
0.006643512
-8.512348e-08
0.006643519
-5.525651e-08
-2.521091e-08
0.006637272
-6.916603e-08
0.006637275
-1.187829e-07
0.006637282
-1.52375e-07
0.006637294
-1.843044e-07
0.006637311
-2.156543e-07
0.006637333
-2.454505e-07
0.006637359
-2.738149e-07
0.006637389
-3.01186e-07
0.006637423
-3.277567e-07
0.006637462
-3.535563e-07
0.006637503
-3.785861e-07
0.006637549
-4.028355e-07
0.006637597
-4.262782e-07
0.006637648
-4.48882e-07
0.006637701
-4.706177e-07
0.006637758
-4.914615e-07
0.006637816
-5.11397e-07
0.006637877
-5.304149e-07
0.00663794
-5.485133e-07
0.006638005
-5.656971e-07
0.006638071
-5.819769e-07
0.00663814
-5.973684e-07
0.00663821
-6.118916e-07
0.006638281
-6.255698e-07
0.006638354
-6.384289e-07
0.006638428
-6.504967e-07
0.006638503
-6.618025e-07
0.00663858
-6.723762e-07
0.006638657
-6.82248e-07
0.006638736
-6.914483e-07
0.006638815
-7.000069e-07
0.006638895
-7.079531e-07
0.006638976
-7.15315e-07
0.006639057
-7.221199e-07
0.00663914
-7.283937e-07
0.006639222
-7.341612e-07
0.006639306
-7.394456e-07
0.006639389
-7.442683e-07
0.006639474
-7.486497e-07
0.006639558
-7.526081e-07
0.006639643
-7.561605e-07
0.006639729
-7.59322e-07
0.006639814
-7.621062e-07
0.0066399
-7.64525e-07
0.006639986
-7.665888e-07
0.006640072
-7.683059e-07
0.006640159
-7.696834e-07
0.006640245
-7.707266e-07
0.006640332
-7.714391e-07
0.006640418
-7.718228e-07
0.006640505
-7.718781e-07
0.006640592
-7.716036e-07
0.006640678
-7.709965e-07
0.006640765
-7.70052e-07
0.006640851
-7.687638e-07
0.006640937
-7.671239e-07
0.006641023
-7.651226e-07
0.006641109
-7.627486e-07
0.006641194
-7.599886e-07
0.00664128
-7.568279e-07
0.006641364
-7.532498e-07
0.006641449
-7.492361e-07
0.006641533
-7.447665e-07
0.006641616
-7.398193e-07
0.006641699
-7.343709e-07
0.006641782
-7.283961e-07
0.006641863
-7.21868e-07
0.006641944
-7.147582e-07
0.006642025
-7.070365e-07
0.006642104
-6.986716e-07
0.006642182
-6.896308e-07
0.00664226
-6.798803e-07
0.006642336
-6.693855e-07
0.006642411
-6.581109e-07
0.006642485
-6.460208e-07
0.006642558
-6.330794e-07
0.006642629
-6.192513e-07
0.006642698
-6.045018e-07
0.006642766
-5.887975e-07
0.006642832
-5.72107e-07
0.006642897
-5.544011e-07
0.006642959
-5.35654e-07
0.006643019
-5.158436e-07
0.006643076
-4.949526e-07
0.006643131
-4.729689e-07
0.006643184
-4.49887e-07
0.006643234
-4.257082e-07
0.006643281
-4.004417e-07
0.006643325
-3.741053e-07
0.006643366
-3.467261e-07
0.006643404
-3.183409e-07
0.006643438
-2.889967e-07
0.006643469
-2.587508e-07
0.006643496
-2.276709e-07
0.006643519
-1.958349e-07
0.006643539
-1.633302e-07
0.006643554
-1.302525e-07
0.006643566
-9.670753e-08
0.006643573
-6.279863e-08
-2.867871e-08
0.006637254
-6.888609e-08
0.006637259
-1.230227e-07
0.006637269
-1.610149e-07
0.006637283
-1.972716e-07
0.006637301
-2.33316e-07
0.006637324
-2.678647e-07
0.006637351
-3.008116e-07
0.006637382
-3.325272e-07
0.006637418
-3.631828e-07
0.006637457
-3.928034e-07
0.0066375
-4.213982e-07
0.006637546
-4.489714e-07
0.006637595
-4.755137e-07
0.006637647
-5.010098e-07
0.006637702
-5.254457e-07
0.006637759
-5.488114e-07
0.006637819
-5.711024e-07
0.006637881
-5.923204e-07
0.006637944
-6.124733e-07
0.00663801
-6.315745e-07
0.006638078
-6.49643e-07
0.006638147
-6.66702e-07
0.006638218
-6.827784e-07
0.00663829
-6.979022e-07
0.006638364
-7.121058e-07
0.006638439
-7.254228e-07
0.006638515
-7.378881e-07
0.006638592
-7.495371e-07
0.00663867
-7.60405e-07
0.006638749
-7.70527e-07
0.006638829
-7.799374e-07
0.006638909
-7.886696e-07
0.006638991
-7.967557e-07
0.006639073
-8.042267e-07
0.006639155
-8.11112e-07
0.006639239
-8.174394e-07
0.006639322
-8.232349e-07
0.006639407
-8.285228e-07
0.006639491
-8.333258e-07
0.006639576
-8.376644e-07
0.006639662
-8.415575e-07
0.006639747
-8.450221e-07
0.006639833
-8.480733e-07
0.006639919
-8.507243e-07
0.006640006
-8.529866e-07
0.006640092
-8.548697e-07
0.006640179
-8.563812e-07
0.006640266
-8.575271e-07
0.006640352
-8.583114e-07
0.006640439
-8.587363e-07
0.006640526
-8.588021e-07
0.006640613
-8.585075e-07
0.0066407
-8.578491e-07
0.006640787
-8.568218e-07
0.006640873
-8.554185e-07
0.00664096
-8.536305e-07
0.006641046
-8.51447e-07
0.006641132
-8.488553e-07
0.006641218
-8.458409e-07
0.006641304
-8.423873e-07
0.006641389
-8.38476e-07
0.006641474
-8.340866e-07
0.006641558
-8.291967e-07
0.006641642
-8.23782e-07
0.006641725
-8.178161e-07
0.006641808
-8.112709e-07
0.00664189
-8.041161e-07
0.006641972
-7.963197e-07
0.006642053
-7.878481e-07
0.006642133
-7.786657e-07
0.006642212
-7.687357e-07
0.00664229
-7.580197e-07
0.006642367
-7.464783e-07
0.006642443
-7.34071e-07
0.006642518
-7.207571e-07
0.006642591
-7.064953e-07
0.006642663
-6.912446e-07
0.006642734
-6.749649e-07
0.006642802
-6.576171e-07
0.006642869
-6.391641e-07
0.006642935
-6.195713e-07
0.006642998
-5.988077e-07
0.006643059
-5.768462e-07
0.006643117
-5.53665e-07
0.006643174
-5.292482e-07
0.006643227
-5.03587e-07
0.006643278
-4.766804e-07
0.006643326
-4.485367e-07
0.006643372
-4.191736e-07
0.006643413
-3.886198e-07
0.006643452
-3.569151e-07
0.006643487
-3.241112e-07
0.006643519
-2.902721e-07
0.006643546
-2.55474e-07
0.00664357
-2.198049e-07
0.00664359
-1.833646e-07
0.006643606
-1.462628e-07
0.006643618
-1.086213e-07
0.006643626
-7.055945e-08
-3.225547e-08
0.006637235
-7.130014e-08
0.006637242
-1.299393e-07
0.006637254
-1.719174e-07
0.00663727
-2.122618e-07
0.00663729
-2.527362e-07
0.006637315
-2.917633e-07
0.006637343
-3.290666e-07
0.006637376
-3.649659e-07
0.006637412
-3.996035e-07
0.006637452
-4.329869e-07
0.006637496
-4.65121e-07
0.006637543
-4.960142e-07
0.006637593
-5.256651e-07
0.006637646
-5.540681e-07
0.006637702
-5.812194e-07
0.00663776
-6.071197e-07
0.00663782
-6.317747e-07
0.006637883
-6.55196e-07
0.006637948
-6.774007e-07
0.006638015
-6.984114e-07
0.006638083
-7.182555e-07
0.006638153
-7.369645e-07
0.006638225
-7.54573e-07
0.006638298
-7.711184e-07
0.006638373
-7.866399e-07
0.006638448
-8.011779e-07
0.006638525
-8.147735e-07
0.006638603
-8.274678e-07
0.006638682
-8.393018e-07
0.006638762
-8.503156e-07
0.006638842
-8.605483e-07
0.006638923
-8.700379e-07
0.006639006
-8.788208e-07
0.006639088
-8.869316e-07
0.006639171
-8.944032e-07
0.006639255
-9.012669e-07
0.006639339
-9.075515e-07
0.006639424
-9.132842e-07
0.006639509
-9.184899e-07
0.006639595
-9.231916e-07
0.006639681
-9.274101e-07
0.006639767
-9.311641e-07
0.006639853
-9.344703e-07
0.00663994
-9.373433e-07
0.006640026
-9.397957e-07
0.006640113
-9.418379e-07
0.0066402
-9.434784e-07
0.006640288
-9.447237e-07
0.006640375
-9.455783e-07
0.006640462
-9.460445e-07
0.006640549
-9.461228e-07
0.006640637
-9.458116e-07
0.006640724
-9.451073e-07
0.006640811
-9.440044e-07
0.006640898
-9.424951e-07
0.006640985
-9.405698e-07
0.006641072
-9.382166e-07
0.006641158
-9.354218e-07
0.006641245
-9.321693e-07
0.006641331
-9.28441e-07
0.006641416
-9.242166e-07
0.006641502
-9.194736e-07
0.006641587
-9.141874e-07
0.006641671
-9.08331e-07
0.006641755
-9.018754e-07
0.006641839
-8.947893e-07
0.006641922
-8.870391e-07
0.006642004
-8.785895e-07
0.006642085
-8.694026e-07
0.006642166
-8.59439e-07
0.006642246
-8.486573e-07
0.006642325
-8.370144e-07
0.006642403
-8.244658e-07
0.00664248
-8.10966e-07
0.006642556
-7.964684e-07
0.00664263
-7.80926e-07
0.006642703
-7.642921e-07
0.006642775
-7.4652e-07
0.006642845
-7.275647e-07
0.006642913
-7.073826e-07
0.006642979
-6.85933e-07
0.006643044
-6.631786e-07
0.006643106
-6.390867e-07
0.006643166
-6.136299e-07
0.006643223
-5.867875e-07
0.006643278
-5.585467e-07
0.00664333
-5.289033e-07
0.00664338
-4.978634e-07
0.006643426
-4.654441e-07
0.006643469
-4.316749e-07
0.006643509
-3.965982e-07
0.006643545
-3.602702e-07
0.006643577
-3.227614e-07
0.006643606
-2.841566e-07
0.006643631
-2.445548e-07
0.006643651
-2.040687e-07
0.006643668
-1.628231e-07
0.00664368
-1.209566e-07
0.006643688
-7.860617e-08
-3.597464e-08
0.006637212
-7.498736e-08
0.006637222
-1.384749e-07
0.006637235
-1.844326e-07
0.006637253
-2.288023e-07
0.006637274
-2.736157e-07
0.0066373
-3.170314e-07
0.00663733
-3.586261e-07
0.006637363
-3.986742e-07
0.006637401
-4.372835e-07
0.006637442
-4.744353e-07
0.006637487
-5.101227e-07
0.006637536
-5.443515e-07
0.006637587
-5.77124e-07
0.006637641
-6.084411e-07
0.006637698
-6.38308e-07
0.006637758
-6.667352e-07
0.00663782
-6.93739e-07
0.006637884
-7.193411e-07
0.00663795
-7.435691e-07
0.006638018
-7.664555e-07
0.006638088
-7.880372e-07
0.006638159
-8.083547e-07
0.006638232
-8.274514e-07
0.006638306
-8.453727e-07
0.006638381
-8.621656e-07
0.006638458
-8.778777e-07
0.006638536
-8.925568e-07
0.006638614
-9.062504e-07
0.006638694
-9.190053e-07
0.006638774
-9.308671e-07
0.006638856
-9.418801e-07
0.006638938
-9.520867e-07
0.00663902
-9.615278e-07
0.006639104
-9.70242e-07
0.006639187