/*--------------------------------*- C++ -*----------------------------------*\
| =========                 |                                                 |
| \\      /  F ield         | OpenFOAM: The Open Source CFD Toolbox           |
|  \\    /   O peration     | Version:  2.3.0                                 |
|   \\  /    A nd           | Web:      www.OpenFOAM.org                      |
|    \\/     M anipulation  |                                                 |
\*---------------------------------------------------------------------------*/
FoamFile
{
    version     2.0;
    format      ascii;
    class       volVectorField;
    location    "9600/bottomAir";
    object      U;
}
// * * * * * * * * * * * * * * * * * * * * * * * * * * * * * * * * * * * * * //

dimensions      [0 1 -1 0 0 0 0];

internalField   nonuniform List<vector> 
4000
(
(33.21892 -0.003038245 0)
(25.12748 -0.001525506 0)
(21.86261 -0.000608486 0)
(22.73 -0.0004701208 0)
(23.06112 -0.0003463346 0)
(22.96858 -0.0002369677 0)
(22.93529 -0.0001827253 0)
(22.94535 -0.0001542735 0)
(22.94888 -0.0001356911 0)
(22.94797 -0.000124069 0)
(22.94778 -0.0001173267 0)
(22.94805 -0.00011355 0)
(22.94825 -0.0001116617 0)
(22.94841 -0.0001110515 0)
(22.94858 -0.0001113133 0)
(22.94876 -0.0001121656 0)
(22.94895 -0.0001134177 0)
(22.94915 -0.0001149362 0)
(22.94935 -0.000116625 0)
(22.94957 -0.0001184149 0)
(22.94978 -0.000120254 0)
(22.95001 -0.000122105 0)
(22.95023 -0.0001239394 0)
(22.95047 -0.0001257368 0)
(22.95071 -0.0001274814 0)
(22.95095 -0.0001291628 0)
(22.9512 -0.0001307725 0)
(22.95145 -0.0001323059 0)
(22.95171 -0.0001337591 0)
(22.95197 -0.0001351306 0)
(22.95224 -0.0001364194 0)
(22.95251 -0.000137626 0)
(22.95278 -0.000138751 0)
(22.95305 -0.0001397959 0)
(22.95333 -0.0001407624 0)
(22.95361 -0.0001416522 0)
(22.95389 -0.0001424676 0)
(22.95417 -0.0001432105 0)
(22.95446 -0.0001438831 0)
(22.95474 -0.0001444874 0)
(22.95503 -0.0001450253 0)
(22.95532 -0.0001454987 0)
(22.95561 -0.0001459093 0)
(22.9559 -0.0001462584 0)
(22.9562 -0.0001465474 0)
(22.95649 -0.0001467771 0)
(22.95679 -0.0001469487 0)
(22.95708 -0.0001470624 0)
(22.95738 -0.0001471187 0)
(22.95767 -0.0001471175 0)
(22.95797 -0.0001470588 0)
(22.95826 -0.0001469418 0)
(22.95856 -0.0001467661 0)
(22.95885 -0.0001465301 0)
(22.95915 -0.0001462329 0)
(22.95944 -0.0001458724 0)
(22.95973 -0.000145447 0)
(22.96003 -0.0001449541 0)
(22.96032 -0.0001443914 0)
(22.96061 -0.0001437557 0)
(22.9609 -0.0001430442 0)
(22.96118 -0.0001422528 0)
(22.96147 -0.0001413783 0)
(22.96175 -0.000140416 0)
(22.96203 -0.000139362 0)
(22.96231 -0.0001382111 0)
(22.96259 -0.0001369589 0)
(22.96286 -0.0001355997 0)
(22.96313 -0.0001341284 0)
(22.9634 -0.0001325391 0)
(22.96366 -0.0001308264 0)
(22.96392 -0.0001289839 0)
(22.96418 -0.000127006 0)
(22.96443 -0.0001248864 0)
(22.96468 -0.0001226194 0)
(22.96492 -0.0001201988 0)
(22.96516 -0.0001176193 0)
(22.96539 -0.000114875 0)
(22.96562 -0.0001119613 0)
(22.96583 -0.0001088731 0)
(22.96605 -0.0001056068 0)
(22.96625 -0.0001021586 0)
(22.96645 -9.852624e-05 0)
(22.96664 -9.470773e-05 0)
(22.96682 -9.070271e-05 0)
(22.96699 -8.651132e-05 0)
(22.96716 -8.21356e-05 0)
(22.96731 -7.757832e-05 0)
(22.96746 -7.284432e-05 0)
(22.96759 -6.793938e-05 0)
(22.96771 -6.287154e-05 0)
(22.96783 -5.764998e-05 0)
(22.96793 -5.228648e-05 0)
(22.96802 -4.679473e-05 0)
(22.9681 -4.119234e-05 0)
(22.96817 -3.550275e-05 0)
(22.96822 -2.97605e-05 0)
(22.96826 -2.403282e-05 0)
(22.96829 -1.841966e-05 0)
(22.96832 -1.332699e-05 0)
(33.21358 -0.003793124 0)
(25.12489 -0.001642191 0)
(21.858 -0.0004931667 0)
(22.72478 -0.0004067928 0)
(23.05595 -0.0003080485 0)
(22.96332 -0.000208559 0)
(22.92995 -0.0001756231 0)
(22.93998 -0.0001708069 0)
(22.9435 -0.0001733968 0)
(22.94258 -0.0001811517 0)
(22.94239 -0.0001923527 0)
(22.94266 -0.0002050662 0)
(22.94286 -0.0002183273 0)
(22.94302 -0.0002316917 0)
(22.94319 -0.0002448859 0)
(22.94338 -0.000257737 0)
(22.94358 -0.0002701467 0)
(22.94378 -0.0002820585 0)
(22.94399 -0.0002934419 0)
(22.9442 -0.0003042822 0)
(22.94442 -0.0003145757 0)
(22.94465 -0.0003243261 0)
(22.94488 -0.000333542 0)
(22.94512 -0.0003422354 0)
(22.94537 -0.0003504207 0)
(22.94562 -0.0003581141 0)
(22.94587 -0.0003653327 0)
(22.94613 -0.0003720945 0)
(22.94639 -0.0003784173 0)
(22.94666 -0.0003843196 0)
(22.94693 -0.000389819 0)
(22.9472 -0.0003949333 0)
(22.94748 -0.0003996794 0)
(22.94775 -0.000404074 0)
(22.94804 -0.0004081326 0)
(22.94832 -0.0004118702 0)
(22.94861 -0.0004153009 0)
(22.94889 -0.0004184379 0)
(22.94918 -0.0004212935 0)
(22.94948 -0.000423879 0)
(22.94977 -0.0004262047 0)
(22.95006 -0.0004282799 0)
(22.95036 -0.000430113 0)
(22.95066 -0.0004317114 0)
(22.95095 -0.0004330814 0)
(22.95125 -0.0004342284 0)
(22.95155 -0.0004351567 0)
(22.95185 -0.0004358697 0)
(22.95215 -0.0004363697 0)
(22.95245 -0.0004366581 0)
(22.95275 -0.0004367352 0)
(22.95305 -0.0004366006 0)
(22.95335 -0.0004362525 0)
(22.95365 -0.0004356883 0)
(22.95395 -0.0004349047 0)
(22.95425 -0.0004338969 0)
(22.95455 -0.0004326594 0)
(22.95485 -0.0004311857 0)
(22.95514 -0.0004294684 0)
(22.95544 -0.0004274989 0)
(22.95573 -0.0004252679 0)
(22.95602 -0.0004227649 0)
(22.95631 -0.0004199786 0)
(22.9566 -0.0004168968 0)
(22.95689 -0.0004135063 0)
(22.95717 -0.0004097931 0)
(22.95745 -0.0004057425 0)
(22.95773 -0.000401339 0)
(22.958 -0.0003965662 0)
(22.95828 -0.0003914075 0)
(22.95855 -0.0003858454 0)
(22.95881 -0.0003798624 0)
(22.95907 -0.0003734406 0)
(22.95933 -0.0003665618 0)
(22.95958 -0.0003592084 0)
(22.95983 -0.0003513628 0)
(22.96007 -0.0003430079 0)
(22.96031 -0.0003341275 0)
(22.96054 -0.0003247066 0)
(22.96076 -0.0003147313 0)
(22.96098 -0.0003041897 0)
(22.96119 -0.0002930717 0)
(22.96139 -0.0002813697 0)
(22.96158 -0.0002690787 0)
(22.96177 -0.0002561969 0)
(22.96195 -0.0002427259 0)
(22.96212 -0.0002286712 0)
(22.96228 -0.0002140421 0)
(22.96243 -0.0001988526 0)
(22.96257 -0.000183121 0)
(22.96269 -0.0001668708 0)
(22.96281 -0.0001501303 0)
(22.96292 -0.0001329332 0)
(22.96301 -0.0001153191 0)
(22.9631 -9.733423e-05 0)
(22.96317 -7.903364e-05 0)
(22.96323 -6.048458e-05 0)
(22.96328 -4.178398e-05 0)
(22.96331 -2.305087e-05 0)
(22.96334 -4.643407e-06 0)
(33.21341 -0.00144919 0)
(25.12605 -0.0007377281 0)
(21.85855 -0.0003909474 0)
(22.72506 -0.0004055145 0)
(23.05626 -0.000391634 0)
(22.96364 -0.0003597789 0)
(22.93024 -0.0003512995 0)
(22.94028 -0.0003557431 0)
(22.9438 -0.0003645542 0)
(22.94289 -0.0003768095 0)
(22.94269 -0.0003917341 0)
(22.94296 -0.0004082152 0)
(22.94316 -0.0004255253 0)
(22.94332 -0.0004432197 0)
(22.9435 -0.0004609716 0)
(22.94369 -0.0004785402 0)
(22.94388 -0.0004957542 0)
(22.94408 -0.0005124915 0)
(22.94429 -0.000528666 0)
(22.94451 -0.000544218 0)
(22.94473 -0.0005591083 0)
(22.94495 -0.0005733127 0)
(22.94519 -0.0005868197 0)
(22.94543 -0.000599626 0)
(22.94567 -0.0006117364 0)
(22.94592 -0.0006231604 0)
(22.94617 -0.0006339119 0)
(22.94643 -0.000644008 0)
(22.94669 -0.0006534678 0)
(22.94696 -0.0006623121 0)
(22.94722 -0.0006705626 0)
(22.9475 -0.0006782414 0)
(22.94777 -0.0006853708 0)
(22.94805 -0.0006919728 0)
(22.94833 -0.0006980688 0)
(22.94861 -0.0007036798 0)
(22.9489 -0.0007088255 0)
(22.94918 -0.0007135248 0)
(22.94947 -0.0007177954 0)
(22.94976 -0.0007216538 0)
(22.95006 -0.000725115 0)
(22.95035 -0.0007281929 0)
(22.95064 -0.0007308997 0)
(22.95094 -0.0007332464 0)
(22.95124 -0.0007352422 0)
(22.95153 -0.0007368951 0)
(22.95183 -0.0007382114 0)
(22.95213 -0.000739196 0)
(22.95243 -0.0007398521 0)
(22.95273 -0.0007401814 0)
(22.95303 -0.000740184 0)
(22.95333 -0.0007398586 0)
(22.95362 -0.000739202 0)
(22.95392 -0.0007382098 0)
(22.95422 -0.0007368756 0)
(22.95452 -0.0007351919 0)
(22.95482 -0.000733149 0)
(22.95511 -0.0007307361 0)
(22.95541 -0.0007279403 0)
(22.9557 -0.0007247478 0)
(22.95599 -0.0007211423 0)
(22.95628 -0.0007171069 0)
(22.95657 -0.0007126221 0)
(22.95686 -0.0007076678 0)
(22.95714 -0.0007022217 0)
(22.95743 -0.0006962607 0)
(22.95771 -0.0006897597 0)
(22.95799 -0.0006826929 0)
(22.95826 -0.0006750329 0)
(22.95853 -0.0006667517 0)
(22.9588 -0.00065782 0)
(22.95906 -0.0006482083 0)
(22.95932 -0.0006378864 0)
(22.95958 -0.0006268241 0)
(22.95983 -0.0006149912 0)
(22.96008 -0.0006023581 0)
(22.96032 -0.000588896 0)
(22.96055 -0.0005745775 0)
(22.96078 -0.0005593768 0)
(22.96101 -0.0005432707 0)
(22.96122 -0.0005262382 0)
(22.96143 -0.0005082624 0)
(22.96163 -0.0004893296 0)
(22.96183 -0.0004694314 0)
(22.96201 -0.0004485637 0)
(22.96219 -0.0004267291 0)
(22.96236 -0.0004039355 0)
(22.96252 -0.0003801985 0)
(22.96267 -0.0003555404 0)
(22.9628 -0.0003299916 0)
(22.96293 -0.0003035903 0)
(22.96305 -0.0002763832 0)
(22.96316 -0.0002484254 0)
(22.96325 -0.0002197807 0)
(22.96333 -0.0001905215 0)
(22.9634 -0.0001607286 0)
(22.96346 -0.0001304899 0)
(22.96351 -9.989726e-05 0)
(22.96354 -6.90328e-05 0)
(22.96357 -3.792479e-05 0)
(33.21302 -0.00100046 0)
(25.12657 -0.0008505031 0)
(21.8591 -0.00064725 0)
(22.72552 -0.000585838 0)
(23.05672 -0.0005418239 0)
(22.96409 -0.0005007681 0)
(22.93067 -0.0004805658 0)
(22.94069 -0.0004778657 0)
(22.9442 -0.0004855247 0)
(22.94327 -0.0005001922 0)
(22.94307 -0.0005197801 0)
(22.94334 -0.0005425006 0)
(22.94353 -0.0005670487 0)
(22.94369 -0.0005925354 0)
(22.94387 -0.0006183361 0)
(22.94405 -0.0006440063 0)
(22.94425 -0.0006692335 0)
(22.94445 -0.0006937999 0)
(22.94465 -0.0007175552 0)
(22.94487 -0.0007403982 0)
(22.94509 -0.0007622637 0)
(22.94532 -0.0007831136 0)
(22.94555 -0.0008029294 0)
(22.94579 -0.0008217076 0)
(22.94603 -0.0008394561 0)
(22.94628 -0.0008561911 0)
(22.94654 -0.0008719347 0)
(22.94679 -0.0008867138 0)
(22.94706 -0.0009005583 0)
(22.94732 -0.0009135 0)
(22.94759 -0.000925572 0)
(22.94786 -0.0009368079 0)
(22.94814 -0.000947241 0)
(22.94842 -0.0009569043 0)
(22.9487 -0.0009658298 0)
(22.94898 -0.0009740482 0)
(22.94927 -0.0009815889 0)
(22.94955 -0.0009884795 0)
(22.94984 -0.0009947461 0)
(22.95013 -0.001000413 0)
(22.95043 -0.001005501 0)
(22.95072 -0.001010031 0)
(22.95101 -0.001014022 0)
(22.95131 -0.001017488 0)
(22.95161 -0.001020443 0)
(22.9519 -0.001022899 0)
(22.9522 -0.001024865 0)
(22.9525 -0.001026348 0)
(22.9528 -0.001027353 0)
(22.9531 -0.001027882 0)
(22.9534 -0.001027935 0)
(22.9537 -0.001027512 0)
(22.954 -0.001026607 0)
(22.9543 -0.001025214 0)
(22.95459 -0.001023326 0)
(22.95489 -0.00102093 0)
(22.95519 -0.001018014 0)
(22.95549 -0.001014562 0)
(22.95578 -0.001010557 0)
(22.95607 -0.001005979 0)
(22.95637 -0.001000805 0)
(22.95666 -0.0009950117 0)
(22.95695 -0.000988572 0)
(22.95724 -0.0009814572 0)
(22.95752 -0.0009736366 0)
(22.9578 -0.0009650771 0)
(22.95808 -0.0009557442 0)
(22.95836 -0.0009456011 0)
(22.95864 -0.0009346097 0)
(22.95891 -0.0009227304 0)
(22.95918 -0.0009099222 0)
(22.95944 -0.0008961435 0)
(22.9597 -0.0008813517 0)
(22.95996 -0.0008655042 0)
(22.96021 -0.0008485584 0)
(22.96046 -0.0008304726 0)
(22.9607 -0.0008112059 0)
(22.96094 -0.0007907195 0)
(22.96117 -0.0007689768 0)
(22.96139 -0.0007459445 0)
(22.96161 -0.0007215931 0)
(22.96182 -0.0006958978 0)
(22.96202 -0.0006688392 0)
(22.96222 -0.0006404046 0)
(22.9624 -0.0006105882 0)
(22.96258 -0.0005793923 0)
(22.96275 -0.0005468282 0)
(22.96291 -0.0005129169 0)
(22.96306 -0.0004776895 0)
(22.9632 -0.0004411881 0)
(22.96333 -0.0004034663 0)
(22.96345 -0.0003645891 0)
(22.96355 -0.0003246335 0)
(22.96365 -0.0002836883 0)
(22.96373 -0.0002418542 0)
(22.9638 -0.0001992432 0)
(22.96386 -0.0001559778 0)
(22.96391 -0.000112192 0)
(22.96394 -6.801674e-05 0)
(22.96397 -2.362682e-05 0)
(33.21289 -0.0005602778 0)
(25.12692 -0.000533737 0)
(21.85944 -0.0004597731 0)
(22.72576 -0.0004621574 0)
(23.05693 -0.0004790274 0)
(22.96429 -0.0004949858 0)
(22.93086 -0.0005180514 0)
(22.94087 -0.0005481942 0)
(22.94437 -0.0005821557 0)
(22.94345 -0.000618234 0)
(22.94324 -0.0006555323 0)
(22.94351 -0.0006932795 0)
(22.94371 -0.0007308728 0)
(22.94386 -0.0007678942 0)
(22.94404 -0.0008040484 0)
(22.94423 -0.000839124 0)
(22.94442 -0.0008729727 0)
(22.94463 -0.000905494 0)
(22.94484 -0.0009366238 0)
(22.94505 -0.000966325 0)
(22.94528 -0.000994582 0)
(22.94551 -0.001021395 0)
(22.94574 -0.001046779 0)
(22.94598 -0.001070755 0)
(22.94623 -0.001093356 0)
(22.94648 -0.001114618 0)
(22.94673 -0.001134582 0)
(22.94699 -0.001153291 0)
(22.94725 -0.001170792 0)
(22.94752 -0.00118713 0)
(22.94779 -0.001202353 0)
(22.94806 -0.001216508 0)
(22.94834 -0.001229639 0)
(22.94862 -0.001241792 0)
(22.9489 -0.00125301 0)
(22.94919 -0.001263333 0)
(22.94947 -0.001272801 0)
(22.94976 -0.001281449 0)
(22.95005 -0.001289312 0)
(22.95034 -0.001296422 0)
(22.95063 -0.001302807 0)
(22.95093 -0.001308494 0)
(22.95122 -0.001313505 0)
(22.95152 -0.001317862 0)
(22.95182 -0.001321582 0)
(22.95212 -0.001324681 0)
(22.95242 -0.00132717 0)
(22.95271 -0.001329059 0)
(22.95301 -0.001330353 0)
(22.95331 -0.001331058 0)
(22.95361 -0.001331172 0)
(22.95391 -0.001330695 0)
(22.95421 -0.00132962 0)
(22.95451 -0.00132794 0)
(22.95481 -0.001325645 0)
(22.95511 -0.001322719 0)
(22.95541 -0.001319146 0)
(22.9557 -0.001314907 0)
(22.956 -0.001309979 0)
(22.95629 -0.001304337 0)
(22.95659 -0.001297951 0)
(22.95688 -0.001290791 0)
(22.95717 -0.001282822 0)
(22.95746 -0.001274007 0)
(22.95774 -0.001264306 0)
(22.95803 -0.001253678 0)
(22.95831 -0.001242076 0)
(22.95859 -0.001229454 0)
(22.95887 -0.001215762 0)
(22.95914 -0.001200948 0)
(22.95941 -0.00118496 0)
(22.95967 -0.001167743 0)
(22.95994 -0.001149241 0)
(22.96019 -0.0011294 0)
(22.96045 -0.001108163 0)
(22.9607 -0.001085475 0)
(22.96094 -0.001061283 0)
(22.96118 -0.001035535 0)
(22.96141 -0.001008184 0)
(22.96163 -0.0009791839 0)
(22.96185 -0.0009484965 0)
(22.96207 -0.0009160879 0)
(22.96227 -0.0008819315 0)
(22.96247 -0.0008460091 0)
(22.96265 -0.0008083117 0)
(22.96283 -0.0007688408 0)
(22.96301 -0.0007276092 0)
(22.96317 -0.0006846426 0)
(22.96332 -0.0006399798 0)
(22.96346 -0.0005936738 0)
(22.96359 -0.0005457924 0)
(22.96371 -0.0004964187 0)
(22.96382 -0.0004456507 0)
(22.96391 -0.0003936016 0)
(22.964 -0.0003403992 0)
(22.96407 -0.0002861847 0)
(22.96413 -0.0002311102 0)
(22.96417 -0.0001753398 0)
(22.96421 -0.0001190304 0)
(22.96423 -6.240537e-05 0)
(33.21271 -0.0004139748 0)
(25.12698 -0.0005061364 0)
(21.85953 -0.0005303921 0)
(22.72584 -0.000570768 0)
(23.05702 -0.0006077972 0)
(22.96439 -0.0006385907 0)
(22.93096 -0.0006699872 0)
(22.94096 -0.0007045592 0)
(22.94447 -0.0007418748 0)
(22.94354 -0.0007812818 0)
(22.94334 -0.0008222335 0)
(22.94361 -0.0008641257 0)
(22.9438 -0.0009063711 0)
(22.94396 -0.0009484725 0)
(22.94414 -0.0009900273 0)
(22.94432 -0.001030715 0)
(22.94452 -0.001070289 0)
(22.94472 -0.001108562 0)
(22.94494 -0.0011454 0)
(22.94515 -0.00118071 0)
(22.94538 -0.001214432 0)
(22.94561 -0.001246535 0)
(22.94584 -0.001277008 0)
(22.94609 -0.001305858 0)
(22.94633 -0.001333105 0)
(22.94658 -0.001358778 0)
(22.94684 -0.001382917 0)
(22.9471 -0.001405565 0)
(22.94736 -0.001426769 0)
(22.94763 -0.001446582 0)
(22.9479 -0.001465054 0)
(22.94818 -0.001482238 0)
(22.94845 -0.001498186 0)
(22.94873 -0.00151295 0)
(22.94902 -0.001526578 0)
(22.9493 -0.001539119 0)
(22.94959 -0.001550619 0)
(22.94988 -0.001561119 0)
(22.95017 -0.00157066 0)
(22.95046 -0.00157928 0)
(22.95075 -0.001587011 0)
(22.95105 -0.001593886 0)
(22.95135 -0.001599931 0)
(22.95164 -0.001605171 0)
(22.95194 -0.001609627 0)
(22.95224 -0.001613316 0)
(22.95254 -0.001616252 0)
(22.95284 -0.001618447 0)
(22.95314 -0.001619906 0)
(22.95344 -0.001620635 0)
(22.95374 -0.001620633 0)
(22.95404 -0.001619898 0)
(22.95434 -0.001618422 0)
(22.95464 -0.001616196 0)
(22.95494 -0.001613206 0)
(22.95524 -0.001609435 0)
(22.95554 -0.001604861 0)
(22.95583 -0.001599462 0)
(22.95613 -0.001593209 0)
(22.95643 -0.001586071 0)
(22.95672 -0.001578012 0)
(22.95701 -0.001568994 0)
(22.9573 -0.001558976 0)
(22.95759 -0.001547912 0)
(22.95788 -0.001535753 0)
(22.95817 -0.001522446 0)
(22.95845 -0.001507937 0)
(22.95873 -0.001492168 0)
(22.95901 -0.001475077 0)
(22.95928 -0.001456602 0)
(22.95955 -0.001436676 0)
(22.95982 -0.001415232 0)
(22.96008 -0.001392203 0)
(22.96034 -0.001367519 0)
(22.96059 -0.001341111 0)
(22.96084 -0.00131291 0)
(22.96109 -0.001282851 0)
(22.96133 -0.001250868 0)
(22.96156 -0.001216901 0)
(22.96179 -0.001180894 0)
(22.96201 -0.001142797 0)
(22.96222 -0.001102568 0)
(22.96243 -0.001060171 0)
(22.96263 -0.001015582 0)
(22.96282 -0.0009687896 0)
(22.963 -0.0009197923 0)
(22.96317 -0.0008686047 0)
(22.96334 -0.0008152564 0)
(22.96349 -0.0007597938 0)
(22.96363 -0.0007022808 0)
(22.96376 -0.0006427998 0)
(22.96389 -0.0005814519 0)
(22.96399 -0.0005183574 0)
(22.96409 -0.0004536554 0)
(22.96418 -0.0003875029 0)
(22.96425 -0.0003200744 0)
(22.96431 -0.0002515584 0)
(22.96436 -0.0001821604 0)
(22.96439 -0.0001120797 0)
(22.96442 -4.160772e-05 0)
(33.2126 -0.0003043538 0)
(25.12703 -0.0004201995 0)
(21.85962 -0.0004751214 0)
(22.72592 -0.0005341278 0)
(23.0571 -0.0005923816 0)
(22.96446 -0.0006476954 0)
(22.93103 -0.0007029196 0)
(22.94103 -0.0007595398 0)
(22.94453 -0.0008172873 0)
(22.9436 -0.0008755207 0)
(22.94339 -0.0009337006 0)
(22.94366 -0.0009913382 0)
(22.94385 -0.001047991 0)
(22.94401 -0.001103298 0)
(22.94419 -0.001156977 0)
(22.94438 -0.00120882 0)
(22.94458 -0.001258676 0)
(22.94478 -0.001306442 0)
(22.945 -0.001352057 0)
(22.94522 -0.00139549 0)
(22.94544 -0.001436737 0)
(22.94568 -0.001475814 0)
(22.94591 -0.001512754 0)
(22.94616 -0.0015476 0)
(22.94641 -0.001580407 0)
(22.94666 -0.001611238 0)
(22.94692 -0.001640157 0)
(22.94718 -0.001667236 0)
(22.94744 -0.001692545 0)
(22.94771 -0.001716157 0)
(22.94799 -0.001738145 0)
(22.94826 -0.001758579 0)
(22.94854 -0.001777529 0)
(22.94882 -0.001795062 0)
(22.94911 -0.001811242 0)
(22.94939 -0.001826132 0)
(22.94968 -0.001839787 0)
(22.94997 -0.001852264 0)
(22.95026 -0.001863612 0)
(22.95056 -0.001873879 0)
(22.95085 -0.001883106 0)
(22.95115 -0.001891332 0)
(22.95144 -0.001898592 0)
(22.95174 -0.001904916 0)
(22.95204 -0.00191033 0)
(22.95234 -0.001914857 0)
(22.95264 -0.001918513 0)
(22.95294 -0.001921313 0)
(22.95324 -0.001923266 0)
(22.95354 -0.001924377 0)
(22.95384 -0.001924648 0)
(22.95415 -0.001924075 0)
(22.95445 -0.001922651 0)
(22.95475 -0.001920364 0)
(22.95505 -0.0019172 0)
(22.95535 -0.001913137 0)
(22.95565 -0.001908152 0)
(22.95595 -0.001902217 0)
(22.95624 -0.001895298 0)
(22.95654 -0.001887358 0)
(22.95683 -0.001878357 0)
(22.95713 -0.001868249 0)
(22.95742 -0.001856983 0)
(22.95771 -0.001844507 0)
(22.958 -0.001830762 0)
(22.95829 -0.001815685 0)
(22.95857 -0.001799212 0)
(22.95885 -0.001781272 0)
(22.95913 -0.001761793 0)
(22.95941 -0.001740698 0)
(22.95968 -0.00171791 0)
(22.95995 -0.001693348 0)
(22.96021 -0.001666928 0)
(22.96047 -0.001638568 0)
(22.96073 -0.001608184 0)
(22.96098 -0.001575693 0)
(22.96123 -0.001541013 0)
(22.96147 -0.001504066 0)
(22.96171 -0.001464778 0)
(22.96194 -0.001423079 0)
(22.96216 -0.001378906 0)
(22.96238 -0.001332206 0)
(22.96258 -0.001282934 0)
(22.96279 -0.001231058 0)
(22.96298 -0.001176559 0)
(22.96316 -0.001119434 0)
(22.96334 -0.001059696 0)
(22.9635 -0.0009973779 0)
(22.96366 -0.0009325313 0)
(22.9638 -0.00086523 0)
(22.96394 -0.0007955699 0)
(22.96406 -0.0007236696 0)
(22.96417 -0.0006496711 0)
(22.96427 -0.0005737391 0)
(22.96436 -0.0004960605 0)
(22.96443 -0.0004168429 0)
(22.96449 -0.0003363114 0)
(22.96454 -0.0002547115 0)
(22.96458 -0.0001722819 0)
(22.9646 -8.937402e-05 0)
(33.21248 -0.000265071 0)
(25.127 -0.0004131669 0)
(21.85961 -0.0005044602 0)
(22.72591 -0.0005924871 0)
(23.0571 -0.0006766986 0)
(22.96447 -0.0007548139 0)
(22.93104 -0.0008287139 0)
(22.94104 -0.0009003344 0)
(22.94454 -0.0009703804 0)
(22.94361 -0.00103897 0)
(22.94341 -0.001106106 0)
(22.94368 -0.001171713 0)
(22.94388 -0.001235645 0)
(22.94404 -0.001297734 0)
(22.94422 -0.001357821 0)
(22.94441 -0.001415773 0)
(22.94461 -0.00147148 0)
(22.94482 -0.001524863 0)
(22.94503 -0.001575868 0)
(22.94526 -0.001624469 0)
(22.94548 -0.00167066 0)
(22.94572 -0.001714456 0)
(22.94596 -0.001755887 0)
(22.9462 -0.001794998 0)
(22.94645 -0.001831842 0)
(22.94671 -0.001866484 0)
(22.94697 -0.001898991 0)
(22.94723 -0.001929438 0)
(22.9475 -0.001957901 0)
(22.94777 -0.001984457 0)
(22.94805 -0.002009183 0)
(22.94832 -0.002032158 0)
(22.9486 -0.002053456 0)
(22.94889 -0.00207315 0)
(22.94917 -0.002091311 0)
(22.94946 -0.002108007 0)
(22.94975 -0.0021233 0)
(22.95004 -0.002137251 0)
(22.95033 -0.002149914 0)
(22.95063 -0.002161342 0)
(22.95092 -0.002171581 0)
(22.95122 -0.002180674 0)
(22.95152 -0.002188658 0)
(22.95182 -0.002195567 0)
(22.95212 -0.002201429 0)
(22.95242 -0.002206268 0)
(22.95272 -0.002210104 0)
(22.95302 -0.002212951 0)
(22.95332 -0.00221482 0)
(22.95362 -0.002215714 0)
(22.95392 -0.002215635 0)
(22.95423 -0.002214579 0)
(22.95453 -0.002212537 0)
(22.95483 -0.002209495 0)
(22.95513 -0.002205435 0)
(22.95543 -0.002200333 0)
(22.95573 -0.002194161 0)
(22.95603 -0.002186887 0)
(22.95633 -0.002178472 0)
(22.95663 -0.002168873 0)
(22.95692 -0.002158044 0)
(22.95722 -0.00214593 0)
(22.95751 -0.002132476 0)
(22.9578 -0.002117617 0)
(22.95809 -0.002101288 0)
(22.95838 -0.002083416 0)
(22.95867 -0.002063925 0)
(22.95895 -0.002042734 0)
(22.95923 -0.002019759 0)
(22.95951 -0.00199491 0)
(22.95978 -0.001968098 0)
(22.96005 -0.001939226 0)
(22.96032 -0.001908198 0)
(22.96058 -0.001874917 0)
(22.96084 -0.001839283 0)
(22.9611 -0.001801199 0)
(22.96134 -0.001760569 0)
(22.96159 -0.001717298 0)
(22.96183 -0.001671297 0)
(22.96206 -0.001622483 0)
(22.96228 -0.00157078 0)
(22.9625 -0.001516122 0)
(22.96271 -0.001458453 0)
(22.96292 -0.001397733 0)
(22.96311 -0.001333935 0)
(22.9633 -0.001267051 0)
(22.96348 -0.001197094 0)
(22.96365 -0.001124098 0)
(22.9638 -0.00104812 0)
(22.96395 -0.0009692418 0)
(22.96409 -0.0008875744 0)
(22.96421 -0.0008032538 0)
(22.96433 -0.0007164449 0)
(22.96443 -0.0006273395 0)
(22.96452 -0.0005361565 0)
(22.96459 -0.0004431399 0)
(22.96465 -0.0003485553 0)
(22.9647 -0.0002526942 0)
(22.96474 -0.0001558408 0)
(22.96476 -5.841583e-05 0)
(33.21238 -0.0002407505 0)
(25.12696 -0.0004022624 0)
(21.8596 -0.0005087102 0)
(22.72591 -0.0006096423 0)
(23.0571 -0.0007079959 0)
(22.96447 -0.0008011659 0)
(22.93104 -0.0008901298 0)
(22.94104 -0.0009765293 0)
(22.94455 -0.001061004 0)
(22.94362 -0.001143592 0)
(22.94342 -0.001224211 0)
(22.94369 -0.00130273 0)
(22.94389 -0.001378968 0)
(22.94405 -0.001452739 0)
(22.94423 -0.001523876 0)
(22.94443 -0.001592248 0)
(22.94463 -0.001657758 0)
(22.94484 -0.001720342 0)
(22.94506 -0.001779967 0)
(22.94528 -0.001836632 0)
(22.94551 -0.001890356 0)
(22.94575 -0.001941181 0)
(22.94599 -0.001989166 0)
(22.94624 -0.00203438 0)
(22.94649 -0.002076905 0)
(22.94675 -0.002116831 0)
(22.94701 -0.002154251 0)
(22.94728 -0.002189262 0)
(22.94755 -0.002221964 0)
(22.94782 -0.002252455 0)
(22.9481 -0.002280834 0)
(22.94838 -0.002307197 0)
(22.94866 -0.002331637 0)
(22.94894 -0.002354245 0)
(22.94923 -0.002375105 0)
(22.94952 -0.002394301 0)
(22.94981 -0.002411907 0)
(22.9501 -0.002427997 0)
(22.9504 -0.002442638 0)
(22.95069 -0.002455889 0)
(22.95099 -0.002467808 0)
(22.95129 -0.002478446 0)
(22.95159 -0.002487846 0)
(22.95189 -0.002496049 0)
(22.95219 -0.002503089 0)
(22.95249 -0.002508995 0)
(22.95279 -0.00251379 0)
(22.95309 -0.002517491 0)
(22.9534 -0.00252011 0)
(22.9537 -0.002521656 0)
(22.954 -0.002522128 0)
(22.95431 -0.002521523 0)
(22.95461 -0.002519831 0)
(22.95491 -0.002517038 0)
(22.95521 -0.002513122 0)
(22.95552 -0.002508057 0)
(22.95582 -0.002501813 0)
(22.95612 -0.002494351 0)
(22.95642 -0.002485628 0)
(22.95672 -0.002475597 0)
(22.95701 -0.002464203 0)
(22.95731 -0.002451386 0)
(22.95761 -0.00243708 0)
(22.9579 -0.002421214 0)
(22.95819 -0.002403711 0)
(22.95848 -0.002384489 0)
(22.95877 -0.002363461 0)
(22.95905 -0.002340533 0)
(22.95933 -0.002315609 0)
(22.95961 -0.002288586 0)
(22.95989 -0.002259358 0)
(22.96016 -0.002227815 0)
(22.96043 -0.002193847 0)
(22.9607 -0.002157338 0)
(22.96096 -0.002118173 0)
(22.96122 -0.002076238 0)
(22.96147 -0.002031418 0)
(22.96172 -0.001983604 0)
(22.96196 -0.001932687 0)
(22.96219 -0.001878569 0)
(22.96242 -0.001821157 0)
(22.96264 -0.001760371 0)
(22.96286 -0.001696141 0)
(22.96307 -0.001628415 0)
(22.96326 -0.001557156 0)
(22.96345 -0.001482351 0)
(22.96364 -0.001404005 0)
(22.96381 -0.001322153 0)
(22.96397 -0.001236855 0)
(22.96412 -0.001148201 0)
(22.96426 -0.001056313 0)
(22.96439 -0.0009613447 0)
(22.9645 -0.0008634827 0)
(22.96461 -0.0007629467 0)
(22.9647 -0.0006599881 0)
(22.96477 -0.0005548889 0)
(22.96484 -0.000447957 0)
(22.96489 -0.0003395315 0)
(22.96492 -0.000229944 0)
(22.96495 -0.0001196861 0)
(33.21228 -0.0002376142 0)
(25.12689 -0.0004170026 0)
(21.85955 -0.0005417428 0)
(22.72587 -0.000661024 0)
(23.05706 -0.0007789994 0)
(22.96444 -0.0008916229 0)
(22.93101 -0.0009988202 0)
(22.94102 -0.001101915 0)
(22.94453 -0.001201513 0)
(22.9436 -0.001297727 0)
(22.94341 -0.001390608 0)
(22.94368 -0.001480184 0)
(22.94388 -0.001566435 0)
(22.94405 -0.001649314 0)
(22.94423 -0.00172878 0)
(22.94443 -0.001804801 0)
(22.94464 -0.00187736 0)
(22.94485 -0.001946463 0)
(22.94507 -0.00201213 0)
(22.9453 -0.002074403 0)
(22.94553 -0.002133338 0)
(22.94577 -0.002189007 0)
(22.94602 -0.002241492 0)
(22.94627 -0.002290887 0)
(22.94653 -0.002337292 0)
(22.94679 -0.002380813 0)
(22.94705 -0.00242156 0)
(22.94732 -0.002459644 0)
(22.94759 -0.002495177 0)
(22.94787 -0.002528269 0)
(22.94814 -0.002559031 0)
(22.94843 -0.002587569 0)
(22.94871 -0.002613985 0)
(22.949 -0.002638378 0)
(22.94928 -0.002660843 0)
(22.94957 -0.002681468 0)
(22.94987 -0.002700337 0)
(22.95016 -0.00271753 0)
(22.95046 -0.002733117 0)
(22.95075 -0.002747167 0)
(22.95105 -0.002759739 0)
(22.95135 -0.002770888 0)
(22.95165 -0.002780664 0)
(22.95195 -0.002789109 0)
(22.95225 -0.002796259 0)
(22.95256 -0.002802147 0)
(22.95286 -0.002806796 0)
(22.95316 -0.002810226 0)
(22.95347 -0.00281245 0)
(22.95377 -0.002813474 0)
(22.95408 -0.002813299 0)
(22.95438 -0.002811921 0)
(22.95468 -0.002809329 0)
(22.95499 -0.002805506 0)
(22.95529 -0.002800429 0)
(22.95559 -0.002794068 0)
(22.9559 -0.002786389 0)
(22.9562 -0.00277735 0)
(22.9565 -0.002766903 0)
(22.9568 -0.002754994 0)
(22.9571 -0.002741563 0)
(22.9574 -0.002726543 0)
(22.95769 -0.002709861 0)
(22.95799 -0.002691437 0)
(22.95828 -0.002671186 0)
(22.95857 -0.002649014 0)
(22.95886 -0.002624825 0)
(22.95915 -0.002598513 0)
(22.95943 -0.002569969 0)
(22.95971 -0.002539078 0)
(22.95999 -0.00250572 0)
(22.96027 -0.00246977 0)
(22.96054 -0.002431102 0)
(22.96081 -0.002389584 0)
(22.96107 -0.002345084 0)
(22.96133 -0.002297471 0)
(22.96159 -0.002246613 0)
(22.96184 -0.002192381 0)
(22.96208 -0.002134651 0)
(22.96232 -0.002073304 0)
(22.96255 -0.002008233 0)
(22.96278 -0.001939339 0)
(22.963 -0.001866538 0)
(22.96321 -0.001789764 0)
(22.96341 -0.001708969 0)
(22.9636 -0.00162413 0)
(22.96379 -0.001535247 0)
(22.96396 -0.001442353 0)
(22.96413 -0.001345509 0)
(22.96428 -0.001244813 0)
(22.96442 -0.001140397 0)
(22.96455 -0.001032432 0)
(22.96467 -0.0009211291 0)
(22.96478 -0.000806736 0)
(22.96487 -0.0006895392 0)
(22.96495 -0.0005698621 0)
(22.96502 -0.000448059 0)
(22.96507 -0.0003245218 0)
(22.96511 -0.0001996346 0)
(22.96513 -7.396819e-05 0)
(33.21218 -0.000241095 0)
(25.12682 -0.0004349807 0)
(21.8595 -0.0005725432 0)
(22.72582 -0.0007044511 0)
(23.05702 -0.0008361263 0)
(22.9644 -0.0009626376 0)
(22.93098 -0.001083393 0)
(22.94099 -0.001199628 0)
(22.9445 -0.001311918 0)
(22.94358 -0.001420347 0)
(22.94339 -0.001524953 0)
(22.94366 -0.001625763 0)
(22.94387 -0.001722754 0)
(22.94404 -0.001815879 0)
(22.94423 -0.001905097 0)
(22.94443 -0.001990377 0)
(22.94464 -0.002071708 0)
(22.94486 -0.002149101 0)
(22.94508 -0.002222589 0)
(22.94531 -0.002292225 0)
(22.94555 -0.00235808 0)
(22.94579 -0.002420244 0)
(22.94604 -0.002478818 0)
(22.9463 -0.002533914 0)
(22.94656 -0.002585654 0)
(22.94682 -0.002634164 0)
(22.94709 -0.002679573 0)
(22.94736 -0.002722014 0)
(22.94763 -0.002761617 0)
(22.94791 -0.002798513 0)
(22.94819 -0.002832829 0)
(22.94847 -0.002864689 0)
(22.94876 -0.002894212 0)
(22.94905 -0.002921512 0)
(22.94934 -0.002946697 0)
(22.94963 -0.00296987 0)
(22.94993 -0.002991127 0)
(22.95022 -0.003010557 0)
(22.95052 -0.003028243 0)
(22.95082 -0.003044261 0)
(22.95112 -0.003058681 0)
(22.95142 -0.003071564 0)
(22.95172 -0.003082965 0)
(22.95202 -0.003092934 0)
(22.95233 -0.003101512 0)
(22.95263 -0.003108734 0)
(22.95293 -0.003114628 0)
(22.95324 -0.003119215 0)
(22.95354 -0.00312251 0)
(22.95385 -0.003124522 0)
(22.95415 -0.003125251 0)
(22.95446 -0.003124692 0)
(22.95477 -0.003122834 0)
(22.95507 -0.003119657 0)
(22.95538 -0.003115136 0)
(22.95568 -0.003109238 0)
(22.95598 -0.003101925 0)
(22.95629 -0.003093151 0)
(22.95659 -0.003082861 0)
(22.95689 -0.003070997 0)
(22.95719 -0.003057491 0)
(22.95749 -0.003042268 0)
(22.95779 -0.003025246 0)
(22.95809 -0.003006337 0)
(22.95838 -0.002985445 0)
(22.95868 -0.002962466 0)
(22.95897 -0.00293729 0)
(22.95926 -0.002909801 0)
(22.95954 -0.002879873 0)
(22.95983 -0.002847379 0)
(22.96011 -0.002812181 0)
(22.96039 -0.002774139 0)
(22.96066 -0.002733109 0)
(22.96093 -0.002688941 0)
(22.9612 -0.002641484 0)
(22.96146 -0.002590586 0)
(22.96172 -0.002536095 0)
(22.96198 -0.002477862 0)
(22.96222 -0.002415741 0)
(22.96247 -0.002349593 0)
(22.9627 -0.002279289 0)
(22.96293 -0.002204711 0)
(22.96316 -0.002125756 0)
(22.96337 -0.002042339 0)
(22.96358 -0.001954399 0)
(22.96378 -0.001861899 0)
(22.96396 -0.00176483 0)
(22.96414 -0.001663217 0)
(22.96431 -0.001557122 0)
(22.96447 -0.001446645 0)
(22.96462 -0.001331929 0)
(22.96475 -0.001213161 0)
(22.96487 -0.001090574 0)
(22.96498 -0.0009644439 0)
(22.96508 -0.0008350951 0)
(22.96516 -0.0007028936 0)
(22.96523 -0.0005682436 0)
(22.96528 -0.0004315938 0)
(22.96532 -0.0002933855 0)
(22.96535 -0.0001542754 0)
(33.21207 -0.0002523962 0)
(25.12673 -0.0004631718 0)
(21.85943 -0.0006151119 0)
(22.72576 -0.0007618787 0)
(23.05696 -0.0009097694 0)
(22.96435 -0.001052796 0)
(22.93094 -0.001189733 0)
(22.94095 -0.001321566 0)