/*--------------------------------*- C++ -*----------------------------------*\
| =========                 |                                                 |
| \\      /  F ield         | OpenFOAM: The Open Source CFD Toolbox           |
|  \\    /   O peration     | Version:  2.3.0                                 |
|   \\  /    A nd           | Web:      www.OpenFOAM.org                      |
|    \\/     M anipulation  |                                                 |
\*---------------------------------------------------------------------------*/
FoamFile
{
    version     2.0;
    format      ascii;
    class       volScalarField;
    location    "9700/wall";
    object      T;
}
// * * * * * * * * * * * * * * * * * * * * * * * * * * * * * * * * * * * * * //

dimensions      [0 0 0 1 0 0 0];

internalField   nonuniform List<scalar> 
2000
(
809.5753
809.5641
809.5429
809.5131
809.4762
809.4333
809.385
809.3319
809.2744
809.213
809.148
809.0796
809.0081
808.9338
808.8569
808.7775
808.6957
808.6118
808.5259
808.4381
808.3485
808.2573
808.1644
808.0702
807.9745
807.8775
807.7793
807.68
807.5795
807.4781
807.3758
807.2726
807.1685
807.0637
806.9583
806.8521
806.7454
806.6382
806.5305
806.4223
806.3138
806.2049
806.0957
805.9863
805.8767
805.7669
805.657
805.547
805.437
805.3271
805.2171
805.1073
804.9976
804.8882
804.7789
804.6699
804.5612
804.4529
804.345
804.2375
804.1305
804.024
803.9182
803.8129
803.7083
803.6044
803.5013
803.3991
803.2977
803.1972
803.0977
802.9993
802.902
802.8058
802.7109
802.6173
802.525
802.4342
802.345
802.2574
802.1715
802.0874
802.0052
801.925
801.847
801.7713
801.6981
801.6274
801.5596
801.4947
801.433
801.3749
801.3205
801.2703
801.2246
801.184
801.149
801.1206
801.0997
801.0879
802.9631
802.9538
802.936
802.9103
802.8779
802.8395
802.7958
802.7473
802.6944
802.6376
802.5771
802.5133
802.4463
802.3765
802.304
802.229
802.1516
802.0721
801.9905
801.907
801.8217
801.7347
801.6461
801.556
801.4645
801.3717
801.2776
801.1824
801.0861
800.9887
800.8905
800.7913
800.6913
800.5905
800.489
800.3869
800.2841
800.1809
800.0771
799.9729
799.8682
799.7633
799.658
799.5525
799.4468
799.3409
799.2349
799.1288
799.0227
798.9166
798.8105
798.7046
798.5988
798.4932
798.3878
798.2826
798.1778
798.0734
797.9693
797.8657
797.7626
797.66
797.558
797.4566
797.3559
797.256
797.1568
797.0584
796.9609
796.8644
796.7689
796.6744
796.5811
796.4889
796.398
796.3083
796.2201
796.1334
796.0482
795.9647
795.8828
795.8028
795.7248
795.6488
795.575
795.5035
795.4344
795.368
795.3044
795.2438
795.1865
795.1326
795.0826
795.0366
794.9953
794.9589
794.9282
794.9037
794.8864
794.8773
796.3605
796.3525
796.3371
796.3146
796.2858
796.2514
796.2117
796.1674
796.1187
796.0661
796.0099
795.9504
795.8877
795.8222
795.7539
795.6832
795.6101
795.5347
795.4574
795.3781
795.2969
795.2141
795.1296
795.0436
794.9562
794.8675
794.7775
794.6863
794.594
794.5007
794.4064
794.3112
794.2152
794.1184
794.0209
793.9227
793.8239
793.7245
793.6246
793.5243
793.4236
793.3225
793.2211
793.1194
793.0176
792.9155
792.8134
792.7111
792.6088
792.5066
792.4044
792.3022
792.2003
792.0985
791.9969
791.8956
791.7946
791.694
791.5937
791.494
791.3947
791.2959
791.1978
791.1002
791.0034
790.9073
790.812
790.7175
790.6239
790.5313
790.4396
790.349
790.2596
790.1713
790.0844
789.9987
789.9144
789.8317
789.7504
789.6709
789.5931
789.5171
789.443
789.3711
789.3013
789.2339
789.1689
789.1065
789.047
788.9904
788.9371
788.8873
788.8412
788.7992
788.7617
788.729
788.7017
788.6804
788.6657
788.6581
789.766
789.759
789.7454
789.7255
789.6998
789.6687
789.6326
789.592
789.5472
789.4986
789.4464
789.3909
789.3323
789.2708
789.2067
789.14
789.071
788.9998
788.9265
788.8513
788.7742
788.6954
788.615
788.5331
788.4497
788.3649
788.2789
788.1917
788.1034
788.0141
787.9237
787.8324
787.7403
787.6474
787.5538
787.4595
787.3645
787.269
787.173
787.0766
786.9797
786.8824
786.7849
786.687
786.589
786.4908
786.3924
786.294
786.1955
786.097
785.9986
785.9003
785.8021
785.7041
785.6063
785.5088
785.4116
785.3147
785.2183
785.1223
785.0268
784.9319
784.8375
784.7438
784.6507
784.5584
784.4669
784.3763
784.2865
784.1977
784.1099
784.0232
783.9376
783.8532
783.77
783.6883
783.6079
783.529
783.4517
783.376
783.3021
783.23
783.1599
783.0918
783.026
782.9624
782.9013
782.8429
782.7872
782.7345
782.6849
782.6388
782.5964
782.558
782.5239
782.4944
782.4701
782.4512
782.4384
782.4319
783.1787
783.1725
783.1604
783.1426
783.1194
783.0912
783.0584
783.0212
782.9799
782.935
782.8865
782.8348
782.7801
782.7225
782.6623
782.5996
782.5345
782.4673
782.398
782.3267
782.2536
782.1787
782.1023
782.0243
781.9448
781.864
781.7819
781.6987
781.6142
781.5288
781.4423
781.3549
781.2667
781.1776
781.0878
780.9973
780.9062
780.8145
780.7223
780.6297
780.5366
780.4431
780.3494
780.2553
780.161
780.0666
779.972
779.8773
779.7826
779.6879
779.5932
779.4987
779.4042
779.31
779.2159
779.1222
779.0287
778.9356
778.8429
778.7507
778.6589
778.5677
778.4771
778.3872
778.2979
778.2094
778.1216
778.0347
777.9487
777.8637
777.7797
777.6967
777.6149
777.5343
777.455
777.377
777.3004
777.2254
777.1518
777.08
777.0099
776.9416
776.8753
776.8111
776.749
776.6892
776.6318
776.5771
776.5251
776.476
776.43
776.3874
776.3483
776.3131
776.2821
776.2554
776.2335
776.2167
776.2054
776.1997
776.5977
776.5922
776.5813
776.5653
776.5444
776.5187
776.4887
776.4546
776.4167
776.3751
776.3302
776.2821
776.231
776.1772
776.1207
776.0618
776.0006
775.9372
775.8717
775.8043
775.735
775.664
775.5914
775.5173
775.4417
775.3648
775.2865
775.2071
775.1265
775.0448
774.9622
774.8786
774.7942
774.7089
774.6229
774.5362
774.4489
774.361
774.2726
774.1837
774.0943
774.0046
773.9146
773.8243
773.7337
773.643
773.5521
773.4612
773.3702
773.2792
773.1883
773.0974
773.0067
772.9161
772.8258
772.7357
772.646
772.5566
772.4676
772.3791
772.2911
772.2036
772.1167
772.0304
771.9449
771.86
771.776
771.6928
771.6106
771.5293
771.449
771.3698
771.2917
771.2148
771.1392
771.065
770.9921
770.9208
770.851
770.7829
770.7165
770.6519
770.5893
770.5287
770.4703
770.4141
770.3604
770.3092
770.2607
770.215
770.1724
770.133
770.0971
770.0648
770.0365
770.0123
769.9925
769.9774
769.9673
769.9623
770.0225
770.0175
770.0077
769.9933
769.9743
769.9509
769.9235
769.8922
769.8573
769.8189
769.7773
769.7326
769.685
769.6348
769.5819
769.5267
769.4691
769.4094
769.3477
769.284
769.2185
769.1513
769.0825
769.0121
768.9403
768.8671
768.7927
768.717
768.6402
768.5623
768.4834
768.4036
768.3229
768.2414
768.1591
768.0762
767.9926
767.9084
767.8237
767.7385
767.6528
767.5668
767.4805
767.3939
767.3071
767.22
767.1328
767.0456
766.9583
766.8709
766.7837
766.6965
766.6094
766.5225
766.4359
766.3495
766.2634
766.1777
766.0924
766.0075
765.9232
765.8393
765.7561
765.6735
765.5916
765.5105
765.4301
765.3506
765.272
765.1944
765.1177
765.0422
764.9678
764.8946
764.8227
764.7521
764.6829
764.6152
764.5491
764.4846
764.4218
764.3609
764.3018
764.2448
764.1899
764.1373
764.087
764.0392
763.994
763.9516
763.9122
763.8758
763.8428
763.8132
763.7873
763.7653
763.7474
763.7339
763.7248
763.7203
763.4525
763.448
763.4391
763.426
763.4088
763.3875
763.3625
763.3338
763.3017
763.2663
763.2278
763.1863
763.1421
763.0952
763.0459
762.9941
762.9401
762.884
762.8259
762.7659
762.7041
762.6406
762.5754
762.5088
762.4407
762.3712
762.3004
762.2284
762.1553
762.0811
762.0059
761.9298
761.8528
761.775
761.6964
761.6171
761.5372
761.4567
761.3757
761.2941
761.2122
761.1298
761.0472
760.9642
760.881
760.7976
760.7141
760.6305
760.5468
760.4631
760.3795
760.2959
760.2125
760.1292
760.0462
759.9634
759.881
759.7989
759.7172
759.636
759.5552
759.475
759.3954
759.3164
759.2382
759.1606
759.0839
759.008
758.933
758.859
758.786
758.714
758.6432
758.5737
758.5053
758.4383
758.3727
758.3086
758.2461
758.1851
758.1259
758.0685
758.0129
757.9594
757.9079
757.8587
757.8117
757.7672
757.7252
757.6859
757.6494
757.6159
757.5856
757.5585
757.5349
757.5149
757.4987
757.4864
757.4782
757.4742
756.8872
756.8831
756.8751
756.8632
756.8476
756.8283
756.8054
756.7792
756.7497
756.7171
756.6815
756.6432
756.6021
756.5585
756.5125
756.4642
756.4136
756.361
756.3064
756.25
756.1917
756.1318
756.0702
756.0072
755.9427
755.8768
755.8097
755.7414
755.6719
755.6013
755.5298
755.4573
755.3839
755.3097
755.2348
755.1591
755.0829
755.006
754.9285
754.8506
754.7723
754.6936
754.6145
754.5351
754.4556
754.3758
754.2959
754.2158
754.1357
754.0557
753.9756
753.8957
753.8158
753.7362
753.6567
753.5775
753.4987
753.4202
753.342
753.2644
753.1872
753.1106
753.0345
752.9592
752.8845
752.8105
752.7373
752.665
752.5936
752.5231
752.4537
752.3853
752.318
752.252
752.1872
752.1237
752.0617
752.001
751.942
751.8845
751.8288
751.7748
751.7226
751.6725
751.6243
751.5783
751.5346
751.4932
751.4543
751.4179
751.3843
751.3535
751.3257
751.3009
751.2794
751.2613
751.2466
751.2355
751.2281
751.2245
750.3261
750.3225
750.3153
750.3045
750.2903
750.2728
750.252
750.228
750.2011
750.1711
750.1384
750.103
750.065
750.0245
749.9817
749.9367
749.8895
749.8403
749.7891
749.7361
749.6814
749.6249
749.5669
749.5074
749.4464
749.3841
749.3206
749.2558
749.1899
749.1229
749.0549
748.986
748.9162
748.8456
748.7743
748.7022
748.6295
748.5562
748.4823
748.408
748.3332
748.258
748.1825
748.1068
748.0307
747.9545
747.8781
747.8017
747.7252
747.6486
747.5721
747.4957
747.4194
747.3433
747.2674
747.1918
747.1165
747.0415
746.9669
746.8928
746.8191
746.7461
746.6735
746.6017
746.5305
746.4601
746.3904
746.3216
746.2537
746.1867
746.1208
746.0559
745.9922
745.9296
745.8683
745.8083
745.7496
745.6925
745.6368
745.5828
745.5304
745.4797
745.4309
745.384
745.3391
745.2963
745.2557
745.2173
745.1813
745.1478
745.1169
745.0887
745.0632
745.0407
745.0211
745.0047
744.9915
744.9815
744.9748
744.9716
743.769
743.7657
743.7592
743.7496
743.7368
743.7209
743.7021
743.6803
743.6557
743.6283
743.5983
743.5657
743.5306
743.4932
743.4535
743.4117
743.3677
743.3218
743.274
743.2244
743.173
743.12
743.0654
743.0093
742.9519
742.893
742.833
742.7717
742.7093
742.6458
742.5814
742.516
742.4497
742.3826
742.3148
742.2462
742.177
742.1073
742.0369
741.9661
741.8949
741.8232
741.7513
741.679
741.6065
741.5338
741.461
741.388
741.315
741.242
741.169
741.0961
741.0233
740.9507
740.8783
740.8062
740.7343
740.6629
740.5918
740.5212
740.451
740.3814
740.3124
740.244
740.1763
740.1093
740.0431
739.9778
739.9134
739.8499
739.7874
739.7259
739.6656
739.6064
739.5485
739.4919
739.4367
739.3829
739.3306
739.2799
739.2308
739.1834
739.1378
739.0941
739.0523
739.0126
738.975
738.9396
738.9064
738.8757
738.8474
738.8216
738.7984
738.778
738.7603
738.7455
738.7336
738.7246
738.7187
738.7158
737.2153
737.2124
737.2066
737.198
737.1865
737.1723
737.1553
737.1356
737.1133
737.0884
737.061
737.0311
736.9989
736.9645
736.9278
736.8891
736.8483
736.8056
736.761
736.7146
736.6666
736.6169
736.5657
736.513
736.459
736.4036
736.3469
736.2891
736.2301
736.1701
736.1091
736.0472
735.9844
735.9207
735.8564
735.7913
735.7256
735.6593
735.5924
735.5251
735.4573
735.3892
735.3207
735.2519
735.1829
735.1136
735.0443
734.9748
734.9053
734.8357
734.7662
734.6968
734.6274
734.5583
734.4894
734.4207
734.3523
734.2843
734.2167
734.1495
734.0828
734.0166
733.951
733.8861
733.8218
733.7583
733.6955
733.6336
733.5725
733.5124
733.4533
733.3953
733.3383
733.2825
733.228
733.1747
733.1228
733.0723
733.0233
732.9758
732.9299
732.8858
732.8434
732.8028
732.7641
732.7273
732.6926
732.6601
732.6297
732.6016
732.5758
732.5524
732.5315
732.513
732.4972
732.4839
732.4733
732.4653
732.4601
732.4575
730.6649
730.6623
730.6572
730.6496
730.6394
730.6268
730.6116
730.5939
730.5738
730.5513
730.5264
730.4993
730.4698
730.4382
730.4045
730.3688
730.3311
730.2915
730.2501
730.2069
730.1621
730.1157
730.0678
730.0184
729.9677
729.9156
729.8624
729.8079
729.7523
729.6957
729.6381
729.5796
729.5202
729.46
729.399
729.3374
729.2751
729.2122
729.1488
729.0849
729.0205
728.9558
728.8908
728.8254
728.7598
728.694
728.6281
728.562
728.4959
728.4298
728.3637
728.2977
728.2318
728.1661
728.1006
728.0353
727.9704
727.9058
727.8415
727.7778
727.7145
727.6517
727.5895
727.5279
727.467
727.4069
727.3475
727.2889
727.2312
727.1745
727.1187
727.064
727.0104
726.9579
726.9066
726.8566
726.808
726.7607
726.7149
726.6706
726.6279
726.5869
726.5475
726.51
726.4743
726.4405
726.4087
726.3789
726.3512
726.3257
726.3023
726.2812
726.2625
726.246
726.2319
726.2202
726.2108
726.2038
726.1992
726.197
724.1172
724.1149
724.1105
724.1039
724.0951
724.084
724.0706
724.055
724.0371
724.0169
723.9945
723.9699
723.9432
723.9144
723.8835
723.8507
723.816
723.7795
723.7412
723.7012
723.6595
723.6163
723.5717
723.5255
723.4781
723.4293
723.3793
723.3282
723.2759
723.2226
723.1684
723.1132
723.0571
723.0003
722.9427
722.8844
722.8255
722.766
722.706
722.6455
722.5845
722.5232
722.4615
722.3995
722.3373
722.2749
722.2124
722.1497
722.087
722.0243
721.9616
721.8989
721.8364
721.7741
721.7119
721.6501
721.5885
721.5272
721.4664
721.406
721.346
721.2866
721.2278
721.1695
721.112
721.0552
720.9991
720.9438
720.8895
720.836
720.7835
720.7321
720.6817
720.6325
720.5845
720.5377
720.4922
720.4481
720.4055
720.3643
720.3247
720.2867
720.2504
720.2159
720.1831
720.1521
720.1231
720.0961
720.071
720.048
720.0271
720.0083
719.9916
719.9771
719.9647
719.9545
719.9464
719.9404
719.9365
719.9346
717.5719
717.5701
717.5664
717.5608
717.5533
717.5438
717.5322
717.5186
717.5028
717.485
717.465
717.443
717.4189
717.3929
717.3648
717.3349
717.3031
717.2696
717.2343
717.1974
717.1588
717.1188
717.0772
717.0343
716.99
716.9445
716.8977
716.8498
716.8009
716.7508
716.6999
716.648
716.5952
716.5417
716.4874
716.4325
716.3769
716.3207
716.264
716.2068
716.1492
716.0912
716.0329
715.9743
715.9154
715.8563
715.7971
715.7378
715.6784
715.6191
715.5597
715.5004
715.4413
715.3822
715.3234
715.2649
715.2066
715.1487
715.0912
715.0341
714.9775
714.9214
714.8658
714.8109
714.7566
714.7031
714.6503
714.5983
714.5472
714.497
714.4477
714.3995
714.3523
714.3063
714.2615
714.2178
714.1755
714.1346
714.095
714.0569
714.0204
713.9854
713.952
713.9204
713.8905
713.8623
713.8361
713.8117
713.7892
713.7687
713.7502
713.7336
713.7191
713.7065
713.6959
713.6872
713.6804
713.6754
713.6721
713.6706
711.0287
711.0273
711.0244
711.0199
711.0138
711.0059
710.9962
710.9845
710.971
710.9554
710.9379
710.9184
710.8969
710.8736
710.8483
710.8212
710.7923
710.7617
710.7294
710.6955
710.66
710.623
710.5845
710.5447
710.5036
710.4612
710.4176
710.3729
710.3271
710.2803
710.2326
710.1839
710.1344
710.0842
710.0332
709.9815
709.9292
709.8763
709.8228
709.769
709.7146
709.6599
709.6049
709.5496
709.494
709.4383
709.3824
709.3263
709.2703
709.2142
709.1581
709.1022
709.0463
708.9906
708.9351
708.8798
708.8248
708.7702
708.716
708.6621
708.6088
708.5559
708.5036
708.452
708.4009
708.3506
708.3011
708.2523
708.2044
708.1574
708.1113
708.0662
708.0222
707.9794
707.9376
707.8971
707.8579
707.82
707.7835
707.7484
707.7148
707.6828
707.6524
707.6236
707.5965
707.5711
707.5476
707.5258
707.5059
707.4879
707.4717
707.4574
707.445
707.4344
707.4256
707.4185
707.413
707.4091
707.4065
707.4054
704.4872
704.4862
704.4842
704.481
704.4763
704.4702
704.4623
704.4528
704.4414
704.4281
704.413
704.396
704.3772
704.3565
704.3339
704.3096
704.2835
704.2558
704.2264
704.1954
704.1629
704.1289
704.0935
704.0567
704.0187
703.9794
703.9389
703.8974
703.8547
703.8111
703.7665
703.7211
703.6748
703.6277
703.5799
703.5314
703.4823
703.4327
703.3825
703.3318
703.2808
703.2293
703.1775
703.1255
703.0732
703.0207
702.968
702.9153
702.8625
702.8096
702.7569
702.7041
702.6515
702.5991
702.5468
702.4948
702.4431
702.3917
702.3407
702.2901
702.2399
702.1903
702.1412
702.0928
702.0449
701.9978
701.9514
701.9058
701.8611
701.8172
701.7743
701.7323
701.6914
701.6516
701.613
701.5755
701.5393
701.5044
701.4709
701.4388
701.4081
701.379
701.3514
701.3255
701.3012
701.2785
701.2577
701.2385
701.2212
701.2056
701.1918
701.1798
701.1695
701.1609
701.1539
701.1485
701.1445
701.1417
701.14
701.1393
697.9469
697.9465
697.9456
697.9437
697.9407
697.9364
697.9305
697.923
697.9139
697.903
697.8903
697.8758
697.8595
697.8414
697.8216
697.8
697.7767
697.7518
697.7253
697.6972
697.6676
697.6365
697.6041
697.5703
697.5353
697.4991
697.4617
697.4232
697.3836
697.3431
697.3016
697.2593
697.2161
697.1722
697.1276
697.0823
697.0364
696.9899
696.9429
696.8955
696.8476
696.7993
696.7508
696.7019
696.6528
696.6035
696.5541
696.5046
696.455
696.4054
696.3558
696.3063
696.2569
696.2077
696.1586
696.1098
696.0613
696.0131
695.9653
695.9179
695.8709
695.8245
695.7786
695.7333
695.6886
695.6446
695.6014
695.5589
695.5172
695.4765
695.4366
695.3978
695.3599
695.3232
695.2875
695.2531
695.2198
695.1879
695.1573
695.1281
695.1003
695.074
695.0493
695.0261
695.0045
694.9846
694.9664
694.9498
694.935
694.9219
694.9105
694.9008
694.8927
694.8862
694.8812
694.8775
694.8751
694.8736
694.8729
694.8727
691.4071
691.4077
691.4081
691.4078
691.4067
691.4043
691.4006
691.3953
691.3884
691.3799
691.3696
691.3577
691.3439
691.3284
691.3113
691.2924
691.2718
691.2497
691.2259
691.2007
691.174
691.1458
691.1163
691.0855
691.0534
691.0202
690.9858
690.9503
690.9138
690.8763
690.8379
690.7986
690.7586
690.7178
690.6762
690.6341
690.5913
690.5479
690.5041
690.4598
690.4151
690.37
690.3246
690.2789
690.233
690.1869
690.1406
690.0943
690.0479
690.0015
689.9551
689.9087
689.8625
689.8164
689.7706
689.7249
689.6796
689.6345
689.5899
689.5456
689.5018
689.4585
689.4157
689.3735
689.3319
689.291
689.2509
689.2115
689.1729
689.1352
689.0983
689.0625
689.0277
688.9939
688.9612
688.9297
688.8994
688.8704
688.8427
688.8163
688.7914
688.7679
688.7459
688.7255
688.7066
688.6894
688.6737
688.6598
688.6475
688.6368
688.6278
688.6205
688.6147
688.6103
688.6074
688.6057
688.605
688.6051
688.6057
688.6062
684.8671
684.8692
684.8715
684.8732
684.8741
684.8739
684.8724
684.8694
684.8649
684.8588
684.851
684.8415
684.8303
684.8174
684.8029
684.7867
684.7688
684.7494
684.7284
684.706
684.682
684.6567
684.6301
684.6022
684.573
684.5427
684.5112
684.4787
684.4452
684.4107
684.3753
684.3391
684.3021
684.2643
684.2258
684.1867
684.147
684.1068
684.066
684.0248
683.9832
683.9413
683.899
683.8564
683.8136
683.7707
683.7276
683.6843
683.6411
683.5978
683.5545
683.5113
683.4682
683.4253
683.3826
683.3401
683.2978
683.2559
683.2143
683.1732
683.1325
683.0922
683.0525
683.0134
682.9749
682.9371
682.8999
682.8636
682.828
682.7933
682.7594
682.7266
682.6947
682.6638
682.6341
682.6055
682.5781
682.5519
682.527
682.5035
682.4813
682.4606
682.4414
682.4236
682.4074
682.3928
682.3798
682.3684
682.3586
682.3505
682.3439
682.339
682.3355
682.3335
682.3327
682.3332
682.3345
682.3365
682.3387
682.3405
)
;

boundaryField
{
    leftLet
    {
        type            zeroGradient;
    }
    rightLet
    {
        type            zeroGradient;
    }
    frontAndBack
    {
        type            empty;
    }
    wall_to_bottomAir
    {
        type            compressible::turbulentTemperatureCoupledBaffleMixed;
        refValue        nonuniform List<scalar> 
100
(
1199.255
1199.069
1198.771
1198.405
1198.047
1197.697
1197.346
1196.995
1196.644
1196.293
1195.943
1195.593
1195.244
1194.894
1194.545
1194.197
1193.848
1193.5
1193.152
1192.804
1192.457
1192.11
1191.763
1191.417
1191.07
1190.724
1190.379
1190.033
1189.688
1189.343
1188.998
1188.654
1188.309
1187.965
1187.622
1187.278
1186.935
1186.592
1186.249
1185.907
1185.564
1185.222
1184.881
1184.539
1184.198
1183.857
1183.516
1183.176
1182.835
1182.495
1182.155
1181.816
1181.477
1181.137
1180.799
1180.46
1180.122
1179.784
1179.446
1179.108
1178.771
1178.434
1178.097
1177.76
1177.424
1177.087
1176.752
1176.416
1176.08
1175.745
1175.41
1175.076
1174.741
1174.407
1174.073
1173.739
1173.406
1173.073
1172.74
1172.407
1172.075
1171.743
1171.411
1171.079
1170.748
1170.417
1170.086
1169.755
1169.425
1169.095
1168.765
1168.436
1168.107
1167.778
1167.45
1167.121
1166.793
1166.466
1166.138
1165.812
)
;
        refGradient     uniform 0;
        valueFraction   nonuniform List<scalar> 
100
(
0.008498584
0.008498584
0.008498584
0.008498584
0.008498584
0.008498584
0.008498584
0.008498584
0.008498584
0.008498584
0.008498584
0.008498584
0.008498584
0.008498584
0.008498584
0.008498584
0.008498584
0.008498584
0.008498584
0.008498584
0.008498584
0.008498584
0.008498584
0.008498584
0.008498584
0.008498584
0.008498584
0.008498584
0.008498584
0.008498584
0.008498584
0.008498584
0.008498584
0.008498584
0.008498584
0.008498584
0.008498584
0.008498584
0.008498584
0.008498584
0.008498584
0.008498584
0.008498584
0.008498584
0.008498584
0.008498584
0.008498584
0.008498584
0.008498584
0.008498584
0.008498584
0.008498584
0.008498584
0.008498584
0.008498584
0.008498584
0.008498584
0.008498584
0.008498584
0.008498584
0.008498584
0.008498584
0.008498584
0.008498584
0.008498584
0.008498584
0.008498584
0.008498584
0.008498584
0.008498584
0.008498584
0.008498584
0.008498584
0.008498584
0.008498584
0.008498584
0.008498584
0.008498584
0.008498584
0.008498584
0.008498584
0.008498584
0.008498584
0.008498584
0.008498584
0.008498584
0.008498584
0.008498584
0.008498584
0.008498584
0.008498584
0.008498584
0.008498584
0.008498584
0.008498584
0.008498584
0.008498584
0.008498584
0.008498584
0.008498584
)
;
        value           nonuniform List<scalar> 
100
(
812.8868
812.8742
812.8506
812.818
812.7784
812.7328
812.682
812.6263
812.5664
812.5025
812.435
812.3642
812.2904
812.2138
812.1345
812.0528
811.9688
811.8826
811.7945
811.7045
811.6127
811.5193
811.4243
811.3278
811.23
811.1309
811.0306
810.9292
810.8267
810.7232
810.6188
810.5135
810.4074
810.3006
810.1931
810.085
809.9762
809.867
809.7573
809.6471
809.5366
809.4257
809.3146
809.2032
809.0916
808.9798
808.868
808.756
808.6441
808.5322
808.4203
808.3085
808.1969
808.0854
807.9742
807.8633
807.7526
807.6424
807.5325
807.423
807.3141
807.2057
807.0978
806.9906
806.884
806.7782
806.6731
806.5688
806.4654
806.363
806.2615
806.1611
806.0617
805.9635
805.8666
805.7709
805.6766
805.5838
805.4924
805.4027
805.3147
805.2285
805.1442
805.0619
804.9818
804.9039
804.8284
804.7556
804.6855
804.6184
804.5544
804.494
804.4372
804.3846
804.3366
804.2935
804.2561
804.2251
804.2016
804.1872
)
;
        Tnbr            T;
        thicknessLayers 0();
        kappaLayers     0();
        kappa           solidThermo;
        kappaName       none;
    }
    wall_to_topAir
    {
        type            compressible::turbulentTemperatureCoupledBaffleMixed;
        refValue        nonuniform List<scalar> 
100
(
299.9764
300.1858
300.3471
300.4797
300.6159
300.7549
300.8936
301.032
301.1704
301.3089
301.4475
301.586
301.7245
301.8631
302.0017
302.1403
302.2789
302.4175
302.5561
302.6948
302.8335
302.9722
303.1108
303.2496
303.3883
303.527
303.6658
303.8045
303.9433
304.0821
304.2208
304.3596
304.4984
304.6372
304.7761
304.9149
305.0537
305.1926
305.3314
305.4703
305.6092
305.748
305.8869
306.0258
306.1647
306.3036
306.4425
306.5814
306.7203
306.8593
306.9982
307.1371
307.2761
307.415
307.554
307.6929
307.8319
307.9709
308.1098
308.2488
308.3878
308.5268
308.6658
308.8048
308.9438
309.0828
309.2219
309.3609
309.5
309.639
309.7781
309.9171
310.0562
310.1953
310.3344
310.4735
310.6126
310.7517
310.8908
311.03
311.1691
311.3083
311.4475
311.5866
311.7258
311.8651
312.0043
312.1435
312.2828
312.422
312.5613
312.7006
312.8399
312.9792
313.1185
313.2578
313.3972
313.5365
313.6758
313.8151
)
;
        refGradient     uniform 0;
        valueFraction   nonuniform List<scalar> 
100
(
0.008498584
0.008498584
0.008498584
0.008498584
0.008498584
0.008498584
0.008498584
0.008498584
0.008498584
0.008498584
0.008498584
0.008498584
0.008498584
0.008498584
0.008498584
0.008498584
0.008498584
0.008498584
0.008498584
0.008498584
0.008498584
0.008498584
0.008498584
0.008498584
0.008498584
0.008498584
0.008498584
0.008498584
0.008498584
0.008498584
0.008498584
0.008498584
0.008498584
0.008498584
0.008498584
0.008498584
0.008498584
0.008498584
0.008498584
0.008498584
0.008498584
0.008498584
0.008498584
0.008498584
0.008498584
0.008498584
0.008498584
0.008498584
0.008498584
0.008498584
0.008498584
0.008498584
0.008498584
0.008498584
0.008498584
0.008498584
0.008498584
0.008498584
0.008498584
0.008498584
0.008498584
0.008498584
0.008498584
0.008498584
0.008498584
0.008498584
0.008498584
0.008498584
0.008498584
0.008498584
0.008498584
0.008498584
0.008498584
0.008498584
0.008498584
0.008498584
0.008498584
0.008498584
0.008498584
0.008498584
0.008498584
0.008498584
0.008498584
0.008498584
0.008498584
0.008498584
0.008498584
0.008498584
0.008498584
0.008498584
0.008498584
0.008498584
0.008498584
0.008498584
0.008498584
0.008498584
0.008498584
0.008498584
0.008498584
0.008498584
)
;
        value           nonuniform List<scalar> 
100
(
681.5959
681.5997
681.6034
681.6063
681.6083
681.6093
681.6089
681.6072
681.6039
681.599
681.5925
681.5842
681.5743
681.5627
681.5495
681.5346
681.518
681.5
681.4803
681.4592
681.4367
681.4128
681.3876
681.3611
681.3333
681.3044
681.2744
681.2434
681.2113
681.1783
681.1444
681.1096
681.0741
681.0378
681.0009
680.9633
680.9251
680.8864
680.8472
680.8075
680.7674
680.727
680.6862
680.6452
680.604
680.5626
680.521
680.4793
680.4376
680.3959
680.3542
680.3125
680.271
680.2296
680.1884
680.1474
680.1067
680.0663
680.0263
679.9867
679.9475
679.9088
679.8706
679.833
679.796
679.7597
679.724
679.6891
679.655
679.6218
679.5894
679.558
679.5276
679.4982
679.4699
679.4427
679.4167
679.392
679.3685
679.3463
679.3255
679.3062
679.2883
679.2719
679.257
679.2437
679.2319
679.2218
679.2133
679.2064
679.2011
679.1974
679.1951
679.1943
679.1948
679.1964
679.1989
679.2021
679.2054
679.2083
)
;
        Tnbr            T;
        thicknessLayers 0();
        kappaLayers     0();
        kappa           solidThermo;
        kappaName       none;
    }
}


// ************************************************************************* //
