/*--------------------------------*- C++ -*----------------------------------*\
| =========                 |                                                 |
| \\      /  F ield         | OpenFOAM: The Open Source CFD Toolbox           |
|  \\    /   O peration     | Version:  2.3.0                                 |
|   \\  /    A nd           | Web:      www.OpenFOAM.org                      |
|    \\/     M anipulation  |                                                 |
\*---------------------------------------------------------------------------*/
FoamFile
{
    version     2.0;
    format      ascii;
    class       volScalarField;
    location    "9600/wall";
    object      T;
}
// * * * * * * * * * * * * * * * * * * * * * * * * * * * * * * * * * * * * * //

dimensions      [0 0 0 1 0 0 0];

internalField   nonuniform List<scalar> 
2000
(
1153.51
1153.574
1153.607
1153.604
1153.592
1153.58
1153.565
1153.549
1153.533
1153.517
1153.5
1153.483
1153.466
1153.449
1153.432
1153.414
1153.397
1153.38
1153.362
1153.345
1153.328
1153.31
1153.293
1153.275
1153.258
1153.24
1153.223
1153.205
1153.188
1153.17
1153.153
1153.135
1153.118
1153.1
1153.083
1153.065
1153.048
1153.03
1153.013
1152.995
1152.978
1152.96
1152.943
1152.925
1152.908
1152.89
1152.872
1152.855
1152.837
1152.82
1152.802
1152.785
1152.767
1152.75
1152.732
1152.714
1152.697
1152.679
1152.662
1152.644
1152.626
1152.609
1152.591
1152.574
1152.556
1152.539
1152.521
1152.503
1152.486
1152.468
1152.451
1152.433
1152.415
1152.398
1152.38
1152.363
1152.345
1152.327
1152.31
1152.292
1152.275
1152.257
1152.239
1152.222
1152.204
1152.187
1152.169
1152.152
1152.134
1152.117
1152.099
1152.082
1152.065
1152.048
1152.031
1152.015
1151.999
1151.985
1151.972
1151.962
1111.049
1111.072
1111.088
1111.09
1111.085
1111.076
1111.064
1111.052
1111.038
1111.024
1111.009
1110.994
1110.979
1110.964
1110.948
1110.933
1110.917
1110.901
1110.885
1110.87
1110.854
1110.838
1110.822
1110.806
1110.79
1110.774
1110.758
1110.742
1110.727
1110.711
1110.695
1110.679
1110.663
1110.647
1110.631
1110.615
1110.599
1110.583
1110.567
1110.551
1110.535
1110.519
1110.503
1110.487
1110.471
1110.455
1110.438
1110.422
1110.406
1110.39
1110.374
1110.358
1110.342
1110.326
1110.31
1110.294
1110.278
1110.262
1110.246
1110.23
1110.214
1110.198
1110.182
1110.166
1110.15
1110.134
1110.117
1110.101
1110.085
1110.069
1110.053
1110.037
1110.021
1110.005
1109.989
1109.973
1109.957
1109.941
1109.925
1109.909
1109.892
1109.876
1109.86
1109.844
1109.828
1109.813
1109.797
1109.781
1109.765
1109.749
1109.734
1109.718
1109.703
1109.688
1109.674
1109.66
1109.647
1109.636
1109.627
1109.622
1068.566
1068.574
1068.581
1068.583
1068.58
1068.573
1068.565
1068.554
1068.543
1068.531
1068.518
1068.505
1068.492
1068.478
1068.465
1068.451
1068.437
1068.423
1068.408
1068.394
1068.38
1068.366
1068.351
1068.337
1068.323
1068.308
1068.294
1068.28
1068.265
1068.251
1068.236
1068.222
1068.207
1068.193
1068.179
1068.164
1068.15
1068.135
1068.121
1068.106
1068.092
1068.077
1068.063
1068.048
1068.034
1068.019
1068.005
1067.99
1067.976
1067.961
1067.947
1067.932
1067.918
1067.903
1067.889
1067.874
1067.86
1067.845
1067.831
1067.816
1067.802
1067.787
1067.773
1067.758
1067.744
1067.729
1067.715
1067.7
1067.686
1067.671
1067.657
1067.642
1067.628
1067.613
1067.599
1067.584
1067.569
1067.555
1067.54
1067.526
1067.512
1067.497
1067.483
1067.468
1067.454
1067.44
1067.425
1067.411
1067.397
1067.383
1067.369
1067.356
1067.343
1067.33
1067.317
1067.306
1067.296
1067.287
1067.28
1067.277
1026.074
1026.077
1026.08
1026.081
1026.078
1026.073
1026.066
1026.058
1026.048
1026.038
1026.027
1026.016
1026.005
1025.993
1025.981
1025.969
1025.956
1025.944
1025.931
1025.919
1025.906
1025.893
1025.881
1025.868
1025.855
1025.842
1025.83
1025.817
1025.804
1025.791
1025.778
1025.765
1025.752
1025.74
1025.727
1025.714
1025.701
1025.688
1025.675
1025.662
1025.649
1025.636
1025.623
1025.61
1025.598
1025.585
1025.572
1025.559
1025.546
1025.533
1025.52
1025.507
1025.494
1025.481
1025.468
1025.455
1025.442
1025.429
1025.416
1025.403
1025.39
1025.377
1025.364
1025.352
1025.339
1025.326
1025.313
1025.3
1025.287
1025.274
1025.261
1025.248
1025.235
1025.222
1025.209
1025.196
1025.183
1025.17
1025.157
1025.144
1025.132
1025.119
1025.106
1025.093
1025.08
1025.068
1025.055
1025.042
1025.03
1025.018
1025.006
1024.994
1024.983
1024.972
1024.961
1024.952
1024.943
1024.936
1024.932
1024.929
983.5787
983.5798
983.5807
983.5803
983.578
983.574
983.5685
983.5618
983.5541
983.5457
983.5366
983.5271
983.5173
983.5071
983.4968
983.4862
983.4755
983.4648
983.4539
983.4429
983.4319
983.4208
983.4097
983.3986
983.3874
983.3762
983.3649
983.3537
983.3424
983.3312
983.3199
983.3086
983.2973
983.286
983.2747
983.2634
983.252
983.2407
983.2294
983.218
983.2067
983.1953
983.184
983.1726
983.1613
983.1499
983.1386
983.1272
983.1158
983.1045
983.0931
983.0817
983.0704
983.059
983.0476
983.0363
983.0249
983.0135
983.0021
982.9907
982.9794
982.968
982.9566
982.9452
982.9338
982.9225
982.9111
982.8997
982.8883
982.8769
982.8656
982.8542
982.8428
982.8315
982.8201
982.8088
982.7974
982.7861
982.7748
982.7635
982.7522
982.7409
982.7297
982.7185
982.7074
982.6963
982.6854
982.6745
982.6637
982.6532
982.6428
982.6327
982.623
982.6138
982.6052
982.5974
982.5907
982.5852
982.5814
982.5795
941.0817
941.0821
941.0821
941.0813
941.0793
941.0761
941.0717
941.0663
941.0602
941.0533
941.0459
941.038
941.0298
941.0213
941.0126
941.0037
940.9947
940.9855
940.9763
940.9669
940.9575
940.9481
940.9386
940.929
940.9194
940.9098
940.9002
940.8906
940.8809
940.8712
940.8615
940.8518
940.8421
940.8324
940.8227
940.8129
940.8032
940.7934
940.7837
940.7739
940.7642
940.7544
940.7447
940.7349
940.7251
940.7154
940.7056
940.6958
940.686
940.6763
940.6665
940.6567
940.6469
940.6371
940.6274
940.6176
940.6078
940.598
940.5882
940.5784
940.5686
940.5588
940.5491
940.5393
940.5295
940.5197
940.5099
940.5001
940.4903
940.4805
940.4708
940.461
940.4512
940.4414
940.4317
940.4219
940.4122
940.4025
940.3928
940.3831
940.3734
940.3637
940.3541
940.3446
940.3351
940.3256
940.3163
940.307
940.2979
940.289
940.2803
940.2718
940.2638
940.2561
940.2491
940.2428
940.2374
940.2331
940.2301
940.2287
898.584
898.5841
898.5838
898.5829
898.5813
898.5788
898.5754
898.5713
898.5664
898.561
898.5552
898.5489
898.5423
898.5354
898.5283
898.521
898.5136
898.5061
898.4985
898.4907
898.4829
898.4751
898.4672
898.4593
898.4513
898.4433
898.4353
898.4272
898.4192
898.4111
898.403
898.3949
898.3868
898.3786
898.3705
898.3624
898.3542
898.3461
898.3379
898.3298
898.3216
898.3135
898.3053
898.2971
898.289
898.2808
898.2726
898.2644
898.2563
898.2481
898.2399
898.2317
898.2235
898.2154
898.2072
898.199
898.1908
898.1826
898.1744
898.1662
898.158
898.1499
898.1417
898.1335
898.1253
898.1171
898.1089
898.1007
898.0926
898.0844
898.0762
898.068
898.0599
898.0517
898.0436
898.0354
898.0273
898.0192
898.0111
898.003
897.9949
897.9869
897.9789
897.971
897.9631
897.9552
897.9475
897.9399
897.9324
897.925
897.9179
897.911
897.9045
897.8984
897.8927
897.8877
897.8835
897.8801
897.8779
897.8767
856.0859
856.0859
856.0856
856.0849
856.0837
856.0819
856.0794
856.0764
856.0729
856.0689
856.0644
856.0597
856.0546
856.0493
856.0438
856.0382
856.0324
856.0264
856.0204
856.0143
856.0081
856.0019
855.9956
855.9893
855.9829
855.9765
855.9701
855.9637
855.9572
855.9507
855.9442
855.9377
855.9312
855.9247
855.9182
855.9117
855.9051
855.8986
855.892
855.8855
855.8789
855.8724
855.8658
855.8592
855.8527
855.8461
855.8395
855.833
855.8264
855.8198
855.8132
855.8067
855.8001
855.7935
855.7869
855.7804
855.7738
855.7672
855.7606
855.754
855.7475
855.7409
855.7343
855.7277
855.7211
855.7146
855.708
855.7014
855.6949
855.6883
855.6817
855.6752
855.6686
855.6621
855.6555
855.649
855.6425
855.636
855.6295
855.623
855.6166
855.6102
855.6038
855.5975
855.5912
855.585
855.5788
855.5728
855.5669
855.5611
855.5555
855.5502
855.5451
855.5403
855.536
855.5322
855.529
855.5264
855.5247
855.5238
813.5874
813.5874
813.5873
813.5869
813.5862
813.5851
813.5836
813.5817
813.5794
813.5767
813.5737
813.5704
813.5668
813.5631
813.5591
813.5551
813.5508
813.5465
813.5421
813.5376
813.533
813.5284
813.5237
813.519
813.5142
813.5095
813.5047
813.4998
813.495
813.4901
813.4852
813.4803
813.4754
813.4705
813.4656
813.4607
813.4558
813.4508
813.4459
813.4409
813.436
813.431
813.4261
813.4211
813.4162
813.4112
813.4063
813.4013
813.3963
813.3914
813.3864
813.3814
813.3765
813.3715
813.3665
813.3616
813.3566
813.3516
813.3467
813.3417
813.3367
813.3318
813.3268
813.3218
813.3169
813.3119
813.307
813.302
813.297
813.2921
813.2872
813.2822
813.2773
813.2723
813.2674
813.2625
813.2576
813.2527
813.2479
813.243
813.2382
813.2334
813.2286
813.2239
813.2192
813.2146
813.2101
813.2056
813.2012
813.197
813.1929
813.189
813.1853
813.1819
813.1788
813.1761
813.1738
813.1719
813.1707
813.17
771.0886
771.0887
771.0888
771.0888
771.0887
771.0884
771.0878
771.0869
771.0858
771.0844
771.0828
771.0809
771.0789
771.0766
771.0742
771.0717
771.0691
771.0663
771.0635
771.0606
771.0576
771.0546
771.0515
771.0484
771.0452
771.0421
771.0389
771.0356
771.0324
771.0291
771.0259
771.0226
771.0193
771.016
771.0127
771.0094
771.0061
771.0027
770.9994
770.9961
770.9927
770.9894
770.9861
770.9827
770.9794
770.976
770.9727
770.9693
770.966
770.9626
770.9593
770.9559
770.9526
770.9492
770.9459
770.9425
770.9392
770.9358
770.9324
770.9291
770.9257
770.9224
770.919
770.9157
770.9123
770.909
770.9057
770.9023
770.899
770.8956
770.8923
770.889
770.8857
770.8824
770.8791
770.8758
770.8725
770.8692
770.866
770.8627
770.8595
770.8563
770.8532
770.8501
770.847
770.8439
770.841
770.8381
770.8353
770.8325
770.8299
770.8274
770.8251
770.8229
770.821
770.8193
770.8178
770.8167
770.8159
770.8154
728.5893
728.5896
728.59
728.5905
728.591
728.5915
728.5918
728.592
728.5921
728.592
728.5917
728.5913
728.5907
728.5899
728.589
728.5881
728.587
728.5858
728.5845
728.5832
728.5818
728.5804
728.5789
728.5774
728.5759
728.5743
728.5727
728.5711
728.5694
728.5678
728.5661
728.5645
728.5628
728.5611
728.5594
728.5577
728.556
728.5542
728.5525
728.5508
728.5491
728.5473
728.5456
728.5439
728.5421
728.5404
728.5387
728.5369
728.5352
728.5334
728.5317
728.53
728.5282
728.5265
728.5247
728.523
728.5213
728.5195
728.5178
728.516
728.5143
728.5126
728.5108
728.5091
728.5074
728.5056
728.5039
728.5022
728.5004
728.4987
728.497
728.4953
728.4936
728.4919
728.4902
728.4885
728.4869
728.4852
728.4836
728.482
728.4804
728.4788
728.4772
728.4757
728.4742
728.4728
728.4714
728.47
728.4687
728.4675
728.4663
728.4652
728.4642
728.4633
728.4625
728.4618
728.4612
728.4607
728.4602
728.46
686.0894
686.0899
686.0906
686.0917
686.0929
686.0942
686.0956
686.0969
686.0982
686.0993
686.1004
686.1014
686.1022
686.1029
686.1036
686.1041
686.1046
686.1049
686.1052
686.1055
686.1057
686.1058
686.106
686.106
686.1061
686.1061
686.1061
686.1061
686.106
686.106
686.1059
686.1059
686.1058
686.1057
686.1056
686.1055
686.1054
686.1052
686.1051
686.105
686.1049
686.1048
686.1046
686.1045
686.1044
686.1043
686.1041
686.104
686.1039
686.1037
686.1036
686.1035
686.1033
686.1032
686.1031
686.1029
686.1028
686.1027
686.1025
686.1024
686.1023
686.1021
686.102
686.1019
686.1018
686.1016
686.1015
686.1014
686.1013
686.1012
686.1011
686.101
686.1009
686.1008
686.1007
686.1007
686.1006
686.1006
686.1005
686.1005
686.1005
686.1005
686.1006
686.1006
686.1007
686.1009
686.101
686.1012
686.1014
686.1017
686.1019
686.1022
686.1025
686.1029
686.1032
686.1034
686.1037
686.1038
686.1038
686.1037
643.5887
643.5894
643.5906
643.5923
643.5943
643.5966
643.5989
643.6014
643.6039
643.6064
643.6088
643.6111
643.6134
643.6156
643.6177
643.6198
643.6218
643.6237
643.6255
643.6273
643.6291
643.6308
643.6325
643.6342
643.6358
643.6374
643.639
643.6406
643.6421
643.6437
643.6452
643.6467
643.6482
643.6497
643.6512
643.6527
643.6542
643.6557
643.6572
643.6586
643.6601
643.6616
643.6631
643.6645
643.666
643.6675
643.6689
643.6704
643.6719
643.6733
643.6748
643.6763
643.6777
643.6792
643.6807
643.6821
643.6836
643.6851
643.6866
643.688
643.6895
643.691
643.6925
643.6939
643.6954
643.6969
643.6984
643.6999
643.7014
643.7029
643.7044
643.7059
643.7074
643.7089
643.7104
643.7119
643.7135
643.715
643.7166
643.7182
643.7198
643.7214
643.723
643.7247
643.7263
643.728
643.7297
643.7314
643.7331
643.7349
643.7366
643.7383
643.7399
643.7415
643.7429
643.7442
643.7453
643.746
643.7465
643.7466
601.0871
601.088
601.0898
601.0922
601.0951
601.0983
601.1018
601.1055
601.1092
601.113
601.1168
601.1205
601.1242
601.1279
601.1315
601.135
601.1385
601.142
601.1454
601.1487
601.1521
601.1553
601.1586
601.1618
601.165
601.1682
601.1714
601.1745
601.1776
601.1808
601.1839
601.187
601.1901
601.1931
601.1962
601.1993
601.2024
601.2054
601.2085
601.2116
601.2146
601.2177
601.2208
601.2238
601.2269
601.2299
601.233
601.236
601.2391
601.2422
601.2452
601.2483
601.2513
601.2544
601.2575
601.2605
601.2636
601.2666
601.2697
601.2728
601.2758
601.2789
601.282
601.285
601.2881
601.2912
601.2943
601.2974
601.3004
601.3035
601.3066
601.3097
601.3128
601.3159
601.319
601.3222
601.3253
601.3284
601.3316
601.3348
601.3379
601.3411
601.3443
601.3475
601.3508
601.354
601.3572
601.3605
601.3637
601.3669
601.3701
601.3732
601.3762
601.379
601.3816
601.384
601.3859
601.3874
601.3883
601.3886
558.5841
558.5855
558.5879
558.5912
558.5951
558.5995
558.6041
558.6091
558.6141
558.6192
558.6244
558.6295
558.6347
558.6398
558.6448
558.6499
558.6549
558.6598
558.6648
558.6696
558.6745
558.6793
558.6841
558.6889
558.6937
558.6984
558.7031
558.7078
558.7125
558.7172
558.7219
558.7265
558.7312
558.7359
558.7405
558.7452
558.7498
558.7544
558.7591
558.7637
558.7684
558.773
558.7776
558.7823
558.7869
558.7915
558.7962
558.8008
558.8054
558.8101
558.8147
558.8193
558.824
558.8286
558.8333
558.8379
558.8425
558.8472
558.8518
558.8565
558.8611
558.8658
558.8704
558.8751
558.8797
558.8844
558.889
558.8937
558.8984
558.903
558.9077
558.9124
558.9171
558.9217
558.9264
558.9311
558.9359
558.9406
558.9453
558.95
558.9548
558.9595
558.9643
558.9691
558.9738
558.9786
558.9834
558.9881
558.9929
558.9976
559.0022
559.0067
559.0111
559.0153
559.0191
559.0226
559.0256
559.0278
559.0293
559.0299
516.0796
516.0815
516.0848
516.0891
516.0942
516.0999
516.1059
516.1121
516.1185
516.125
516.1315
516.1381
516.1446
516.1512
516.1577
516.1642
516.1707
516.1772
516.1836
516.19
516.1964
516.2027
516.2091
516.2154
516.2217
516.2279
516.2342
516.2404
516.2467
516.2529
516.2591
516.2654
516.2716
516.2778
516.284
516.2902
516.2964
516.3026
516.3088
516.315
516.3212
516.3274
516.3336
516.3398
516.346
516.3522
516.3584
516.3646
516.3708
516.377
516.3832
516.3893
516.3955
516.4017
516.408
516.4142
516.4204
516.4266
516.4328
516.439
516.4452
516.4514
516.4576
516.4638
516.47
516.4763
516.4825
516.4887
516.4949
516.5012
516.5074
516.5136
516.5199
516.5261
516.5324
516.5387
516.5449
516.5512
516.5575
516.5638
516.5701
516.5764
516.5827
516.589
516.5953
516.6016
516.6079
516.6142
516.6204
516.6266
516.6327
516.6387
516.6445
516.6501
516.6553
516.66
516.6641
516.6673
516.6695
516.6704
473.5729
473.5756
473.5802
473.586
473.5925
473.5995
473.6069
473.6145
473.6223
473.6302
473.6381
473.6461
473.6541
473.6621
473.6701
473.6781
473.686
473.694
473.7019
473.7098
473.7176
473.7255
473.7333
473.7412
473.749
473.7568
473.7645
473.7723
473.7801
473.7879
473.7956
473.8034
473.8111
473.8189
473.8266
473.8343
473.8421
473.8498
473.8576
473.8653
473.873
473.8808
473.8885
473.8962
473.904
473.9117
473.9194
473.9272
473.9349
473.9427
473.9504
473.9581
473.9659
473.9736
473.9814
473.9891
473.9969
474.0046
474.0124
474.0201
474.0279
474.0356
474.0434
474.0512
474.0589
474.0667
474.0745
474.0822
474.09
474.0978
474.1056
474.1133
474.1211
474.1289
474.1367
474.1445
474.1523
474.1601
474.168
474.1758
474.1836
474.1915
474.1993
474.2071
474.215
474.2228
474.2306
474.2384
474.2462
474.2539
474.2615
474.269
474.2763
474.2833
474.29
474.2961
474.3015
474.3059
474.3089
474.3103
431.0633
431.0676
431.0741
431.0817
431.0899
431.0985
431.1073
431.1164
431.1256
431.1349
431.1443
431.1537
431.1631
431.1725
431.182
431.1914
431.2008
431.2102
431.2196
431.2289
431.2383
431.2476
431.2569
431.2662
431.2755
431.2848
431.2941
431.3034
431.3127
431.3219
431.3312
431.3405
431.3497
431.359
431.3682
431.3775
431.3867
431.396
431.4053
431.4145
431.4238
431.433
431.4423
431.4515
431.4608
431.47
431.4793
431.4886
431.4978
431.5071
431.5163
431.5256
431.5349
431.5441
431.5534
431.5627
431.5719
431.5812
431.5905
431.5998
431.609
431.6183
431.6276
431.6369
431.6462
431.6555
431.6648
431.6741
431.6833
431.6926
431.702
431.7113
431.7206
431.7299
431.7392
431.7485
431.7578
431.7672
431.7765
431.7858
431.7952
431.8045
431.8139
431.8232
431.8326
431.8419
431.8513
431.8606
431.8698
431.879
431.8882
431.8972
431.906
431.9146
431.9229
431.9306
431.9376
431.9435
431.9478
431.9498
388.5492
388.5568
388.5666
388.5765
388.5865
388.5967
388.6071
388.6177
388.6284
388.6391
388.6499
388.6607
388.6716
388.6824
388.6933
388.7041
388.7149
388.7258
388.7366
388.7474
388.7582
388.769
388.7797
388.7905
388.8013
388.8121
388.8228
388.8336
388.8443
388.8551
388.8658
388.8766
388.8873
388.8981
388.9088
388.9196
388.9303
388.9411
388.9518
388.9625
388.9733
388.984
388.9948
389.0055
389.0163
389.027
389.0378
389.0486
389.0593
389.0701
389.0808
389.0916
389.1024
389.1131
389.1239
389.1347
389.1454
389.1562
389.167
389.1777
389.1885
389.1993
389.2101
389.2209
389.2316
389.2424
389.2532
389.264
389.2748
389.2856
389.2964
389.3072
389.318
389.3288
389.3396
389.3505
389.3613
389.3721
389.3829
389.3937
389.4046
389.4154
389.4263
389.4371
389.4479
389.4588
389.4696
389.4804
389.4912
389.5019
389.5126
389.5231
389.5336
389.5438
389.5538
389.5633
389.5722
389.5801
389.5862
389.5896
346.0272
346.0435
346.0588
346.0708
346.0825
346.0944
346.1064
346.1185
346.1307
346.1428
346.155
346.1673
346.1795
346.1917
346.204
346.2162
346.2284
346.2407
346.2529
346.2651
346.2773
346.2896
346.3018
346.314
346.3262
346.3384
346.3506
346.3628
346.375
346.3872
346.3994
346.4116
346.4238
346.4361
346.4483
346.4605
346.4727
346.4849
346.4971
346.5093
346.5215
346.5337
346.546
346.5582
346.5704
346.5826
346.5948
346.6071
346.6193
346.6315
346.6438
346.656
346.6682
346.6805
346.6927
346.7049
346.7172
346.7294
346.7417
346.7539
346.7661
346.7784
346.7906
346.8029
346.8152
346.8274
346.8397
346.8519
346.8642
346.8765
346.8887
346.901
346.9133
346.9256
346.9378
346.9501
346.9624
346.9747
346.987
346.9993
347.0116
347.0239
347.0362
347.0485
347.0608
347.0731
347.0854
347.0976
347.1099
347.1222
347.1344
347.1465
347.1586
347.1706
347.1824
347.1939
347.2051
347.2155
347.2246
347.2308
)
;

boundaryField
{
    leftLet
    {
        type            zeroGradient;
    }
    rightLet
    {
        type            zeroGradient;
    }
    frontAndBack
    {
        type            empty;
    }
    wall_to_bottomAir
    {
        type            compressible::turbulentTemperatureCoupledBaffleMixed;
        refValue        nonuniform List<scalar> 
100
(
1199.439
1199.652
1199.708
1199.67
1199.643
1199.626
1199.608
1199.589
1199.57
1199.551
1199.532
1199.512
1199.493
1199.474
1199.455
1199.436
1199.417
1199.398
1199.379
1199.36
1199.341
1199.321
1199.302
1199.283
1199.264
1199.245
1199.226
1199.207
1199.188
1199.168
1199.149
1199.13
1199.111
1199.092
1199.073
1199.054
1199.034
1199.015
1198.996
1198.977
1198.958
1198.939
1198.92
1198.9
1198.881
1198.862
1198.843
1198.824
1198.805
1198.785
1198.766
1198.747
1198.728
1198.709
1198.689
1198.67
1198.651
1198.632
1198.613
1198.593
1198.574
1198.555
1198.536
1198.517
1198.497
1198.478
1198.459
1198.44
1198.42
1198.401
1198.382
1198.363
1198.344
1198.324
1198.305
1198.286
1198.267
1198.247
1198.228
1198.209
1198.19
1198.17
1198.151
1198.132
1198.112
1198.093
1198.074
1198.055
1198.035
1198.016
1197.997
1197.977
1197.958
1197.939
1197.92
1197.9
1197.881
1197.862
1197.842
1197.823
)
;
        refGradient     uniform 0;
        valueFraction   nonuniform List<scalar> 
100
(
0.4615385
0.4615385
0.4615385
0.4615385
0.4615385
0.4615385
0.4615385
0.4615385
0.4615385
0.4615385
0.4615385
0.4615385
0.4615385
0.4615385
0.4615385
0.4615385
0.4615385
0.4615385
0.4615385
0.4615385
0.4615385
0.4615385
0.4615385
0.4615385
0.4615385
0.4615385
0.4615385
0.4615385
0.4615385
0.4615385
0.4615385
0.4615385
0.4615385
0.4615385
0.4615385
0.4615385
0.4615385
0.4615385
0.4615385
0.4615385
0.4615385
0.4615385
0.4615385
0.4615385
0.4615385
0.4615385
0.4615385
0.4615385
0.4615385
0.4615385
0.4615385
0.4615385
0.4615385
0.4615385
0.4615385
0.4615385
0.4615385
0.4615385
0.4615385
0.4615385
0.4615385
0.4615385
0.4615385
0.4615385
0.4615385
0.4615385
0.4615385
0.4615385
0.4615385
0.4615385
0.4615385
0.4615385
0.4615385
0.4615385
0.4615385
0.4615385
0.4615385
0.4615385
0.4615385
0.4615385
0.4615385
0.4615385
0.4615385
0.4615385
0.4615385
0.4615385
0.4615385
0.4615385
0.4615385
0.4615385
0.4615385
0.4615385
0.4615385
0.4615385
0.4615385
0.4615385
0.4615385
0.4615385
0.4615385
0.4615385
)
;
        value           nonuniform List<scalar> 
100
(
1174.708
1174.841
1174.885
1174.866
1174.847
1174.832
1174.816
1174.799
1174.781
1174.763
1174.745
1174.727
1174.709
1174.691
1174.673
1174.655
1174.637
1174.619
1174.601
1174.583
1174.564
1174.546
1174.528
1174.51
1174.491
1174.473
1174.455
1174.437
1174.418
1174.4
1174.382
1174.364
1174.345
1174.327
1174.309
1174.291
1174.272
1174.254
1174.236
1174.217
1174.199
1174.181
1174.163
1174.144
1174.126
1174.108
1174.089
1174.071
1174.053
1174.034
1174.016
1173.998
1173.98
1173.961
1173.943
1173.925
1173.906
1173.888
1173.87
1173.851
1173.833
1173.815
1173.796
1173.778
1173.76
1173.741
1173.723
1173.704
1173.686
1173.668
1173.649
1173.631
1173.613
1173.594
1173.576
1173.558
1173.539
1173.521
1173.502
1173.484
1173.466
1173.447
1173.429
1173.411
1173.392
1173.374
1173.356
1173.337
1173.319
1173.301
1173.282
1173.264
1173.246
1173.228
1173.21
1173.192
1173.175
1173.158
1173.142
1173.128
)
;
        Tnbr            T;
        thicknessLayers 0();
        kappaLayers     0();
        kappa           solidThermo;
        kappaName       none;
    }
    wall_to_topAir
    {
        type            compressible::turbulentTemperatureCoupledBaffleMixed;
        refValue        nonuniform List<scalar> 
100
(
299.9439
299.9883
300.0119
300.0231
300.0358
300.0498
300.0636
300.0773
300.091
300.1047
300.1184
300.1322
300.1459
300.1596
300.1733
300.1871
300.2008
300.2145
300.2283
300.242
300.2557
300.2695
300.2832
300.297
300.3107
300.3245
300.3382
300.352
300.3657
300.3795
300.3932
300.407
300.4207
300.4345
300.4483
300.462
300.4758
300.4896
300.5033
300.5171
300.5309
300.5447
300.5585
300.5722
300.586
300.5998
300.6136
300.6274
300.6412
300.655
300.6688
300.6826
300.6964
300.7102
300.724
300.7378
300.7516
300.7654
300.7792
300.793
300.8068
300.8206
300.8345
300.8483
300.8621
300.8759
300.8898
300.9036
300.9174
300.9312
300.9451
300.9589
300.9728
300.9866
301.0004
301.0143
301.0281
301.042
301.0558
301.0697
301.0835
301.0974
301.1112
301.1251
301.139
301.1528
301.1667
301.1806
301.1944
301.2083
301.2222
301.236
301.2499
301.2638
301.2777
301.2915
301.3054
301.3193
301.3332
301.347
)
;
        refGradient     uniform 0;
        valueFraction   nonuniform List<scalar> 
100
(
0.4615385
0.4615385
0.4615385
0.4615385
0.4615385
0.4615385
0.4615385
0.4615385
0.4615385
0.4615385
0.4615385
0.4615385
0.4615385
0.4615385
0.4615385
0.4615385
0.4615385
0.4615385
0.4615385
0.4615385
0.4615385
0.4615385
0.4615385
0.4615385
0.4615385
0.4615385
0.4615385
0.4615385
0.4615385
0.4615385
0.4615385
0.4615385
0.4615385
0.4615385
0.4615385
0.4615385
0.4615385
0.4615385
0.4615385
0.4615385
0.4615385
0.4615385
0.4615385
0.4615385
0.4615385
0.4615385
0.4615385
0.4615385
0.4615385
0.4615385
0.4615385
0.4615385
0.4615385
0.4615385
0.4615385
0.4615385
0.4615385
0.4615385
0.4615385
0.4615385
0.4615385
0.4615385
0.4615385
0.4615385
0.4615385
0.4615385
0.4615385
0.4615385
0.4615385
0.4615385
0.4615385
0.4615385
0.4615385
0.4615385
0.4615385
0.4615385
0.4615385
0.4615385
0.4615385
0.4615385
0.4615385
0.4615385
0.4615385
0.4615385
0.4615385
0.4615385
0.4615385
0.4615385
0.4615385
0.4615385
0.4615385
0.4615385
0.4615385
0.4615385
0.4615385
0.4615385
0.4615385
0.4615385
0.4615385
0.4615385
)
;
        value           nonuniform List<scalar> 
100
(
324.7581
324.7874
324.8064
324.8181
324.8303
324.8432
324.856
324.8689
324.8817
324.8946
324.9075
324.9205
324.9334
324.9463
324.9592
324.9722
324.9851
324.998
325.011
325.0239
325.0368
325.0498
325.0627
325.0756
325.0886
325.1015
325.1144
325.1273
325.1403
325.1532
325.1661
325.1791
325.192
325.2049
325.2179
325.2308
325.2437
325.2567
325.2696
325.2826
325.2955
325.3084
325.3214
325.3343
325.3473
325.3602
325.3732
325.3862
325.3991
325.4121
325.425
325.438
325.451
325.4639
325.4769
325.4899
325.5028
325.5158
325.5288
325.5418
325.5548
325.5677
325.5807
325.5937
325.6067
325.6197
325.6327
325.6457
325.6587
325.6717
325.6847
325.6977
325.7107
325.7237
325.7367
325.7497
325.7627
325.7757
325.7888
325.8018
325.8148
325.8278
325.8409
325.8539
325.8669
325.8799
325.893
325.906
325.919
325.932
325.945
325.958
325.9709
325.9837
325.9965
326.0091
326.0215
326.0336
326.0449
326.0546
)
;
        Tnbr            T;
        thicknessLayers 0();
        kappaLayers     0();
        kappa           solidThermo;
        kappaName       none;
    }
}


// ************************************************************************* //
