/*--------------------------------*- C++ -*----------------------------------*\
| =========                 |                                                 |
| \\      /  F ield         | OpenFOAM: The Open Source CFD Toolbox           |
|  \\    /   O peration     | Version:  2.3.0                                 |
|   \\  /    A nd           | Web:      www.OpenFOAM.org                      |
|    \\/     M anipulation  |                                                 |
\*---------------------------------------------------------------------------*/
FoamFile
{
    version     2.0;
    format      ascii;
    class       volVectorField;
    location    "10000/bottomAir";
    object      U;
}
// * * * * * * * * * * * * * * * * * * * * * * * * * * * * * * * * * * * * * //

dimensions      [0 1 -1 0 0 0 0];

internalField   nonuniform List<vector> 
4000
(
(33.48833 -0.003039892 0)
(25.32961 -0.001526313 0)
(22.0372 -0.0006084471 0)
(22.91179 -0.000469763 0)
(23.24571 -0.0003457225 0)
(23.1524 -0.0002361086 0)
(23.11882 -0.0001816548 0)
(23.12896 -0.0001530154 0)
(23.13252 -0.0001342557 0)
(23.1316 -0.0001224657 0)
(23.1314 -0.0001155631 0)
(23.13167 -0.0001116336 0)
(23.13186 -0.0001095989 0)
(23.13201 -0.0001088486 0)
(23.13218 -0.0001089764 0)
(23.13236 -0.0001097006 0)
(23.13254 -0.0001108307 0)
(23.13273 -0.0001122329 0)
(23.13293 -0.0001138112 0)
(23.13314 -0.000115496 0)
(23.13335 -0.0001172357 0)
(23.13356 -0.0001189927 0)
(23.13378 -0.0001207381 0)
(23.13401 -0.0001224517 0)
(23.13424 -0.0001241174 0)
(23.13448 -0.0001257246 0)
(23.13472 -0.0001272647 0)
(23.13497 -0.0001287328 0)
(23.13522 -0.0001301249 0)
(23.13547 -0.0001314394 0)
(23.13573 -0.0001326751 0)
(23.13599 -0.0001338322 0)
(23.13625 -0.0001349112 0)
(23.13652 -0.0001359136 0)
(23.13678 -0.0001368406 0)
(23.13705 -0.0001376941 0)
(23.13733 -0.000138476 0)
(23.1376 -0.0001391884 0)
(23.13788 -0.000139833 0)
(23.13816 -0.000140412 0)
(23.13844 -0.0001409271 0)
(23.13872 -0.00014138 0)
(23.139 -0.0001417724 0)
(23.13928 -0.0001421055 0)
(23.13957 -0.0001423807 0)
(23.13985 -0.0001425988 0)
(23.14014 -0.0001427607 0)
(23.14042 -0.0001428668 0)
(23.14071 -0.0001429175 0)
(23.141 -0.0001429127 0)
(23.14128 -0.0001428524 0)
(23.14157 -0.0001427358 0)
(23.14185 -0.0001425624 0)
(23.14214 -0.0001423308 0)
(23.14243 -0.0001420401 0)
(23.14271 -0.0001416882 0)
(23.14299 -0.0001412736 0)
(23.14328 -0.0001407937 0)
(23.14356 -0.0001402463 0)
(23.14384 -0.0001396283 0)
(23.14412 -0.0001389369 0)
(23.1444 -0.0001381683 0)
(23.14468 -0.0001373192 0)
(23.14495 -0.0001363852 0)
(23.14522 -0.0001353624 0)
(23.14549 -0.000134246 0)
(23.14576 -0.0001330313 0)
(23.14603 -0.0001317131 0)
(23.14629 -0.0001302863 0)
(23.14655 -0.0001287453 0)
(23.1468 -0.0001270848 0)
(23.14706 -0.0001252986 0)
(23.14731 -0.0001233813 0)
(23.14755 -0.0001213267 0)
(23.14779 -0.0001191294 0)
(23.14802 -0.0001167833 0)
(23.14825 -0.0001142832 0)
(23.14848 -0.0001116235 0)
(23.1487 -0.0001087997 0)
(23.14891 -0.0001058069 0)
(23.14911 -0.0001026415 0)
(23.14931 -9.929992e-05 0)
(23.1495 -9.577993e-05 0)
(23.14969 -9.207959e-05 0)
(23.14986 -8.819854e-05 0)
(23.15003 -8.413696e-05 0)
(23.15019 -7.989677e-05 0)
(23.15034 -7.54807e-05 0)
(23.15048 -7.08934e-05 0)
(23.15061 -6.614049e-05 0)
(23.15073 -6.12297e-05 0)
(23.15084 -5.616997e-05 0)
(23.15094 -5.097262e-05 0)
(23.15103 -4.565086e-05 0)
(23.1511 -4.022156e-05 0)
(23.15117 -3.470715e-05 0)
(23.15122 -2.914047e-05 0)
(23.15126 -2.358517e-05 0)
(23.15129 -1.813579e-05 0)
(23.15131 -1.31759e-05 0)
(33.48298 -0.003794995 0)
(25.32703 -0.001642249 0)
(22.03259 -0.0004917501 0)
(22.90656 -0.000404719 0)
(23.24054 -0.0003053675 0)
(23.14714 -0.000205262 0)
(23.11347 -0.0001717681 0)
(23.12359 -0.0001664319 0)
(23.12713 -0.0001685203 0)
(23.1262 -0.0001757917 0)
(23.126 -0.0001865273 0)
(23.12627 -0.0001987927 0)
(23.12646 -0.0002116225 0)
(23.12661 -0.0002245726 0)
(23.12679 -0.0002373696 0)
(23.12697 -0.0002498405 0)
(23.12716 -0.0002618869 0)
(23.12735 -0.0002734523 0)
(23.12755 -0.0002845061 0)
(23.12776 -0.0002950334 0)
(23.12798 -0.0003050301 0)
(23.1282 -0.0003144995 0)
(23.12842 -0.0003234499 0)
(23.12866 -0.0003318929 0)
(23.12889 -0.0003398423 0)
(23.12913 -0.0003473141 0)
(23.12938 -0.0003543246 0)
(23.12963 -0.0003608913 0)
(23.12988 -0.0003670317 0)
(23.13014 -0.0003727636 0)
(23.1304 -0.0003781043 0)
(23.13067 -0.0003830708 0)
(23.13094 -0.0003876799 0)
(23.13121 -0.0003919475 0)
(23.13148 -0.0003958888 0)
(23.13175 -0.0003995184 0)
(23.13203 -0.00040285 0)
(23.13231 -0.0004058964 0)
(23.13259 -0.0004086695 0)
(23.13287 -0.0004111804 0)
(23.13316 -0.000413439 0)
(23.13344 -0.0004154544 0)
(23.13373 -0.0004172348 0)
(23.13402 -0.0004187873 0)
(23.13431 -0.0004201181 0)
(23.1346 -0.0004212324 0)
(23.13489 -0.0004221344 0)
(23.13518 -0.0004228274 0)
(23.13547 -0.0004233136 0)
(23.13576 -0.0004235945 0)
(23.13605 -0.0004236704 0)
(23.13634 -0.0004235407 0)
(23.13663 -0.0004232039 0)
(23.13692 -0.0004226574 0)
(23.13721 -0.0004218979 0)
(23.1375 -0.0004209209 0)
(23.13779 -0.0004197211 0)
(23.13808 -0.000418292 0)
(23.13837 -0.0004166266 0)
(23.13865 -0.0004147166 0)
(23.13894 -0.0004125528 0)
(23.13922 -0.0004101251 0)
(23.1395 -0.0004074226 0)
(23.13978 -0.0004044334 0)
(23.14006 -0.0004011448 0)
(23.14033 -0.0003975433 0)
(23.1406 -0.0003936144 0)
(23.14087 -0.0003893431 0)
(23.14114 -0.0003847138 0)
(23.1414 -0.00037971 0)
(23.14166 -0.0003743151 0)
(23.14192 -0.0003685118 0)
(23.14217 -0.000362283 0)
(23.14242 -0.000355611 0)
(23.14267 -0.0003484787 0)
(23.14291 -0.0003408689 0)
(23.14314 -0.0003327653 0)
(23.14337 -0.0003241521 0)
(23.14359 -0.0003150146 0)
(23.14381 -0.0003053395 0)
(23.14402 -0.0002951152 0)
(23.14422 -0.0002843319 0)
(23.14442 -0.0002729822 0)
(23.14461 -0.0002610614 0)
(23.14479 -0.0002485676 0)
(23.14496 -0.0002355025 0)
(23.14512 -0.0002218712 0)
(23.14528 -0.0002076829 0)
(23.14542 -0.0001929511 0)
(23.14556 -0.0001776936 0)
(23.14568 -0.0001619329 0)
(23.1458 -0.0001456966 0)
(23.1459 -0.0001290173 0)
(23.14599 -0.000111933 0)
(23.14607 -9.448824e-05 0)
(23.14614 -7.673576e-05 0)
(23.1462 -5.87396e-05 0)
(23.14625 -4.059122e-05 0)
(23.14628 -2.240232e-05 0)
(23.1463 -4.50623e-06 0)
(33.48282 -0.001449352 0)
(25.32818 -0.0007360483 0)
(22.03314 -0.0003879581 0)
(22.90684 -0.0004016504 0)
(23.24085 -0.0003868491 0)
(23.14746 -0.0003540514 0)
(23.11377 -0.0003446793 0)
(23.12388 -0.0003482671 0)
(23.12743 -0.0003562474 0)
(23.12651 -0.0003676982 0)
(23.12631 -0.0003818466 0)
(23.12657 -0.0003975793 0)
(23.12677 -0.0004141691 0)
(23.12692 -0.0004311716 0)
(23.12709 -0.00044826 0)
(23.12727 -0.0004651939 0)
(23.12746 -0.0004818016 0)
(23.12766 -0.000497961 0)
(23.12786 -0.0005135858 0)
(23.12807 -0.0005286157 0)
(23.12828 -0.0005430111 0)
(23.1285 -0.0005567473 0)
(23.12873 -0.0005698118 0)
(23.12896 -0.0005822009 0)
(23.1292 -0.0005939185 0)
(23.12944 -0.0006049731 0)
(23.12968 -0.000615378 0)
(23.12993 -0.0006251492 0)
(23.13018 -0.0006343053 0)
(23.13044 -0.0006428658 0)
(23.1307 -0.0006508518 0)
(23.13097 -0.0006582845 0)
(23.13123 -0.0006651854 0)
(23.1315 -0.0006715757 0)
(23.13177 -0.0006774762 0)
(23.13205 -0.0006829069 0)
(23.13232 -0.000687887 0)
(23.1326 -0.0006924348 0)
(23.13288 -0.0006965674 0)
(23.13316 -0.0007003007 0)
(23.13345 -0.0007036493 0)
(23.13373 -0.0007066265 0)
(23.13402 -0.0007092443 0)
(23.1343 -0.0007115131 0)
(23.13459 -0.000713442 0)
(23.13488 -0.0007150388 0)
(23.13517 -0.0007163094 0)
(23.13546 -0.0007172586 0)
(23.13575 -0.0007178894 0)
(23.13604 -0.0007182037 0)
(23.13633 -0.0007182014 0)
(23.13661 -0.0007178812 0)
(23.1369 -0.0007172402 0)
(23.13719 -0.0007162739 0)
(23.13748 -0.0007149763 0)
(23.13777 -0.0007133399 0)
(23.13806 -0.0007113554 0)
(23.13835 -0.0007090123 0)
(23.13863 -0.0007062983 0)
(23.13892 -0.0007031996 0)
(23.1392 -0.0006997009 0)
(23.13948 -0.0006957853 0)
(23.13976 -0.0006914342 0)
(23.14004 -0.0006866281 0)
(23.14032 -0.0006813453 0)
(23.14059 -0.0006755634 0)
(23.14086 -0.0006692581 0)
(23.14113 -0.0006624043 0)
(23.1414 -0.0006549756 0)
(23.14166 -0.0006469446 0)
(23.14192 -0.0006382832 0)
(23.14217 -0.0006289626 0)
(23.14243 -0.0006189536 0)
(23.14267 -0.0006082268 0)
(23.14292 -0.000596753 0)
(23.14316 -0.0005845035 0)
(23.14339 -0.0005714503 0)
(23.14362 -0.0005575671 0)
(23.14384 -0.0005428285 0)
(23.14406 -0.0005272123 0)
(23.14427 -0.000510698 0)
(23.14447 -0.0004932692 0)
(23.14466 -0.0004749128 0)
(23.14485 -0.0004556204 0)
(23.14503 -0.0004353883 0)
(23.1452 -0.0004142186 0)
(23.14537 -0.0003921195 0)
(23.14552 -0.0003691057 0)
(23.14566 -0.000345199 0)
(23.1458 -0.0003204287 0)
(23.14592 -0.0002948319 0)
(23.14604 -0.0002684538 0)
(23.14614 -0.0002413476 0)
(23.14623 -0.0002135749 0)
(23.14631 -0.0001852055 0)
(23.14638 -0.0001563173 0)
(23.14643 -0.0001269945 0)
(23.14648 -9.732451e-05 0)
(23.14651 -6.738501e-05 0)
(23.14653 -3.719896e-05 0)
(33.48243 -0.0009997946 0)
(25.32871 -0.0008478425 0)
(22.03369 -0.000643052 0)
(22.9073 -0.0005803807 0)
(23.24131 -0.0005350545 0)
(23.1479 -0.0004926851 0)
(23.1142 -0.0004712287 0)
(23.12429 -0.0004673227 0)
(23.12783 -0.000473813 0)
(23.12689 -0.0004873507 0)
(23.12669 -0.0005058487 0)
(23.12695 -0.0005275193 0)
(23.12714 -0.0005510574 0)
(23.12729 -0.0005755743 0)
(23.12746 -0.0006004456 0)
(23.12764 -0.0006252268 0)
(23.12783 -0.0006496054 0)
(23.12802 -0.0006733631 0)
(23.12822 -0.0006963493 0)
(23.12843 -0.0007184621 0)
(23.12865 -0.0007396357 0)
(23.12887 -0.000759831 0)
(23.12909 -0.0007790284 0)
(23.12932 -0.0007972237 0)
(23.12956 -0.0008144235 0)
(23.1298 -0.0008306426 0)
(23.13005 -0.0008459023 0)
(23.1303 -0.0008602281 0)
(23.13055 -0.0008736486 0)
(23.13081 -0.0008861945 0)
(23.13107 -0.0008978976 0)
(23.13133 -0.0009087905 0)
(23.1316 -0.0009189052 0)
(23.13187 -0.0009282737 0)
(23.13214 -0.0009369269 0)
(23.13242 -0.0009448945 0)
(23.13269 -0.000952205 0)
(23.13297 -0.0009588851 0)
(23.13325 -0.0009649601 0)
(23.13353 -0.0009704532 0)
(23.13382 -0.0009753857 0)
(23.1341 -0.000979777 0)
(23.13439 -0.0009836446 0)
(23.13467 -0.0009870036 0)
(23.13496 -0.0009898674 0)
(23.13525 -0.0009922468 0)
(23.13554 -0.000994151 0)
(23.13583 -0.0009955867 0)
(23.13612 -0.0009965585 0)
(23.13641 -0.000997069 0)
(23.1367 -0.0009971185 0)
(23.13699 -0.0009967052 0)
(23.13728 -0.0009958251 0)
(23.13757 -0.0009944721 0)
(23.13786 -0.0009926378 0)
(23.13814 -0.0009903116 0)
(23.13843 -0.0009874809 0)
(23.13872 -0.0009841307 0)
(23.13901 -0.0009802439 0)
(23.13929 -0.0009758012 0)
(23.13957 -0.0009707811 0)
(23.13986 -0.00096516 0)
(23.14014 -0.0009589122 0)
(23.14042 -0.0009520096 0)
(23.14069 -0.0009444225 0)
(23.14097 -0.0009361189 0)
(23.14124 -0.0009270652 0)
(23.14151 -0.0009172259 0)
(23.14177 -0.000906564 0)
(23.14204 -0.000895041 0)
(23.1423 -0.0008826174 0)
(23.14255 -0.0008692525 0)
(23.14281 -0.0008549052 0)
(23.14306 -0.0008395342 0)
(23.1433 -0.0008230983 0)
(23.14354 -0.0008055568 0)
(23.14377 -0.0007868702 0)
(23.144 -0.0007670009 0)
(23.14423 -0.0007459135 0)
(23.14444 -0.0007235755 0)
(23.14465 -0.0006999584 0)
(23.14486 -0.0006750382 0)
(23.14505 -0.0006487962 0)
(23.14524 -0.0006212198 0)
(23.14542 -0.0005923035 0)
(23.1456 -0.0005620497 0)
(23.14576 -0.0005304692 0)
(23.14591 -0.0004975823 0)
(23.14606 -0.0004634193 0)
(23.14619 -0.0004280209 0)
(23.14632 -0.0003914389 0)
(23.14643 -0.0003537364 0)
(23.14654 -0.0003149879 0)
(23.14663 -0.0002752792 0)
(23.14671 -0.0002347077 0)
(23.14678 -0.0001933815 0)
(23.14683 -0.0001514188 0)
(23.14688 -0.0001089486 0)
(23.14691 -6.609712e-05 0)
(23.14693 -2.303354e-05 0)
(33.4823 -0.0005587358 0)
(25.32906 -0.0005297991 0)
(22.03403 -0.0004540164 0)
(22.90755 -0.0004548185 0)
(23.24153 -0.0004700428 0)
(23.14811 -0.0004843576 0)
(23.11439 -0.0005058404 0)
(23.12447 -0.000534451 0)
(23.128 -0.000566923 0)
(23.12707 -0.0006015576 0)
(23.12686 -0.0006374607 0)
(23.12712 -0.0006738621 0)
(23.12731 -0.00071016 0)
(23.12746 -0.0007459369 0)
(23.12763 -0.0007808983 0)
(23.12782 -0.0008148329 0)
(23.12801 -0.0008475923 0)
(23.1282 -0.0008790758 0)
(23.12841 -0.0009092186 0)
(23.12862 -0.000937983 0)
(23.12883 -0.0009653524 0)
(23.12905 -0.0009913263 0)
(23.12928 -0.001015917 0)
(23.12952 -0.001039146 0)
(23.12975 -0.001061044 0)
(23.13 -0.001081645 0)
(23.13024 -0.001100989 0)
(23.13049 -0.001119117 0)
(23.13075 -0.001136074 0)
(23.13101 -0.001151906 0)
(23.13127 -0.001166656 0)
(23.13153 -0.001180371 0)
(23.1318 -0.001193095 0)
(23.13207 -0.001204871 0)
(23.13235 -0.001215739 0)
(23.13262 -0.001225741 0)
(23.1329 -0.001234913 0)
(23.13318 -0.001243291 0)
(23.13346 -0.001250908 0)
(23.13374 -0.001257794 0)
(23.13402 -0.001263979 0)
(23.13431 -0.001269485 0)
(23.1346 -0.001274338 0)
(23.13488 -0.001278556 0)
(23.13517 -0.001282157 0)
(23.13546 -0.001285156 0)
(23.13575 -0.001287563 0)
(23.13604 -0.001289388 0)
(23.13633 -0.001290638 0)
(23.13662 -0.001291316 0)
(23.13691 -0.001291421 0)
(23.1372 -0.001290953 0)
(23.13749 -0.001289906 0)
(23.13778 -0.001288272 0)
(23.13807 -0.001286042 0)
(23.13836 -0.0012832 0)
(23.13865 -0.001279732 0)
(23.13894 -0.001275617 0)
(23.13922 -0.001270835 0)
(23.13951 -0.00126536 0)
(23.13979 -0.001259165 0)
(23.14008 -0.001252218 0)
(23.14036 -0.001244488 0)
(23.14064 -0.001235938 0)
(23.14092 -0.001226529 0)
(23.14119 -0.00121622 0)
(23.14146 -0.001204969 0)
(23.14173 -0.001192727 0)
(23.142 -0.001179449 0)
(23.14227 -0.001165083 0)
(23.14253 -0.001149579 0)
(23.14278 -0.001132883 0)
(23.14304 -0.001114942 0)
(23.14329 -0.001095702 0)
(23.14353 -0.001075109 0)
(23.14377 -0.00105311 0)
(23.14401 -0.001029652 0)
(23.14424 -0.001004686 0)
(23.14447 -0.0009781649 0)
(23.14468 -0.0009500461 0)
(23.1449 -0.0009202911 0)
(23.1451 -0.0008888673 0)
(23.1453 -0.0008557491 0)
(23.14549 -0.0008209188 0)
(23.14567 -0.0007843676 0)
(23.14585 -0.0007460971 0)
(23.14601 -0.0007061196 0)
(23.14617 -0.00066446 0)
(23.14631 -0.0006211559 0)
(23.14645 -0.0005762588 0)
(23.14658 -0.0005298343 0)
(23.14669 -0.0004819627 0)
(23.1468 -0.0004327392 0)
(23.14689 -0.0003822734 0)
(23.14697 -0.0003306888 0)
(23.14704 -0.0002781221 0)
(23.1471 -0.0002247205 0)
(23.14714 -0.0001706427 0)
(23.14717 -0.0001160406 0)
(23.1472 -6.113148e-05 0)
(33.48212 -0.0004117239 0)
(25.32912 -0.0005010976 0)
(22.03412 -0.0005232466 0)
(22.90762 -0.0005617063 0)
(23.24161 -0.0005967334 0)
(23.14821 -0.0006255289 0)
(23.11449 -0.0006549923 0)
(23.12457 -0.0006876874 0)
(23.1281 -0.0007231769 0)
(23.12716 -0.0007608136 0)
(23.12695 -0.0008000547 0)
(23.12721 -0.0008402973 0)
(23.12741 -0.0008809553 0)
(23.12756 -0.0009215327 0)
(23.12773 -0.0009616273 0)
(23.12791 -0.001000919 0)
(23.1281 -0.001039161 0)
(23.1283 -0.001076166 0)
(23.1285 -0.001111798 0)
(23.12872 -0.001145964 0)
(23.12893 -0.001178604 0)
(23.12916 -0.001209683 0)
(23.12939 -0.00123919 0)
(23.12962 -0.001267129 0)
(23.12986 -0.001293519 0)
(23.1301 -0.001318388 0)
(23.13035 -0.001341772 0)
(23.1306 -0.001363714 0)
(23.13086 -0.001384258 0)
(23.13112 -0.001403455 0)
(23.13138 -0.001421353 0)
(23.13165 -0.001438003 0)
(23.13192 -0.001453457 0)
(23.13219 -0.001467762 0)
(23.13246 -0.001480968 0)
(23.13274 -0.00149312 0)
(23.13301 -0.001504262 0)
(23.13329 -0.001514435 0)
(23.13358 -0.001523679 0)
(23.13386 -0.00153203 0)
(23.13414 -0.001539519 0)
(23.13443 -0.001546178 0)
(23.13472 -0.001552033 0)
(23.135 -0.001557107 0)
(23.13529 -0.001561421 0)
(23.13558 -0.001564991 0)
(23.13587 -0.001567831 0)
(23.13616 -0.001569952 0)
(23.13645 -0.001571361 0)
(23.13675 -0.001572061 0)
(23.13704 -0.001572052 0)
(23.13733 -0.001571332 0)
(23.13762 -0.001569895 0)
(23.13791 -0.001567729 0)
(23.1382 -0.001564823 0)
(23.13849 -0.001561159 0)
(23.13878 -0.001556718 0)
(23.13907 -0.001551475 0)
(23.13935 -0.001545405 0)
(23.13964 -0.001538476 0)
(23.13993 -0.001530655 0)
(23.14021 -0.001521904 0)
(23.14049 -0.001512182 0)
(23.14077 -0.001501446 0)
(23.14105 -0.001489649 0)
(23.14133 -0.001476739 0)
(23.1416 -0.001462663 0)
(23.14187 -0.001447364 0)
(23.14214 -0.001430785 0)
(23.14241 -0.001412862 0)
(23.14267 -0.001393534 0)
(23.14293 -0.001372733 0)
(23.14318 -0.001350395 0)
(23.14343 -0.001326452 0)
(23.14368 -0.001300838 0)
(23.14392 -0.001273486 0)
(23.14416 -0.001244331 0)
(23.14439 -0.001213311 0)
(23.14462 -0.001180367 0)
(23.14484 -0.001145445 0)
(23.14505 -0.001108497 0)
(23.14526 -0.00106948 0)
(23.14546 -0.001028363 0)
(23.14565 -0.0009851199 0)
(23.14584 -0.0009397397 0)
(23.14601 -0.000892222 0)
(23.14618 -0.0008425806 0)
(23.14634 -0.0007908442 0)
(23.14648 -0.0007370577 0)
(23.14662 -0.0006812831 0)
(23.14675 -0.0006236002 0)
(23.14687 -0.0005641071 0)
(23.14697 -0.0005029204 0)
(23.14707 -0.0004401747 0)
(23.14715 -0.0003760223 0)
(23.14722 -0.0003106321 0)
(23.14728 -0.0002441868 0)
(23.14732 -0.0001768857 0)
(23.14736 -0.000108922 0)
(23.14738 -4.057891e-05 0)
(33.48201 -0.000301397 0)
(25.32917 -0.0004139867 0)
(22.03421 -0.0004664616 0)
(22.9077 -0.0005231926 0)
(23.24169 -0.000579078 0)
(23.14828 -0.0006320369 0)
(23.11456 -0.0006849803 0)
(23.12464 -0.0007393839 0)
(23.12816 -0.0007949745 0)
(23.12722 -0.000851117 0)
(23.12701 -0.000907276 0)
(23.12727 -0.000962965 0)
(23.12746 -0.001017743 0)
(23.12761 -0.00107125 0)
(23.12778 -0.001123206 0)
(23.12797 -0.001173402 0)
(23.12816 -0.001221686 0)
(23.12836 -0.001267957 0)
(23.12857 -0.001312151 0)
(23.12878 -0.001354236 0)
(23.129 -0.001394207 0)
(23.12922 -0.001432079 0)
(23.12945 -0.001467881 0)
(23.12969 -0.001501656 0)
(23.12993 -0.001533456 0)
(23.13018 -0.00156334 0)
(23.13043 -0.001591373 0)
(23.13068 -0.001617621 0)
(23.13094 -0.001642154 0)
(23.1312 -0.001665042 0)
(23.13146 -0.001686356 0)
(23.13173 -0.001706163 0)
(23.132 -0.001724531 0)
(23.13227 -0.001741526 0)
(23.13255 -0.001757208 0)
(23.13283 -0.001771639 0)
(23.13311 -0.001784874 0)
(23.13339 -0.001796966 0)
(23.13367 -0.001807964 0)
(23.13395 -0.001817912 0)
(23.13424 -0.001826853 0)
(23.13453 -0.001834823 0)
(23.13481 -0.001841857 0)
(23.1351 -0.001847983 0)
(23.13539 -0.001853227 0)
(23.13568 -0.00185761 0)
(23.13597 -0.00186115 0)
(23.13627 -0.001863859 0)
(23.13656 -0.001865747 0)
(23.13685 -0.001866819 0)
(23.13714 -0.001867076 0)
(23.13743 -0.001866515 0)
(23.13773 -0.001865129 0)
(23.13802 -0.001862908 0)
(23.13831 -0.001859834 0)
(23.1386 -0.00185589 0)
(23.13889 -0.001851052 0)
(23.13918 -0.001845293 0)
(23.13947 -0.00183858 0)
(23.13975 -0.001830878 0)
(23.14004 -0.001822146 0)
(23.14032 -0.001812341 0)
(23.14061 -0.001801414 0)
(23.14089 -0.001789314 0)
(23.14117 -0.001775983 0)
(23.14145 -0.001761361 0)
(23.14172 -0.001745385 0)
(23.14199 -0.001727988 0)
(23.14226 -0.001709098 0)
(23.14253 -0.001688642 0)
(23.14279 -0.001666544 0)
(23.14306 -0.001642726 0)
(23.14331 -0.001617107 0)
(23.14357 -0.001589607 0)
(23.14381 -0.001560144 0)
(23.14406 -0.001528639 0)
(23.1443 -0.001495012 0)
(23.14453 -0.001459187 0)
(23.14476 -0.001421092 0)
(23.14498 -0.001380659 0)
(23.1452 -0.001337828 0)
(23.14541 -0.001292546 0)
(23.14561 -0.001244771 0)
(23.14581 -0.001194471 0)
(23.14599 -0.001141629 0)
(23.14617 -0.00108624 0)
(23.14634 -0.001028319 0)
(23.1465 -0.0009678954 0)
(23.14665 -0.0009050207 0)
(23.14679 -0.0008397661 0)
(23.14692 -0.0007722245 0)
(23.14704 -0.0007025112 0)
(23.14715 -0.0006307636 0)
(23.14724 -0.0005571416 0)
(23.14733 -0.0004818261 0)
(23.1474 -0.0004050184 0)
(23.14746 -0.0003269369 0)
(23.1475 -0.0002478196 0)
(23.14754 -0.0001678983 0)
(23.14756 -8.751407e-05 0)
(33.48189 -0.0002614485 0)
(25.32913 -0.000405815 0)
(22.0342 -0.00049432 0)
(22.9077 -0.0005797162 0)
(23.24169 -0.0006611939 0)
(23.14829 -0.0007365948 0)
(23.11457 -0.0008078615 0)
(23.12465 -0.00087692 0)
(23.12818 -0.000944472 0)
(23.12724 -0.001010643 0)
(23.12703 -0.001075442 0)
(23.12729 -0.001138797 0)
(23.12748 -0.001200562 0)
(23.12764 -0.001260571 0)
(23.12781 -0.001318668 0)
(23.128 -0.001374719 0)
(23.12819 -0.001428614 0)
(23.12839 -0.001480273 0)
(23.1286 -0.001529641 0)
(23.12882 -0.001576691 0)
(23.12904 -0.001621414 0)
(23.12927 -0.001663824 0)
(23.1295 -0.001703949 0)
(23.12974 -0.001741829 0)
(23.12998 -0.001777518 0)
(23.13023 -0.001811074 0)
(23.13048 -0.001842565 0)
(23.13074 -0.001872062 0)
(23.13099 -0.001899636 0)
(23.13126 -0.001925364 0)
(23.13152 -0.001949319 0)
(23.13179 -0.001971578 0)
(23.13206 -0.001992212 0)
(23.13234 -0.002011292 0)
(23.13261 -0.002028887 0)
(23.13289 -0.002045061 0)
(23.13317 -0.002059876 0)
(23.13346 -0.002073389 0)
(23.13374 -0.002085655 0)
(23.13402 -0.002096723 0)
(23.13431 -0.002106639 0)
(23.1346 -0.002115443 0)
(23.13489 -0.002123173 0)
(23.13518 -0.00212986 0)
(23.13547 -0.002135533 0)
(23.13576 -0.002140213 0)
(23.13605 -0.002143921 0)
(23.13634 -0.00214667 0)
(23.13663 -0.00214847 0)
(23.13693 -0.002149326 0)
(23.13722 -0.002149239 0)
(23.13751 -0.002148203 0)
(23.13781 -0.002146212 0)
(23.1381 -0.002143251 0)
(23.13839 -0.002139302 0)
(23.13868 -0.002134344 0)
(23.13897 -0.002128348 0)
(23.13926 -0.002121283 0)
(23.13955 -0.002113112 0)
(23.13984 -0.002103793 0)
(23.14013 -0.002093281 0)
(23.14041 -0.002081523 0)
(23.1407 -0.002068466 0)
(23.14098 -0.002054047 0)
(23.14126 -0.002038201 0)
(23.14154 -0.00202086 0)
(23.14181 -0.002001949 0)
(23.14209 -0.00198139 0)
(23.14236 -0.0019591 0)
(23.14263 -0.001934994 0)
(23.1429 -0.001908983 0)
(23.14316 -0.001880975 0)
(23.14342 -0.001850878 0)
(23.14367 -0.001818595 0)
(23.14392 -0.001784031 0)
(23.14417 -0.001747091 0)
(23.14441 -0.001707682 0)
(23.14465 -0.001665712 0)
(23.14488 -0.001621096 0)
(23.1451 -0.001573752 0)
(23.14532 -0.001523607 0)
(23.14553 -0.001470595 0)
(23.14574 -0.001414665 0)
(23.14594 -0.001355776 0)
(23.14612 -0.001293903 0)
(23.14631 -0.001229039 0)
(23.14648 -0.001161194 0)
(23.14664 -0.001090403 0)
(23.14679 -0.00101672 0)
(23.14694 -0.0009402257 0)
(23.14707 -0.0008610269 0)
(23.14719 -0.0007792558 0)
(23.1473 -0.0006950721 0)
(23.1474 -0.000608662 0)
(23.14748 -0.0005202377 0)
(23.14756 -0.0004300357 0)
(23.14762 -0.0003383139 0)
(23.14766 -0.000245355 0)
(23.1477 -0.0001514346 0)
(23.14772 -5.696128e-05 0)
(33.4818 -0.0002364566 0)
(25.3291 -0.0003937355 0)
(22.03419 -0.0004970291 0)
(22.90769 -0.0005949549 0)
(23.24169 -0.0006901913 0)
(23.14829 -0.0007802725 0)
(23.11457 -0.0008662395 0)
(23.12466 -0.0009497234 0)
(23.12818 -0.001031362 0)
(23.12725 -0.001111201 0)
(23.12704 -0.001189165 0)
(23.1273 -0.001265125 0)
(23.12749 -0.001338904 0)
(23.12765 -0.001410317 0)
(23.12783 -0.001479198 0)
(23.12802 -0.001545418 0)
(23.12821 -0.001608877 0)
(23.12842 -0.001669511 0)
(23.12863 -0.001727286 0)
(23.12884 -0.001782199 0)
(23.12907 -0.001834266 0)
(23.1293 -0.001883528 0)
(23.12953 -0.001930039 0)
(23.12977 -0.001973866 0)
(23.13002 -0.002015089 0)
(23.13027 -0.002053793 0)
(23.13052 -0.002090068 0)
(23.13078 -0.002124009 0)
(23.13104 -0.002155712 0)
(23.13131 -0.002185271 0)
(23.13157 -0.002212783 0)
(23.13184 -0.00223834 0)
(23.13212 -0.002262033 0)
(23.13239 -0.002283948 0)
(23.13267 -0.00230417 0)
(23.13295 -0.002322777 0)
(23.13323 -0.002339844 0)
(23.13352 -0.00235544 0)
(23.1338 -0.002369631 0)
(23.13409 -0.002382474 0)
(23.13438 -0.002394026 0)
(23.13467 -0.002404335 0)
(23.13496 -0.002413444 0)
(23.13525 -0.002421393 0)
(23.13554 -0.002428214 0)
(23.13583 -0.002433935 0)
(23.13612 -0.002438579 0)
(23.13642 -0.002442162 0)
(23.13671 -0.002444697 0)
(23.137 -0.00244619 0)
(23.1373 -0.002446643 0)
(23.13759 -0.002446052 0)
(23.13789 -0.002444407 0)
(23.13818 -0.002441693 0)
(23.13847 -0.002437892 0)
(23.13876 -0.002432977 0)
(23.13906 -0.002426918 0)
(23.13935 -0.002419679 0)
(23.13964 -0.002411218 0)
(23.13993 -0.002401487 0)
(23.14022 -0.002390436 0)
(23.1405 -0.002378004 0)
(23.14079 -0.00236413 0)
(23.14107 -0.002348743 0)
(23.14136 -0.002331769 0)
(23.14164 -0.002313129 0)
(23.14191 -0.002292737 0)
(23.14219 -0.002270503 0)
(23.14246 -0.002246334 0)
(23.14273 -0.00222013 0)
(23.143 -0.002191788 0)
(23.14327 -0.002161202 0)
(23.14353 -0.002128264 0)
(23.14379 -0.002092863 0)
(23.14404 -0.002054887 0)
(23.14429 -0.002014224 0)
(23.14453 -0.001970766 0)
(23.14477 -0.001924403 0)
(23.14501 -0.001875032 0)
(23.14523 -0.001822558 0)
(23.14546 -0.00176689 0)
(23.14567 -0.001707951 0)
(23.14588 -0.001645672 0)
(23.14608 -0.001580004 0)
(23.14627 -0.001510911 0)
(23.14646 -0.001438378 0)
(23.14663 -0.001362414 0)
(23.1468 -0.00128305 0)
(23.14695 -0.001200345 0)
(23.1471 -0.001114387 0)
(23.14723 -0.001025293 0)
(23.14736 -0.0009332133 0)
(23.14747 -0.0008383281 0)
(23.14757 -0.0007408507 0)
(23.14766 -0.0006410249 0)
(23.14773 -0.0005391243 0)
(23.1478 -0.0004354477 0)
(23.14784 -0.000330324 0)
(23.14788 -0.000224075 0)
(23.1479 -0.0001171774 0)
(33.48169 -0.0002326508 0)
(25.32903 -0.0004072907 0)
(22.03415 -0.0005285029 0)
(22.90765 -0.000644398 0)
(23.24166 -0.0007588691 0)
(23.14826 -0.0008680261 0)
(23.11455 -0.0009718599 0)
(23.12463 -0.001071682 0)
(23.12816 -0.001168099 0)
(23.12723 -0.00126123 0)
(23.12702 -0.001351135 0)
(23.12729 -0.001437846 0)
(23.12749 -0.001521344 0)
(23.12765 -0.001601586 0)
(23.12783 -0.00167853 0)
(23.12802 -0.001752146 0)
(23.12822 -0.001822417 0)
(23.12843 -0.001889345 0)
(23.12864 -0.001952952 0)
(23.12886 -0.002013274 0)
(23.12909 -0.002070366 0)
(23.12932 -0.002124297 0)
(23.12956 -0.002175146 0)
(23.1298 -0.002223003 0)
(23.13005 -0.002267964 0)
(23.1303 -0.002310132 0)
(23.13056 -0.002349612 0)
(23.13082 -0.002386513 0)
(23.13108 -0.002420941 0)
(23.13135 -0.002453005 0)
(23.13162 -0.002482811 0)
(23.13189 -0.00251046 0)
(23.13217 -0.002536054 0)
(23.13245 -0.002559687 0)
(23.13272 -0.002581451 0)
(23.13301 -0.002601431 0)
(23.13329 -0.00261971 0)
(23.13357 -0.002636363 0)
(23.13386 -0.00265146 0)
(23.13415 -0.002665066 0)
(23.13444 -0.002677239 0)
(23.13473 -0.002688033 0)
(23.13502 -0.002697496 0)
(23.13531 -0.002705668 0)
(23.1356 -0.002712585 0)
(23.1359 -0.002718278 0)
(23.13619 -0.00272277 0)
(23.13648 -0.002726079 0)
(23.13678 -0.002728219 0)
(23.13707 -0.002729196 0)
(23.13737 -0.002729011 0)
(23.13766 -0.002727658 0)
(23.13796 -0.002725129 0)
(23.13825 -0.002721406 0)
(23.13855 -0.002716466 0)
(23.13884 -0.002710282 0)
(23.13913 -0.00270282 0)
(23.13943 -0.002694039 0)
(23.13972 -0.002683892 0)
(23.14001 -0.002672329 0)
(23.1403 -0.002659289 0)
(23.14059 -0.002644709 0)
(23.14087 -0.002628517 0)
(23.14116 -0.002610635 0)
(23.14144 -0.002590982 0)
(23.14173 -0.002569467 0)
(23.14201 -0.002545995 0)
(23.14228 -0.002520466 0)
(23.14256 -0.002492772 0)
(23.14283 -0.002462802 0)
(23.1431 -0.002430439 0)
(23.14337 -0.002395564 0)
(23.14363 -0.002358052 0)
(23.14389 -0.002317778 0)
(23.14415 -0.002274612 0)
(23.1444 -0.002228428 0)
(23.14465 -0.002179097 0)
(23.14489 -0.002126494 0)
(23.14513 -0.002070499 0)
(23.14536 -0.002010998 0)
(23.14558 -0.001947886 0)
(23.1458 -0.001881066 0)
(23.14601 -0.001810459 0)
(23.14622 -0.001735999 0)
(23.14641 -0.00165764 0)
(23.1466 -0.00157536 0)
(23.14678 -0.00148916 0)
(23.14695 -0.00139907 0)
(23.14711 -0.001305151 0)
(23.14726 -0.001207496 0)
(23.1474 -0.001106235 0)
(23.14752 -0.001001534 0)
(23.14764 -0.0008935968 0)
(23.14774 -0.0007826636 0)
(23.14783 -0.0006690129 0)
(23.14791 -0.0005529581 0)
(23.14797 -0.000434843 0)
(23.14802 -0.0003150479 0)
(23.14806 -0.0001939454 0)
(23.14808 -7.20893e-05 0)
(33.48159 -0.0002354486 0)
(25.32896 -0.0004240488 0)
(22.0341 -0.000557693 0)
(22.90761 -0.0006858192 0)
(23.24162 -0.0008135875 0)
(23.14823 -0.00093624 0)
(23.11452 -0.001053252 0)
(23.12461 -0.001165848 0)
(23.12814 -0.001274601 0)
(23.12721 -0.001379606 0)
(23.12701 -0.001480909 0)
(23.12728 -0.001578542 0)
(23.12748 -0.001672483 0)
(23.12764 -0.00176269 0)
(23.12783 -0.001849119 0)
(23.12802 -0.001931742 0)
(23.12822 -0.002010547 0)
(23.12843 -0.002085543 0)
(23.12865 -0.00215676 0)
(23.12888 -0.002224248 0)
(23.12911 -0.002288076 0)
(23.12934 -0.00234833 0)
(23.12958 -0.002405106 0)
(23.12983 -0.002458513 0)
(23.13008 -0.002508669 0)
(23.13034 -0.002555694 0)
(23.13059 -0.002599714 0)
(23.13086 -0.002640857 0)
(23.13112 -0.00267925 0)
(23.13139 -0.002715018 0)
(23.13167 -0.002748286 0)
(23.13194 -0.002779172 0)
(23.13222 -0.002807792 0)
(23.1325 -0.002834257 0)
(23.13278 -0.002858672 0)
(23.13306 -0.002881135 0)
(23.13335 -0.002901741 0)
(23.13363 -0.002920576 0)
(23.13392 -0.002937719 0)
(23.13421 -0.002953246 0)
(23.1345 -0.002967222 0)
(23.13479 -0.002979709 0)
(23.13509 -0.002990759 0)
(23.13538 -0.00300042 0)
(23.13567 -0.003008732 0)
(23.13597 -0.00301573 0)
(23.13626 -0.00302144 0)
(23.13656 -0.003025883 0)
(23.13685 -0.003029074 0)
(23.13715 -0.00303102 0)
(23.13745 -0.003031722 0)
(23.13774 -0.003031176 0)
(23.13804 -0.00302937 0)
(23.13833 -0.003026286 0)
(23.13863 -0.003021899 0)
(23.13892 -0.003016177 0)
(23.13922 -0.003009083 0)
(23.13951 -0.003000572 0)
(23.13981 -0.002990592 0)
(23.1401 -0.002979085 0)
(23.14039 -0.002965986 0)
(23.14068 -0.002951223 0)
(23.14097 -0.002934717 0)
(23.14126 -0.00291638 0)
(23.14154 -0.002896121 0)
(23.14183 -0.002873838 0)
(23.14211 -0.002849426 0)
(23.14239 -0.00282277 0)
(23.14267 -0.00279375 0)
(23.14294 -0.002762242 0)
(23.14322 -0.002728112 0)
(23.14349 -0.002691226 0)
(23.14375 -0.002651441 0)
(23.14402 -0.002608614 0)
(23.14427 -0.002562598 0)
(23.14453 -0.002513246 0)
(23.14478 -0.00246041 0)
(23.14503 -0.002403946 0)
(23.14527 -0.002343712 0)
(23.1455 -0.002279574 0)
(23.14573 -0.002211406 0)
(23.14595 -0.002139094 0)
(23.14617 -0.002062538 0)
(23.14638 -0.001981656 0)
(23.14658 -0.001896388 0)
(23.14677 -0.001806699 0)
(23.14695 -0.00171258 0)
(23.14713 -0.001614055 0)
(23.14729 -0.001511185 0)
(23.14744 -0.001404067 0)
(23.14758 -0.001292839 0)
(23.14772 -0.001177683 0)
(23.14783 -0.001058823 0)
(23.14794 -0.0009365305 0)
(23.14803 -0.0008111175 0)
(23.14811 -0.0006829396 0)
(23.14818 -0.0005523891 0)
(23.14823 -0.0004199012 0)
(23.14827 -0.0002859042 0)
(23.14829 -0.0001510349 0)
(33.48149 -0.0002460532 0)
(25.32888 -0.0004509887 0)
(22.03404 -0.0005986074 0)
(22.90755 -0.0007411868 0)
(23.24156 -0.0008847582 0)
(23.14818 -0.001023525 0)
(23.11447 -0.001156333 0)
(23.12457 -0.001284153 0)
(23.12811 -0.001407382 0)