/*--------------------------------*- C++ -*----------------------------------*\
| =========                 |                                                 |
| \\      /  F ield         | OpenFOAM: The Open Source CFD Toolbox           |
|  \\    /   O peration     | Version:  2.3.0                                 |
|   \\  /    A nd           | Web:      www.OpenFOAM.org                      |
|    \\/     M anipulation  |                                                 |
\*---------------------------------------------------------------------------*/
FoamFile
{
    version     2.0;
    format      ascii;
    class       volVectorField;
    location    "9600/topAir";
    object      U;
}
// * * * * * * * * * * * * * * * * * * * * * * * * * * * * * * * * * * * * * //

dimensions      [0 1 -1 0 0 0 0];

internalField   nonuniform List<vector> 
4000
(
(17.90305 0.008447112 0)
(13.41378 0.008909512 0)
(11.59376 0.007634136 0)
(12.07303 0.007415224 0)
(12.25546 0.007464452 0)
(12.20168 0.007476182 0)
(12.18064 0.007492444 0)
(12.18375 0.007524334 0)
(12.18318 0.007558969 0)
(12.18007 0.0075914 0)
(12.17731 0.007621202 0)
(12.17476 0.007648208 0)
(12.17215 0.007672326 0)
(12.16948 0.007693693 0)
(12.16679 0.007712537 0)
(12.16408 0.007729098 0)
(12.16135 0.007743602 0)
(12.15861 0.007756261 0)
(12.15586 0.007767262 0)
(12.15309 0.007776775 0)
(12.15031 0.007784949 0)
(12.14753 0.007791915 0)
(12.14473 0.007797787 0)
(12.14193 0.007802669 0)
(12.13912 0.007806649 0)
(12.13631 0.007809808 0)
(12.13349 0.007812217 0)
(12.13066 0.007813938 0)
(12.12783 0.007815028 0)
(12.125 0.007815537 0)
(12.12217 0.007815511 0)
(12.11933 0.007814989 0)
(12.11648 0.007814008 0)
(12.11364 0.007812602 0)
(12.11079 0.0078108 0)
(12.10794 0.00780863 0)
(12.10509 0.007806115 0)
(12.10224 0.007803279 0)
(12.09939 0.007800142 0)
(12.09653 0.007796722 0)
(12.09368 0.007793037 0)
(12.09082 0.007789101 0)
(12.08796 0.007784929 0)
(12.0851 0.007780533 0)
(12.08224 0.007775926 0)
(12.07938 0.007771118 0)
(12.07653 0.007766119 0)
(12.07367 0.007760937 0)
(12.07081 0.00775558 0)
(12.06795 0.007750055 0)
(12.06509 0.007744368 0)
(12.06223 0.007738526 0)
(12.05937 0.007732532 0)
(12.05651 0.007726392 0)
(12.05366 0.007720107 0)
(12.0508 0.007713682 0)
(12.04795 0.007707117 0)
(12.04509 0.007700414 0)
(12.04224 0.007693574 0)
(12.03939 0.007686596 0)
(12.03654 0.007679479 0)
(12.03369 0.007672222 0)
(12.03084 0.007664821 0)
(12.028 0.007657272 0)
(12.02516 0.007649572 0)
(12.02232 0.007641712 0)
(12.01948 0.007633686 0)
(12.01665 0.007625485 0)
(12.01382 0.007617098 0)
(12.01099 0.007608512 0)
(12.00817 0.007599712 0)
(12.00535 0.00759068 0)
(12.00254 0.007581395 0)
(11.99973 0.007571833 0)
(11.99693 0.007561965 0)
(11.99413 0.007551757 0)
(11.99135 0.007541168 0)
(11.98857 0.00753015 0)
(11.9858 0.007518646 0)
(11.98304 0.007506587 0)
(11.98029 0.007493888 0)
(11.97755 0.007480447 0)
(11.97483 0.007466137 0)
(11.97213 0.007450799 0)
(11.96944 0.007434234 0)
(11.96677 0.007416184 0)
(11.96413 0.007396315 0)
(11.96152 0.00737418 0)
(11.95895 0.007349171 0)
(11.95641 0.007320432 0)
(11.95393 0.007286714 0)
(11.95151 0.007246109 0)
(11.94916 0.007195542 0)
(11.94692 0.007129704 0)
(11.94481 0.007038933 0)
(11.94289 0.006903641 0)
(11.94127 0.006685528 0)
(11.94008 0.006286001 0)
(11.93986 0.005547837 0)
(11.94038 0.003744817 0)
(17.91611 0.006994108 0)
(13.42784 0.008788854 0)
(11.61448 0.008018883 0)
(12.09642 0.007993669 0)
(12.28147 0.008250718 0)
(12.231 0.008401973 0)
(12.21315 0.008498604 0)
(12.21932 0.008582624 0)
(12.2218 0.008651265 0)
(12.22176 0.008704174 0)
(12.22207 0.008745275 0)
(12.22258 0.008777492 0)
(12.22302 0.008802678 0)
(12.2234 0.00882229 0)
(12.22376 0.008837489 0)
(12.2241 0.008849165 0)
(12.22443 0.008858002 0)
(12.22473 0.008864534 0)
(12.22502 0.00886918 0)
(12.22529 0.008872275 0)
(12.22555 0.008874082 0)
(12.2258 0.008874816 0)
(12.22604 0.008874651 0)
(12.22627 0.008873728 0)
(12.22649 0.008872165 0)
(12.2267 0.008870057 0)
(12.22691 0.008867486 0)
(12.2271 0.00886452 0)
(12.22729 0.008861214 0)
(12.22748 0.008857616 0)
(12.22765 0.008853767 0)
(12.22782 0.008849702 0)
(12.22799 0.00884545 0)
(12.22815 0.008841034 0)
(12.22831 0.008836478 0)
(12.22846 0.008831798 0)
(12.22861 0.00882701 0)
(12.22876 0.008822126 0)
(12.2289 0.008817158 0)
(12.22903 0.008812114 0)
(12.22917 0.008807002 0)
(12.2293 0.008801827 0)
(12.22942 0.008796594 0)
(12.22955 0.008791305 0)
(12.22967 0.008785964 0)
(12.22978 0.00878057 0)
(12.2299 0.008775124 0)
(12.23001 0.008769625 0)
(12.23012 0.00876407 0)
(12.23023 0.008758458 0)
(12.23034 0.008752782 0)
(12.23044 0.00874704 0)
(12.23054 0.008741225 0)
(12.23064 0.008735329 0)
(12.23074 0.008729345 0)
(12.23083 0.008723263 0)
(12.23093 0.008717074 0)
(12.23102 0.008710764 0)
(12.23112 0.00870432 0)
(12.23121 0.008697727 0)
(12.2313 0.008690969 0)
(12.23139 0.008684026 0)
(12.23147 0.008676877 0)
(12.23156 0.008669499 0)
(12.23165 0.008661863 0)
(12.23174 0.008653941 0)
(12.23183 0.008645699 0)
(12.23192 0.008637098 0)
(12.23201 0.008628095 0)
(12.2321 0.008618642 0)
(12.23219 0.008608682 0)
(12.23229 0.008598153 0)
(12.23238 0.008586982 0)
(12.23248 0.008575084 0)
(12.23259 0.008562364 0)
(12.23269 0.008548707 0)
(12.23281 0.008533983 0)
(12.23292 0.008518035 0)
(12.23305 0.008500681 0)
(12.23318 0.008481701 0)
(12.23332 0.008460829 0)
(12.23347 0.008437745 0)
(12.23363 0.008412055 0)
(12.2338 0.008383269 0)
(12.23399 0.008350772 0)
(12.2342 0.008313779 0)
(12.23443 0.008271274 0)
(12.23468 0.008221917 0)
(12.23496 0.008163902 0)
(12.23528 0.008094738 0)
(12.23564 0.008010892 0)
(12.23605 0.007907195 0)
(12.23653 0.007775813 0)
(12.23709 0.007604348 0)
(12.23775 0.007372465 0)
(12.23854 0.007044366 0)
(12.23948 0.006557936 0)
(12.2406 0.005780683 0)
(12.24183 0.004516066 0)
(12.24312 0.002027025 0)
(17.91018 0.0002219084 0)
(13.42182 0.00292809 0)
(11.60665 0.004150573 0)
(12.0887 0.00481078 0)
(12.2738 0.005386532 0)
(12.22319 0.005807237 0)
(12.20528 0.006106354 0)
(12.21144 0.006339235 0)
(12.21394 0.006526885 0)
(12.21391 0.006679713 0)
(12.21425 0.006806623 0)
(12.2148 0.00691399 0)
(12.21528 0.00700607 0)
(12.21571 0.007085927 0)
(12.21612 0.007155864 0)
(12.21651 0.007217626 0)
(12.21689 0.00727256 0)
(12.21726 0.007321724 0)
(12.21761 0.007365963 0)
(12.21795 0.00740596 0)
(12.21828 0.007442276 0)
(12.2186 0.007475373 0)
(12.21891 0.007505639 0)
(12.21922 0.0075334 0)
(12.21951 0.007558933 0)
(12.21981 0.007582476 0)
(12.22009 0.007604231 0)
(12.22037 0.007624377 0)
(12.22065 0.007643065 0)
(12.22093 0.007660431 0)
(12.22119 0.007676592 0)
(12.22146 0.007691652 0)
(12.22172 0.007705703 0)
(12.22199 0.007718824 0)
(12.22224 0.007731088 0)
(12.2225 0.00774256 0)
(12.22275 0.007753295 0)
(12.22301 0.007763345 0)
(12.22326 0.007772754 0)
(12.2235 0.007781562 0)
(12.22375 0.007789806 0)
(12.224 0.007797516 0)
(12.22424 0.007804721 0)
(12.22449 0.007811445 0)
(12.22473 0.007817709 0)
(12.22497 0.007823532 0)
(12.22522 0.007828929 0)
(12.22546 0.007833913 0)
(12.2257 0.007838495 0)
(12.22594 0.007842683 0)
(12.22618 0.007846483 0)
(12.22642 0.007849897 0)
(12.22666 0.007852926 0)
(12.22691 0.007855571 0)
(12.22715 0.007857825 0)
(12.22739 0.007859684 0)
(12.22763 0.007861139 0)
(12.22787 0.007862177 0)
(12.22812 0.007862784 0)
(12.22836 0.007862943 0)
(12.22861 0.007862631 0)
(12.22886 0.007861826 0)
(12.2291 0.007860496 0)
(12.22935 0.00785861 0)
(12.22961 0.007856128 0)
(12.22986 0.007853006 0)
(12.23011 0.007849194 0)
(12.23037 0.007844633 0)
(12.23063 0.007839258 0)
(12.2309 0.007832992 0)
(12.23116 0.007825747 0)
(12.23144 0.007817425 0)
(12.23171 0.007807908 0)
(12.23199 0.007797064 0)
(12.23227 0.007784738 0)
(12.23256 0.007770748 0)
(12.23286 0.007754884 0)
(12.23316 0.007736895 0)
(12.23347 0.007716485 0)
(12.23379 0.007693303 0)
(12.23412 0.007666925 0)
(12.23446 0.007636836 0)
(12.23481 0.007602407 0)
(12.23518 0.007562862 0)
(12.23556 0.007517228 0)
(12.23596 0.007464276 0)
(12.23638 0.007402428 0)
(12.23682 0.007329624 0)
(12.2373 0.007243135 0)
(12.2378 0.007139276 0)
(12.23834 0.007012965 0)
(12.23892 0.006857053 0)
(12.23956 0.006661269 0)
(12.24026 0.006410548 0)
(12.24103 0.006082504 0)
(12.24188 0.005643377 0)
(12.24281 0.005043453 0)
(12.24381 0.004209043 0)
(12.24479 0.003050419 0)
(12.24571 0.001473826 0)
(17.91259 0.00224821 0)
(13.42385 0.004426 0)
(11.60751 0.00540527 0)
(12.08908 0.005904687 0)
(12.27403 0.006354254 0)
(12.22327 0.006716611 0)
(12.20526 0.006986357 0)
(12.21135 0.007199703 0)
(12.21379 0.007374642 0)
(12.21372 0.007518616 0)
(12.21402 0.007637974 0)
(12.21454 0.007737923 0)
(12.21499 0.007822231 0)
(12.2154 0.00789374 0)
(12.21579 0.007954691 0)
(12.21617 0.008006863 0)
(12.21653 0.008051675 0)
(12.21688 0.008090274 0)
(12.21721 0.008123595 0)
(12.21754 0.008152403 0)
(12.21786 0.008177335 0)
(12.21817 0.008198916 0)
(12.21847 0.008217591 0)
(12.21876 0.008233731 0)
(12.21905 0.008247653 0)
(12.21933 0.008259624 0)
(12.21961 0.008269876 0)
(12.21988 0.008278606 0)
(12.22015 0.008285983 0)
(12.22042 0.008292157 0)
(12.22068 0.008297253 0)
(12.22094 0.008301385 0)
(12.2212 0.008304649 0)
(12.22145 0.00830713 0)
(12.2217 0.008308902 0)
(12.22195 0.008310031 0)
(12.2222 0.008310573 0)
(12.22245 0.008310578 0)
(12.22269 0.008310089 0)
(12.22293 0.008309145 0)
(12.22318 0.008307778 0)
(12.22342 0.008306015 0)
(12.22366 0.008303882 0)
(12.2239 0.008301398 0)
(12.22414 0.00829858 0)
(12.22438 0.008295441 0)
(12.22461 0.008291991 0)
(12.22485 0.008288237 0)
(12.22509 0.008284184 0)
(12.22533 0.008279834 0)
(12.22556 0.008275185 0)
(12.2258 0.008270233 0)
(12.22604 0.008264971 0)
(12.22628 0.00825939 0)
(12.22651 0.008253478 0)
(12.22675 0.008247219 0)
(12.22699 0.008240595 0)
(12.22723 0.008233582 0)
(12.22747 0.008226156 0)
(12.22772 0.008218287 0)
(12.22796 0.008209941 0)
(12.2282 0.008201078 0)
(12.22845 0.008191655 0)
(12.2287 0.008181622 0)
(12.22895 0.008170922 0)
(12.2292 0.00815949 0)
(12.22945 0.008147256 0)
(12.22971 0.008134135 0)
(12.22997 0.008120036 0)
(12.23023 0.008104852 0)
(12.2305 0.008088463 0)
(12.23076 0.008070732 0)
(12.23104 0.0080515 0)
(12.23132 0.008030586 0)
(12.2316 0.00800778 0)
(12.23189 0.007982841 0)
(12.23218 0.007955483 0)
(12.23248 0.007925377 0)
(12.23279 0.007892129 0)
(12.23311 0.007855277 0)
(12.23343 0.007814264 0)
(12.23377 0.007768424 0)
(12.23412 0.007716943 0)
(12.23448 0.007658827 0)
(12.23485 0.007592846 0)
(12.23525 0.007517459 0)
(12.23566 0.007430717 0)
(12.23609 0.007330124 0)
(12.23655 0.007212439 0)
(12.23703 0.007073401 0)
(12.23754 0.006907326 0)
(12.23809 0.006706537 0)
(12.23868 0.00646054 0)
(12.23931 0.006154855 0)
(12.23999 0.005769458 0)
(12.24071 0.005276736 0)
(12.24145 0.00463974 0)
(12.24218 0.003811166 0)
(12.24282 0.002739471 0)
(12.24337 0.001399729 0)
(17.91255 0.001190962 0)
(13.42362 0.002453021 0)
(11.60687 0.003238212 0)
(12.08839 0.003792976 0)
(12.27335 0.004306969 0)
(12.22255 0.004746252 0)
(12.20449 0.005099232 0)
(12.21055 0.005389706 0)
(12.21297 0.00563359 0)
(12.21288 0.005839178 0)
(12.21317 0.006013582 0)
(12.21368 0.006162886 0)
(12.21412 0.006291756 0)
(12.21452 0.006403796 0)
(12.21491 0.006501868 0)
(12.21529 0.00658825 0)
(12.21565 0.00666477 0)
(12.21599 0.006732903 0)
(12.21633 0.006793851 0)
(12.21666 0.006848599 0)
(12.21697 0.006897967 0)
(12.21728 0.006942635 0)
(12.21759 0.006983176 0)
(12.21788 0.007020074 0)
(12.21817 0.00705374 0)
(12.21845 0.007084528 0)
(12.21873 0.007112741 0)
(12.21901 0.007138642 0)
(12.21928 0.007162457 0)
(12.21955 0.007184386 0)
(12.21981 0.007204603 0)
(12.22007 0.00722326 0)
(12.22033 0.007240492 0)
(12.22058 0.007256418 0)
(12.22084 0.007271142 0)
(12.22109 0.007284758 0)
(12.22133 0.007297346 0)
(12.22158 0.007308981 0)
(12.22183 0.007319726 0)
(12.22207 0.007329639 0)
(12.22232 0.007338769 0)
(12.22256 0.00734716 0)
(12.2228 0.007354851 0)
(12.22304 0.007361875 0)
(12.22328 0.00736826 0)
(12.22352 0.00737403 0)
(12.22376 0.007379205 0)
(12.224 0.0073838 0)
(12.22423 0.007387827 0)
(12.22447 0.007391294 0)
(12.22471 0.007394204 0)
(12.22495 0.007396559 0)
(12.22519 0.007398355 0)
(12.22543 0.007399585 0)
(12.22566 0.007400237 0)
(12.2259 0.007400297 0)
(12.22614 0.007399746 0)
(12.22638 0.007398559 0)
(12.22663 0.007396709 0)
(12.22687 0.007394161 0)
(12.22711 0.007390876 0)
(12.22736 0.007386809 0)
(12.2276 0.007381907 0)
(12.22785 0.00737611 0)
(12.2281 0.007369351 0)
(12.22835 0.007361552 0)
(12.2286 0.007352625 0)
(12.22886 0.007342469 0)
(12.22912 0.00733097 0)
(12.22938 0.007318 0)
(12.22964 0.007303409 0)
(12.22991 0.007287029 0)
(12.23018 0.007268666 0)
(12.23046 0.007248098 0)
(12.23074 0.007225067 0)
(12.23103 0.007199275 0)
(12.23132 0.007170378 0)
(12.23162 0.007137971 0)
(12.23192 0.007101579 0)
(12.23224 0.007060641 0)
(12.23256 0.007014491 0)
(12.23289 0.00696233 0)
(12.23323 0.006903197 0)
(12.23358 0.006835924 0)
(12.23395 0.00675908 0)
(12.23433 0.006670899 0)
(12.23473 0.006569181 0)
(12.23514 0.006451158 0)
(12.23558 0.00631332 0)
(12.23604 0.00615118 0)
(12.23652 0.005958951 0)
(12.23703 0.005729144 0)
(12.23756 0.005452046 0)
(12.23813 0.005115118 0)
(12.23871 0.004702414 0)
(12.23931 0.004194301 0)
(12.23991 0.003568024 0)
(12.24048 0.002801318 0)
(12.24095 0.001876661 0)
(12.24134 0.0008150237 0)
(17.91354 0.001321123 0)
(13.42466 0.002619872 0)
(11.60766 0.003493426 0)
(12.08896 0.004142232 0)
(12.27379 0.004705697 0)
(12.22287 0.005178189 0)
(12.20471 0.005560389 0)
(12.21069 0.005874712 0)
(12.21305 0.006137714 0)
(12.21291 0.006359095 0)
(12.21315 0.006546566 0)
(12.21362 0.006706511 0)
(12.21404 0.00684387 0)
(12.21442 0.006962482 0)
(12.21478 0.007065409 0)
(12.21514 0.007155116 0)
(12.21548 0.007233599 0)
(12.21582 0.007302488 0)
(12.21614 0.007363129 0)
(12.21645 0.007416637 0)
(12.21676 0.007463948 0)
(12.21706 0.007505847 0)
(12.21736 0.007543 0)
(12.21764 0.007575974 0)
(12.21793 0.007605255 0)
(12.2182 0.007631258 0)
(12.21848 0.007654345 0)
(12.21874 0.007674828 0)
(12.21901 0.007692979 0)
(12.21927 0.007709034 0)
(12.21953 0.007723201 0)
(12.21979 0.007735662 0)
(12.22004 0.007746577 0)
(12.22029 0.007756087 0)
(12.22054 0.007764316 0)
(12.22079 0.007771374 0)
(12.22104 0.007777358 0)
(12.22128 0.007782352 0)
(12.22152 0.007786432 0)
(12.22177 0.007789663 0)
(12.22201 0.007792104 0)
(12.22225 0.007793803 0)
(12.22248 0.007794806 0)
(12.22272 0.007795148 0)
(12.22296 0.007794862 0)
(12.2232 0.007793973 0)
(12.22344 0.007792502 0)
(12.22367 0.007790464 0)
(12.22391 0.007787872 0)
(12.22414 0.007784733 0)
(12.22438 0.007781047 0)
(12.22462 0.007776814 0)
(12.22485 0.007772026 0)
(12.22509 0.007766674 0)
(12.22533 0.007760741 0)
(12.22556 0.007754207 0)
(12.2258 0.007747046 0)
(12.22604 0.007739229 0)
(12.22628 0.007730719 0)
(12.22652 0.007721472 0)
(12.22676 0.007711442 0)
(12.22701 0.007700571 0)
(12.22725 0.007688795 0)
(12.2275 0.007676043 0)
(12.22775 0.00766223 0)
(12.22799 0.007647264 0)
(12.22825 0.007631039 0)
(12.2285 0.007613435 0)
(12.22876 0.007594316 0)
(12.22902 0.007573528 0)
(12.22928 0.007550897 0)
(12.22954 0.007526224 0)
(12.22981 0.00749928 0)
(12.23008 0.007469806 0)
(12.23036 0.007437503 0)
(12.23064 0.007402027 0)
(12.23093 0.007362978 0)
(12.23123 0.007319894 0)
(12.23153 0.007272232 0)
(12.23183 0.007219359 0)
(12.23215 0.007160524 0)
(12.23247 0.007094838 0)
(12.2328 0.007021238 0)
(12.23315 0.00693845 0)
(12.2335 0.00684493 0)
(12.23387 0.006738802 0)
(12.23425 0.006617771 0)
(12.23465 0.006479005 0)
(12.23506 0.006319004 0)
(12.23549 0.006133417 0)
(12.23594 0.005916827 0)
(12.2364 0.0056625 0)
(12.23688 0.005362119 0)
(12.23738 0.005005554 0)
(12.23789 0.004580791 0)
(12.23839 0.004074298 0)
(12.23887 0.003472052 0)
(12.23931 0.002763051 0)
(12.23966 0.00194142 0)
(12.23993 0.001030325 0)
(17.91377 0.0009944564 0)
(13.42477 0.001967607 0)
(11.60749 0.002622976 0)
(12.08868 0.003139531 0)
(12.27346 0.003612174 0)
(12.22248 0.004027111 0)
(12.20426 0.004378715 0)
(12.2102 0.004679477 0)
(12.21253 0.004939374 0)
(12.21237 0.005164388 0)
(12.21259 0.005359706 0)
(12.21305 0.005529999 0)
(12.21345 0.005679127 0)
(12.21382 0.005810258 0)
(12.21418 0.005926029 0)
(12.21453 0.006028639 0)
(12.21487 0.006119923 0)
(12.2152 0.006201416 0)
(12.21552 0.006274405 0)
(12.21583 0.006339977 0)
(12.21614 0.006399052 0)
(12.21644 0.00645241 0)
(12.21673 0.006500721 0)
(12.21702 0.006544555 0)
(12.2173 0.006584406 0)
(12.21758 0.006620698 0)
(12.21785 0.006653802 0)
(12.21812 0.006684039 0)
(12.21839 0.00671169 0)
(12.21865 0.006737 0)
(12.21891 0.006760185 0)
(12.21917 0.006781436 0)
(12.21942 0.006800921 0)
(12.21967 0.006818787 0)
(12.21992 0.006835165 0)
(12.22017 0.006850172 0)
(12.22042 0.00686391 0)
(12.22067 0.00687647 0)
(12.22091 0.006887932 0)
(12.22115 0.006898366 0)
(12.22139 0.006907834 0)
(12.22164 0.006916391 0)
(12.22187 0.006924083 0)
(12.22211 0.006930951 0)
(12.22235 0.006937027 0)
(12.22259 0.006942341 0)
(12.22283 0.006946915 0)
(12.22307 0.006950766 0)
(12.2233 0.006953906 0)
(12.22354 0.006956342 0)
(12.22378 0.006958077 0)
(12.22401 0.006959108 0)
(12.22425 0.006959427 0)
(12.22449 0.006959022 0)
(12.22473 0.006957874 0)
(12.22496 0.006955961 0)
(12.2252 0.006953253 0)
(12.22544 0.006949716 0)
(12.22568 0.006945308 0)
(12.22592 0.006939981 0)
(12.22616 0.006933679 0)
(12.22641 0.006926339 0)
(12.22665 0.006917887 0)
(12.2269 0.006908241 0)
(12.22714 0.006897307 0)
(12.22739 0.006884979 0)
(12.22764 0.006871135 0)
(12.2279 0.006855642 0)
(12.22815 0.006838345 0)
(12.22841 0.006819069 0)
(12.22867 0.006797619 0)
(12.22893 0.006773769 0)
(12.2292 0.006747264 0)
(12.22947 0.006717814 0)
(12.22975 0.006685085 0)
(12.23003 0.006648694 0)
(12.23031 0.006608201 0)
(12.2306 0.006563095 0)
(12.2309 0.006512785 0)
(12.2312 0.006456579 0)
(12.23151 0.006393671 0)
(12.23182 0.006323109 0)
(12.23215 0.006243769 0)
(12.23248 0.006154316 0)
(12.23282 0.006053159 0)
(12.23318 0.005938391 0)
(12.23354 0.005807719 0)
(12.23392 0.00565838 0)
(12.23431 0.005487035 0)
(12.23471 0.005289659 0)
(12.23512 0.005061407 0)
(12.23555 0.004796504 0)
(12.23598 0.004488164 0)
(12.23642 0.00412862 0)
(12.23685 0.003709361 0)
(12.23728 0.003221806 0)
(12.23767 0.002658465 0)
(12.23803 0.002015849 0)
(12.23829 0.001295328 0)
(12.2385 0.0005186256 0)
(17.91435 0.0009725772 0)
(13.42535 0.001882251 0)
(11.60795 0.002529509 0)
(12.08906 0.003081436 0)
(12.27379 0.00359563 0)
(12.22275 0.00405263 0)
(12.20447 0.004446691 0)
(12.21036 0.00478773 0)
(12.21264 0.00508432 0)
(12.21244 0.005342308 0)
(12.21263 0.005567022 0)
(12.21306 0.005763336 0)
(12.21343 0.005935384 0)
(12.21378 0.006086626 0)
(12.21411 0.006219976 0)
(12.21445 0.006337893 0)
(12.21477 0.006442444 0)
(12.21508 0.006535376 0)
(12.21539 0.006618167 0)
(12.21569 0.006692073 0)
(12.21599 0.006758165 0)
(12.21628 0.006817362 0)
(12.21656 0.006870452 0)
(12.21684 0.006918116 0)
(12.21712 0.006960943 0)
(12.21739 0.006999447 0)
(12.21765 0.007034074 0)
(12.21792 0.007065217 0)
(12.21818 0.007093218 0)
(12.21844 0.007118379 0)
(12.21869 0.007140966 0)
(12.21894 0.007161215 0)
(12.21919 0.007179334 0)
(12.21944 0.007195508 0)
(12.21969 0.007209898 0)
(12.21993 0.007222652 0)
(12.22018 0.007233897 0)
(12.22042 0.007243748 0)
(12.22066 0.007252305 0)
(12.2209 0.007259658 0)
(12.22114 0.007265885 0)
(12.22138 0.007271055 0)
(12.22162 0.007275228 0)
(12.22185 0.007278455 0)
(12.22209 0.007280781 0)
(12.22233 0.007282242 0)
(12.22256 0.007282868 0)
(12.2228 0.007282684 0)
(12.22303 0.007281706 0)
(12.22327 0.007279946 0)
(12.2235 0.007277409 0)
(12.22374 0.007274096 0)
(12.22397 0.007269999 0)
(12.22421 0.007265108 0)
(12.22444 0.007259404 0)
(12.22468 0.007252862 0)
(12.22492 0.007245452 0)
(12.22515 0.007237135 0)
(12.22539 0.007227868 0)
(12.22563 0.007217597 0)
(12.22587 0.007206261 0)
(12.22611 0.007193789 0)
(12.22635 0.007180102 0)
(12.2266 0.007165107 0)
(12.22684 0.007148701 0)
(12.22709 0.007130766 0)
(12.22734 0.007111171 0)
(12.22759 0.007089765 0)
(12.22784 0.00706638 0)
(12.2281 0.007040825 0)
(12.22835 0.007012884 0)
(12.22861 0.006982311 0)
(12.22888 0.00694883 0)
(12.22915 0.006912125 0)
(12.22942 0.006871836 0)
(12.22969 0.006827552 0)
(12.22997 0.006778801 0)
(12.23025 0.006725041 0)
(12.23054 0.006665648 0)
(12.23084 0.006599898 0)
(12.23114 0.006526952 0)
(12.23145 0.00644583 0)
(12.23176 0.006355388 0)
(12.23208 0.006254286 0)
(12.23241 0.006140945 0)
(12.23275 0.006013506 0)
(12.2331 0.005869776 0)
(12.23345 0.005707168 0)
(12.23382 0.005522636 0)
(12.23419 0.00531261 0)
(12.23457 0.005072943 0)
(12.23496 0.004798884 0)
(12.23534 0.004485116 0)
(12.23573 0.004125905 0)
(12.23611 0.003715433 0)
(12.23647 0.003248459 0)
(12.23679 0.002721267 0)
(12.23708 0.002133718 0)
(12.23729 0.001489368 0)
(12.23745 0.0008057717 0)
(17.91465 0.0008192789 0)
(13.42559 0.001584275 0)
(11.60804 0.002123557 0)
(12.08908 0.002589039 0)
(12.27376 0.00302718 0)
(12.22266 0.003420599 0)
(12.20432 0.003764533 0)
(12.21017 0.004066572 0)
(12.21241 0.004332945 0)
(12.21218 0.004567773 0)
(12.21234 0.004774927 0)
(12.21275 0.004958052 0)
(12.21311 0.005120308 0)
(12.21343 0.005264405 0)
(12.21376 0.005392678 0)
(12.21408 0.005507139 0)
(12.2144 0.005609516 0)
(12.2147 0.005701292 0)
(12.21501 0.005783745 0)
(12.2153 0.005857973 0)
(12.21559 0.005924926 0)
(12.21588 0.005985426 0)
(12.21616 0.006040184 0)
(12.21644 0.006089821 0)
(12.21671 0.006134875 0)
(12.21698 0.006175819 0)
(12.21725 0.006213066 0)
(12.21751 0.006246979 0)
(12.21777 0.006277876 0)
(12.21803 0.00630604 0)
(12.21828 0.006331719 0)
(12.21853 0.006355134 0)
(12.21879 0.006376478 0)
(12.21903 0.006395925 0)
(12.21928 0.006413627 0)
(12.21953 0.006429721 0)
(12.21977 0.006444327 0)
(12.22001 0.006457551 0)
(12.22025 0.006469488 0)
(12.22049 0.00648022 0)
(12.22073 0.006489819 0)
(12.22097 0.00649835 0)
(12.22121 0.006505866 0)
(12.22145 0.006512415 0)
(12.22169 0.006518035 0)
(12.22192 0.006522759 0)
(12.22216 0.006526612 0)
(12.22239 0.006529613 0)
(12.22263 0.006531775 0)
(12.22286 0.006533106 0)
(12.2231 0.006533605 0)
(12.22333 0.006533268 0)
(12.22357 0.006532083 0)
(12.22381 0.006530034 0)
(12.22404 0.006527097 0)
(12.22428 0.006523241 0)
(12.22452 0.006518431 0)
(12.22475 0.00651262 0)
(12.22499 0.006505759 0)
(12.22523 0.006497786 0)
(12.22547 0.006488633 0)
(12.22571 0.00647822 0)
(12.22595 0.006466459 0)
(12.22619 0.006453247 0)
(12.22644 0.006438471 0)
(12.22668 0.006422001 0)
(12.22693 0.006403694 0)
(12.22718 0.006383385 0)
(12.22743 0.006360892 0)
(12.22769 0.006336009 0)
(12.22794 0.006308503 0)
(12.2282 0.006278112 0)
(12.22846 0.006244539 0)
(12.22872 0.006207449 0)
(12.22899 0.006166462 0)
(12.22926 0.006121145 0)
(12.22954 0.006071004 0)
(12.22982 0.006015478 0)
(12.2301 0.005953922 0)
(12.23039 0.005885596 0)
(12.23068 0.005809648 0)
(12.23098 0.005725096 0)
(12.23129 0.005630806 0)
(12.2316 0.005525464 0)
(12.23191 0.005407546 0)
(12.23224 0.00527529 0)
(12.23257 0.005126653 0)
(12.2329 0.004959279 0)
(12.23324 0.004770462 0)
(12.23359 0.004557125 0)
(12.23394 0.004315812 0)
(12.23429 0.004042723 0)
(12.23464 0.003733818 0)
(12.23498 0.00338501 0)
(12.23531 0.00299252 0)
(12.23562 0.002553451 0)
(12.23589 0.002066512 0)
(12.23612 0.001533421 0)
(12.2363 0.000958636 0)
(12.23643 0.0003562134 0)
(17.91505 0.000768128 0)
(13.42596 0.00146987 0)
(11.60833 0.001975684 0)
(12.08933 0.002431668 0)
(12.27398 0.002871983 0)
(12.22285 0.003276819 0)
(12.20448 0.003639631 0)
(12.21029 0.003965018 0)
(12.2125 0.004256908 0)
(12.21224 0.004518006 0)
(12.21237 0.004751227 0)
(12.21276 0.004959573 0)
(12.2131 0.005145811 0)
(12.21341 0.005312434 0)
(12.21371 0.005461677 0)
(12.21402 0.005595526 0)
(12.21432 0.005715734 0)
(12.21462 0.005823841 0)
(12.21491 0.005921194 0)
(12.21519 0.006008977 0)
(12.21547 0.006088223 0)
(12.21575 0.00615984 0)
(12.21603 0.006224624 0)
(12.21629 0.006283274 0)
(12.21656 0.006336405 0)
(12.21682 0.006384562 0)
(12.21708 0.006428223 0)
(12.21734 0.006467813 0)
(12.2176 0.006503708 0)
(12.21785 0.006536244 0)
(12.2181 0.006565717 0)
(12.21835 0.006592392 0)
(12.2186 0.006616505 0)
(12.21884 0.006638266 0)
(12.21908 0.006657864 0)
(12.21933 0.006675465 0)
(12.21957 0.00669122 0)
(12.21981 0.006705261 0)
(12.22005 0.006717707 0)
(12.22028 0.006728663 0)
(12.22052 0.006738221 0)
(12.22076 0.006746465 0)
(12.22099 0.006753464 0)
(12.22123 0.006759281 0)
(12.22146 0.006763969 0)
(12.2217 0.006767572 0)
(12.22193 0.006770127 0)
(12.22216 0.006771664 0)
(12.2224 0.006772203 0)
(12.22263 0.00677176 0)
(12.22287 0.006770341 0)
(12.2231 0.006767949 0)
(12.22333 0.006764576 0)
(12.22357 0.006760209 0)
(12.2238 0.006754827 0)
(12.22403 0.006748404 0)
(12.22427 0.006740902 0)
(12.22451 0.00673228 0)
(12.22474 0.006722484 0)
(12.22498 0.006711453 0)
(12.22522 0.006699117 0)
(12.22545 0.006685393 0)
(12.22569 0.006670189 0)
(12.22593 0.006653399 0)
(12.22618 0.006634904 0)
(12.22642 0.006614569 0)
(12.22666 0.006592241 0)
(12.22691 0.006567752 0)
(12.22716 0.006540907 0)
(12.22741 0.006511493 0)
(12.22766 0.006479266 0)
(12.22792 0.006443954 0)
(12.22817 0.006405249 0)
(12.22843 0.006362804 0)
(12.2287 0.006316228 0)
(12.22896 0.006265078 0)
(12.22923 0.006208851 0)
(12.2295 0.006146979 0)
(12.22978 0.006078812 0)
(12.23006 0.006003615 0)
(12.23035 0.005920546 0)
(12.23063 0.005828644 0)
(12.23093 0.005726814 0)
(12.23123 0.005613802 0)
(12.23153 0.005488178 0)
(12.23184 0.005348312 0)
(12.23215 0.005192356 0)
(12.23246 0.005018219 0)
(12.23278 0.004823565 0)
(12.2331 0.004605811 0)
(12.23343 0.004362156 0)
(12.23374 0.004089648 0)
(12.23406 0.003785305 0)
(12.23436 0.003446319 0)
(12.23465 0.003070364 0)
(12.23491 0.002656045 0)
(12.23514 0.002203409 0)
(12.23534 0.001714867 0)
(12.23548 0.001194775 0)
(12.23559 0.0006542292 0)
(17.91533 0.0006812643 0)
(13.4262 0.00130059 0)
(11.60848 0.001745411 0)
(12.08944 0.002149521 0)
(12.27406 0.002541171 0)
(12.22288 0.002902135 0)
(12.20447 0.003226797 0)
(12.21025 0.00351911 0)
(12.21242 0.003782319 0)
(12.21213 0.004018628 0)
(12.21224 0.004230457 0)
(12.2126 0.00442033 0)
(12.21292 0.004590584 0)
(12.21321 0.004743344 0)
(12.2135 0.004880529 0)
(12.2138 0.005003859 0)
(12.21409 0.005114865 0)
(12.21437 0.005214898 0)
(12.21465 0.005305153 0)
(12.21493 0.005386684 0)
(12.21521 0.005460417 0)
(12.21548 0.005527171 0)
(12.21575 0.005587665 0)
(12.21601 0.005642535 0)
(12.21627 0.005692344 0)
(12.21653 0.005737586 0)
(12.21679 0.005778703 0)
(12.21705 0.005816083 0)
(12.2173 0.005850073 0)
(12.21755 0.005880979 0)
(12.2178 0.005909076 0)
(12.21805 0.005934605 0)
(12.21829 0.005957785 0)
(12.21854 0.005978807 0)
(12.21878 0.005997844 0)
(12.21902 0.006015048 0)
(12.21926 0.006030556 0)
(12.2195 0.006044488 0)
(12.21974 0.006056951 0)
(12.21998 0.006068039 0)
(12.22022 0.006077835 0)
(12.22045 0.006086411 0)
(12.22069 0.006093829 0)
(12.22092 0.006100143 0)
(12.22116 0.006105397 0)
(12.22139 0.006109627 0)
(12.22163 0.006112864 0)
(12.22186 0.006115128 0)
(12.22209 0.006116433 0)
(12.22233 0.006116788 0)
(12.22256 0.006116193 0)
(12.22279 0.006114641 0)
(12.22303 0.006112119 0)
(12.22326 0.006108608 0)
(12.22349 0.006104079 0)
(12.22373 0.006098498 0)
(12.22396 0.006091822 0)
(12.2242 0.006084 0)
(12.22443 0.006074973 0)
(12.22467 0.006064671 0)
(12.22491 0.006053016 0)
(12.22515 0.006039917 0)
(12.22538 0.006025275 0)
(12.22562 0.006008973 0)
(12.22586 0.005990883 0)
(12.22611 0.005970862 0)
(12.22635 0.005948749 0)
(12.22659 0.005924361 0)
(12.22684 0.005897498 0)
(12.22709 0.005867934 0)
(12.22734 0.005835416 0)
(12.22759 0.00579966 0)
(12.22784 0.005760349 0)
(12.2281 0.005717129 0)
(12.22836 0.005669598 0)
(12.22862 0.005617309 0)
(12.22889 0.005559755 0)
(12.22915 0.005496368 0)
(12.22942 0.005426505 0)
(12.2297 0.005349441 0)
(12.22997 0.00526436 0)
(12.23025 0.005170336 0)
(12.23054 0.005066327 0)
(12.23082 0.004951159 0)
(12.23111 0.00482351 0)
(12.23141 0.004681902 0)
(12.2317 0.004524686 0)
(12.232 0.004350044 0)
(12.2323 0.004155993 0)
(12.2326 0.003940403 0)
(12.23289 0.003701047 0)
(12.23318 0.003435679 0)
(12.23346 0.003142157 0)
(12.23373 0.002818628 0)
(12.23399 0.002463783 0)
(12.23422 0.0020772 0)
(12.23442 0.001659686 0)
(12.23458 0.001213888 0)
(12.2347 0.0007438193 0)
(12.2348 0.0002583194 0)
(17.91564 0.0006309988 0)
(13.42648 0.001198206 0)
(11.6087 0.00160961 0)
(12.08962 0.001991797 0)
(12.27423 0.002368237 0)
(12.22303 0.002721251 0)
(12.20459 0.003044986 0)
(12.21034 0.003341924 0)
(12.2125 0.003613924 0)
(12.21219 0.003862098 0)
(12.21228 0.004087938 0)
(12.21262 0.004293195 0)
(12.21292 0.0044796 0)
(12.2132 0.004648813 0)
(12.21348 0.004802408 0)
(12.21376 0.00494185 0)
(12.21403 0.005068491 0)
(12.21431 0.00518356 0)
(12.21458 0.005288171 0)
(12.21485 0.005383331 0)
(12.21512 0.005469944 0)
(12.21538 0.005548821 0)
(12.21564 0.005620691 0)
(12.2159 0.005686204 0)
(12.21616 0.005745945 0)
(12.21641 0.005800437 0)
(12.21667 0.005850148 0)
(12.21692 0.005895498 0)
(12.21716 0.005936863 0)
(12.21741 0.005974581 0)
(12.21766 0.006008956 0)
(12.2179 0.00604026 0)
(12.21814 0.006068738 0)
(12.21838 0.006094609 0)
(12.21862 0.006118071 0)
(12.21886 0.006139301 0)
(12.2191 0.006158459 0)
(12.21934 0.006175685 0)
(12.21957 0.006191108 0)
(12.21981 0.00620484 0)
(12.22004 0.006216981 0)
(12.22028 0.006227622 0)
(12.22051 0.006236838 0)
(12.22074 0.006244697 0)
(12.22098 0.006251259 0)
(12.22121 0.00625657 0)
(12.22144 0.006260671 0)
(12.22167 0.006263594 0)
(12.2219 0.006265363 0)
(12.22214 0.006265994 0)
(12.22237 0.006265495 0)
(12.2226 0.006263866 0)
(12.22283 0.006261101 0)
(12.22306 0.006257184 0)
(12.22329 0.006252093 0)
(12.22353 0.006245797 0)
(12.22376 0.006238256 0)
(12.22399 0.006229422 0)
(12.22423 0.006219238 0)
(12.22446 0.006207635 0)
(12.2247 0.006194536 0)
(12.22493 0.006179851 0)
(12.22517 0.006163479 0)
(12.22541 0.006145304 0)
(12.22564 0.006125196 0)
(12.22588 0.006103009 0)
(12.22612 0.006078581 0)
(12.22637 0.006051728 0)
(12.22661 0.006022245 0)
(12.22685 0.005989904 0)
(12.2271 0.005954451 0)
(12.22735 0.005915599 0)
(12.2276 0.005873032 0)
(12.22785 0.005826392 0)
(12.2281 0.005775283 0)