/*--------------------------------*- C++ -*----------------------------------*\
| =========                 |                                                 |
| \\      /  F ield         | OpenFOAM: The Open Source CFD Toolbox           |
|  \\    /   O peration     | Version:  2.3.0                                 |
|   \\  /    A nd           | Web:      www.OpenFOAM.org                      |
|    \\/     M anipulation  |                                                 |
\*---------------------------------------------------------------------------*/
FoamFile
{
    version     2.0;
    format      ascii;
    class       volVectorField;
    location    "10000/bottomAir";
    object      U;
}
// * * * * * * * * * * * * * * * * * * * * * * * * * * * * * * * * * * * * * //

dimensions      [0 1 -1 0 0 0 0];

internalField   nonuniform List<vector> 
4000
(
(28.34293 -0.003002522 0)
(21.46796 -0.001497253 0)
(18.70019 -0.0005891681 0)
(19.43789 -0.0004516191 0)
(19.71829 -0.0003267574 0)
(19.63954 -0.0002159586 0)
(19.61136 -0.0001598658 0)
(19.61991 -0.0001293101 0)
(19.62286 -0.0001085281 0)
(19.62205 -9.468829e-05 0)
(19.62185 -8.574382e-05 0)
(19.62204 -7.980581e-05 0)
(19.62216 -7.581152e-05 0)
(19.62224 -7.316154e-05 0)
(19.62234 -7.145587e-05 0)
(19.62244 -7.041739e-05 0)
(19.62255 -6.985812e-05 0)
(19.62265 -6.964589e-05 0)
(19.62276 -6.968539e-05 0)
(19.62288 -6.990688e-05 0)
(19.62299 -7.02581e-05 0)
(19.62311 -7.070024e-05 0)
(19.62324 -7.120325e-05 0)
(19.62336 -7.174479e-05 0)
(19.62349 -7.230711e-05 0)
(19.62363 -7.287717e-05 0)
(19.62376 -7.344444e-05 0)
(19.6239 -7.400137e-05 0)
(19.62403 -7.45418e-05 0)
(19.62417 -7.506153e-05 0)
(19.62432 -7.55571e-05 0)
(19.62446 -7.602633e-05 0)
(19.62461 -7.646749e-05 0)
(19.62475 -7.687961e-05 0)
(19.6249 -7.726201e-05 0)
(19.62505 -7.761445e-05 0)
(19.6252 -7.793687e-05 0)
(19.62536 -7.82294e-05 0)
(19.62551 -7.849235e-05 0)
(19.62566 -7.872599e-05 0)
(19.62582 -7.893078e-05 0)
(19.62597 -7.910702e-05 0)
(19.62613 -7.925519e-05 0)
(19.62629 -7.937549e-05 0)
(19.62645 -7.946833e-05 0)
(19.6266 -7.953376e-05 0)
(19.62676 -7.957204e-05 0)
(19.62692 -7.958302e-05 0)
(19.62708 -7.956679e-05 0)
(19.62724 -7.952293e-05 0)
(19.6274 -7.945132e-05 0)
(19.62756 -7.935128e-05 0)
(19.62772 -7.922243e-05 0)
(19.62787 -7.906379e-05 0)
(19.62803 -7.887473e-05 0)
(19.62819 -7.865396e-05 0)
(19.62835 -7.840053e-05 0)
(19.62851 -7.811287e-05 0)
(19.62866 -7.778972e-05 0)
(19.62882 -7.742916e-05 0)
(19.62897 -7.702962e-05 0)
(19.62913 -7.658888e-05 0)
(19.62928 -7.610503e-05 0)
(19.62943 -7.557554e-05 0)
(19.62959 -7.49982e-05 0)
(19.62974 -7.437016e-05 0)
(19.62988 -7.368892e-05 0)
(19.63003 -7.295138e-05 0)
(19.63018 -7.215477e-05 0)
(19.63032 -7.129576e-05 0)
(19.63046 -7.037141e-05 0)
(19.6306 -6.937823e-05 0)
(19.63074 -6.831317e-05 0)
(19.63088 -6.717269e-05 0)
(19.63101 -6.595374e-05 0)
(19.63114 -6.465286e-05 0)
(19.63127 -6.326717e-05 0)
(19.63139 -6.179344e-05 0)
(19.63151 -6.022914e-05 0)
(19.63163 -5.857148e-05 0)
(19.63175 -5.681848e-05 0)
(19.63186 -5.496802e-05 0)
(19.63196 -5.301893e-05 0)
(19.63206 -5.097003e-05 0)
(19.63216 -4.882117e-05 0)
(19.63225 -4.657237e-05 0)
(19.63234 -4.42248e-05 0)
(19.63242 -4.177989e-05 0)
(19.6325 -3.924038e-05 0)
(19.63257 -3.660938e-05 0)
(19.63264 -3.38914e-05 0)
(19.6327 -3.109154e-05 0)
(19.63276 -2.821662e-05 0)
(19.6328 -2.527474e-05 0)
(19.63285 -2.22771e-05 0)
(19.63288 -1.924013e-05 0)
(19.63291 -1.619066e-05 0)
(19.63293 -1.318749e-05 0)
(19.63295 -1.032254e-05 0)
(19.63296 -7.991478e-06 0)
(28.33766 -0.003741624 0)
(21.46543 -0.001597869 0)
(18.69566 -0.0004553643 0)
(19.43276 -0.0003646588 0)
(19.7132 -0.0002591628 0)
(19.63436 -0.0001526926 0)
(19.6061 -0.0001125015 0)
(19.61462 -0.0001002933 0)
(19.61756 -9.55355e-05 0)
(19.61675 -9.608739e-05 0)
(19.61655 -0.0001002747 0)
(19.61673 -0.0001061905 0)
(19.61686 -0.0001128874 0)
(19.61694 -0.0001199337 0)
(19.61704 -0.0001270631 0)
(19.61715 -0.0001341072 0)
(19.61725 -0.000140969 0)
(19.61736 -0.0001475926 0)
(19.61748 -0.0001539453 0)
(19.6176 -0.0001600095 0)
(19.61772 -0.0001657774 0)
(19.61785 -0.0001712473 0)
(19.61797 -0.0001764217 0)
(19.6181 -0.0001813062 0)
(19.61824 -0.000185908 0)
(19.61837 -0.0001902357 0)
(19.61851 -0.0001942986 0)
(19.61865 -0.0001981068 0)
(19.6188 -0.0002016702 0)
(19.61894 -0.0002049991 0)
(19.61909 -0.0002081036 0)
(19.61924 -0.0002109935 0)
(19.61939 -0.0002136785 0)
(19.61954 -0.0002161679 0)
(19.6197 -0.0002184703 0)
(19.61985 -0.0002205943 0)
(19.62001 -0.0002225478 0)
(19.62016 -0.0002243381 0)
(19.62032 -0.0002259722 0)
(19.62048 -0.0002274563 0)
(19.62064 -0.0002287963 0)
(19.6208 -0.0002299974 0)
(19.62096 -0.0002310642 0)
(19.62112 -0.000232001 0)
(19.62129 -0.0002328112 0)
(19.62145 -0.0002334979 0)
(19.62161 -0.0002340635 0)
(19.62178 -0.00023451 0)
(19.62194 -0.0002348387 0)
(19.6221 -0.0002350504 0)
(19.62227 -0.0002351454 0)
(19.62243 -0.0002351234 0)
(19.62259 -0.0002349835 0)
(19.62276 -0.0002347245 0)
(19.62292 -0.0002343443 0)
(19.62308 -0.0002338407 0)
(19.62325 -0.0002332105 0)
(19.62341 -0.0002324503 0)
(19.62357 -0.0002315561 0)
(19.62373 -0.0002305231 0)
(19.62389 -0.0002293464 0)
(19.62405 -0.0002280203 0)
(19.62421 -0.0002265386 0)
(19.62437 -0.0002248947 0)
(19.62452 -0.0002230814 0)
(19.62468 -0.0002210912 0)
(19.62483 -0.000218916 0)
(19.62498 -0.0002165474 0)
(19.62513 -0.0002139765 0)
(19.62528 -0.0002111942 0)
(19.62543 -0.0002081911 0)
(19.62557 -0.0002049576 0)
(19.62572 -0.000201484 0)
(19.62586 -0.0001977604 0)
(19.62599 -0.0001937772 0)
(19.62613 -0.0001895248 0)
(19.62626 -0.0001849939 0)
(19.62639 -0.0001801758 0)
(19.62652 -0.0001750623 0)
(19.62664 -0.0001696457 0)
(19.62676 -0.0001639197 0)
(19.62687 -0.0001578788 0)
(19.62698 -0.0001515188 0)
(19.62709 -0.000144837 0)
(19.62719 -0.0001378326 0)
(19.62729 -0.0001305064 0)
(19.62738 -0.0001228614 0)
(19.62747 -0.0001149029 0)
(19.62755 -0.0001066384 0)
(19.62763 -9.807824e-05 0)
(19.6277 -8.923525e-05 0)
(19.62777 -8.01252e-05 0)
(19.62782 -7.076705e-05 0)
(19.62788 -6.11832e-05 0)
(19.62792 -5.140058e-05 0)
(19.62796 -4.14526e-05 0)
(19.628 -3.138253e-05 0)
(19.62802 -2.125963e-05 0)
(19.62804 -1.117452e-05 0)
(19.62806 -1.434991e-06 0)
(28.33751 -0.001414878 0)
(21.46658 -0.0006927443 0)
(18.6962 -0.0003361057 0)
(19.43303 -0.0003383875 0)
(19.71351 -0.0003112851 0)
(19.63468 -0.0002663299 0)
(19.6064 -0.000245065 0)
(19.61492 -0.0002369416 0)
(19.61786 -0.0002334248 0)
(19.61705 -0.000233664 0)
(19.61685 -0.0002369273 0)
(19.61703 -0.0002421228 0)
(19.61716 -0.0002485422 0)
(19.61724 -0.0002557557 0)
(19.61734 -0.0002634472 0)
(19.61745 -0.000271382 0)
(19.61755 -0.0002793917 0)
(19.61766 -0.0002873543 0)
(19.61778 -0.000295181 0)
(19.6179 -0.0003028071 0)
(19.61802 -0.0003101866 0)
(19.61814 -0.000317287 0)
(19.61827 -0.0003240864 0)
(19.6184 -0.0003305711 0)
(19.61853 -0.0003367336 0)
(19.61866 -0.000342571 0)
(19.6188 -0.0003480844 0)
(19.61894 -0.0003532774 0)
(19.61908 -0.0003581559 0)
(19.61923 -0.0003627274 0)
(19.61937 -0.0003670004 0)
(19.61952 -0.0003709842 0)
(19.61967 -0.0003746885 0)
(19.61982 -0.0003781232 0)
(19.61997 -0.0003812983 0)
(19.62013 -0.0003842235 0)
(19.62028 -0.0003869083 0)
(19.62044 -0.0003893618 0)
(19.62059 -0.0003915926 0)
(19.62075 -0.0003936087 0)
(19.62091 -0.0003954175 0)
(19.62107 -0.0003970259 0)
(19.62123 -0.0003984399 0)
(19.62139 -0.0003996649 0)
(19.62155 -0.0004007053 0)
(19.62171 -0.0004015652 0)
(19.62187 -0.0004022475 0)
(19.62203 -0.0004027545 0)
(19.6222 -0.0004030876 0)
(19.62236 -0.0004032477 0)
(19.62252 -0.0004032342 0)
(19.62268 -0.0004030464 0)
(19.62284 -0.0004026824 0)
(19.62301 -0.0004021394 0)
(19.62317 -0.000401414 0)
(19.62333 -0.0004005017 0)
(19.62349 -0.0003993972 0)
(19.62365 -0.0003980946 0)
(19.62381 -0.0003965867 0)
(19.62397 -0.0003948658 0)
(19.62413 -0.000392923 0)
(19.62429 -0.000390749 0)
(19.62444 -0.0003883332 0)
(19.6246 -0.0003856644 0)
(19.62475 -0.0003827306 0)
(19.62491 -0.000379519 0)
(19.62506 -0.0003760159 0)
(19.62521 -0.0003722073 0)
(19.62536 -0.0003680781 0)
(19.62551 -0.0003636131 0)
(19.62565 -0.0003587963 0)
(19.6258 -0.0003536117 0)
(19.62594 -0.0003480426 0)
(19.62608 -0.0003420726 0)
(19.62621 -0.0003356852 0)
(19.62635 -0.0003288644 0)
(19.62648 -0.0003215942 0)
(19.62661 -0.00031386 0)
(19.62673 -0.0003056475 0)
(19.62685 -0.000296944 0)
(19.62697 -0.0002877382 0)
(19.62708 -0.0002780208 0)
(19.62719 -0.0002677843 0)
(19.6273 -0.0002570242 0)
(19.6274 -0.0002457382 0)
(19.6275 -0.0002339278 0)
(19.62759 -0.0002215973 0)
(19.62767 -0.0002087552 0)
(19.62776 -0.0001954138 0)
(19.62783 -0.0001815899 0)
(19.6279 -0.0001673043 0)
(19.62796 -0.000152583 0)
(19.62802 -0.0001374563 0)
(19.62807 -0.0001219597 0)
(19.62812 -0.0001061335 0)
(19.62816 -9.002295e-05 0)
(19.62819 -7.367661e-05 0)
(19.62822 -5.714188e-05 0)
(19.62823 -4.045602e-05 0)
(19.62825 -2.357173e-05 0)
(28.33713 -0.0009644227 0)
(21.46711 -0.0007901544 0)
(18.69676 -0.0005691348 0)
(19.43349 -0.0004907205 0)
(19.71397 -0.0004285723 0)
(19.63513 -0.0003692766 0)
(19.60683 -0.0003312582 0)
(19.61533 -0.0003110499 0)
(19.61826 -0.000301504 0)
(19.61744 -0.0002993757 0)
(19.61723 -0.0003026459 0)
(19.61741 -0.0003095648 0)
(19.61753 -0.000318858 0)
(19.61761 -0.0003296612 0)
(19.6177 -0.0003413667 0)
(19.61781 -0.0003535402 0)
(19.61791 -0.0003658742 0)
(19.61802 -0.0003781511 0)
(19.61814 -0.0003902173 0)
(19.61825 -0.0004019645 0)
(19.61837 -0.0004133181 0)
(19.6185 -0.0004242276 0)
(19.61863 -0.0004346605 0)
(19.61876 -0.0004445979 0)
(19.61889 -0.0004540308 0)
(19.61902 -0.0004629574 0)
(19.61916 -0.0004713818 0)
(19.6193 -0.0004793121 0)
(19.61944 -0.0004867594 0)
(19.61959 -0.0004937368 0)
(19.61973 -0.0005002588 0)
(19.61988 -0.0005063411 0)
(19.62003 -0.0005119994 0)
(19.62018 -0.0005172497 0)
(19.62033 -0.0005221078 0)
(19.62049 -0.0005265893 0)
(19.62064 -0.0005307087 0)
(19.6208 -0.0005344804 0)
(19.62095 -0.0005379176 0)
(19.62111 -0.0005410326 0)
(19.62127 -0.0005438368 0)
(19.62143 -0.0005463406 0)
(19.62159 -0.0005485533 0)
(19.62175 -0.000550483 0)
(19.62191 -0.0005521368 0)
(19.62207 -0.0005535207 0)
(19.62223 -0.0005546392 0)
(19.62239 -0.0005554961 0)
(19.62256 -0.0005560938 0)
(19.62272 -0.0005564333 0)
(19.62288 -0.0005565149 0)
(19.62304 -0.0005563372 0)
(19.6232 -0.0005558979 0)
(19.62337 -0.0005551935 0)
(19.62353 -0.0005542191 0)
(19.62369 -0.0005529688 0)
(19.62385 -0.0005514352 0)
(19.62401 -0.00054961 0)
(19.62417 -0.0005474835 0)
(19.62433 -0.0005450447 0)
(19.62449 -0.0005422816 0)
(19.62465 -0.0005391808 0)
(19.6248 -0.0005357278 0)
(19.62496 -0.0005319069 0)
(19.62511 -0.0005277013 0)
(19.62527 -0.0005230931 0)
(19.62542 -0.0005180633 0)
(19.62557 -0.000512592 0)
(19.62572 -0.0005066583 0)
(19.62587 -0.0005002407 0)
(19.62601 -0.0004933168 0)
(19.62616 -0.000485864 0)
(19.6263 -0.000477859 0)
(19.62644 -0.0004692786 0)
(19.62658 -0.0004600997 0)
(19.62671 -0.0004502995 0)
(19.62684 -0.0004398557 0)
(19.62697 -0.0004287472 0)
(19.6271 -0.0004169542 0)
(19.62722 -0.0004044583 0)
(19.62734 -0.0003912436 0)
(19.62745 -0.0003772967 0)
(19.62756 -0.0003626069 0)
(19.62767 -0.0003471673 0)
(19.62777 -0.0003309749 0)
(19.62786 -0.0003140309 0)
(19.62796 -0.0002963417 0)
(19.62804 -0.0002779187 0)
(19.62812 -0.000258779 0)
(19.6282 -0.0002389458 0)
(19.62827 -0.0002184485 0)
(19.62833 -0.0001973229 0)
(19.62839 -0.0001756114 0)
(19.62844 -0.0001533631 0)
(19.62849 -0.0001306339 0)
(19.62853 -0.0001074862 0)
(19.62856 -8.398823e-05 0)
(19.62859 -6.021491e-05 0)
(19.6286 -3.623942e-05 0)
(19.62862 -1.215275e-05 0)
(28.33702 -0.0005219762 0)
(21.46747 -0.0004622813 0)
(18.6971 -0.0003637211 0)
(19.43374 -0.0003429685 0)
(19.7142 -0.0003355045 0)
(19.63534 -0.0003271626 0)
(19.60703 -0.000326645 0)
(19.61551 -0.0003337768 0)
(19.61844 -0.0003452556 0)
(19.61761 -0.000359472 0)
(19.6174 -0.000375593 0)
(19.61758 -0.0003928791 0)
(19.6177 -0.0004107539 0)
(19.61778 -0.0004288215 0)
(19.61788 -0.0004468016 0)
(19.61798 -0.0004644908 0)
(19.61809 -0.0004817432 0)
(19.6182 -0.0004984563 0)
(19.61832 -0.0005145588 0)
(19.61844 -0.0005300032 0)
(19.61856 -0.0005447597 0)
(19.61868 -0.0005588122 0)
(19.61881 -0.0005721551 0)
(19.61894 -0.0005847905 0)
(19.61907 -0.000596727 0)
(19.61921 -0.0006079778 0)
(19.61935 -0.0006185594 0)
(19.61949 -0.000628491 0)
(19.61963 -0.0006377935 0)
(19.61978 -0.0006464892 0)
(19.61992 -0.0006546006 0)
(19.62007 -0.0006621507 0)
(19.62022 -0.0006691625 0)
(19.62037 -0.0006756583 0)
(19.62053 -0.0006816598 0)
(19.62068 -0.0006871881 0)
(19.62083 -0.000692263 0)
(19.62099 -0.0006969035 0)
(19.62115 -0.0007011271 0)
(19.62131 -0.0007049502 0)
(19.62146 -0.0007083878 0)
(19.62162 -0.0007114534 0)
(19.62178 -0.0007141592 0)
(19.62195 -0.000716516 0)
(19.62211 -0.000718533 0)
(19.62227 -0.0007202178 0)
(19.62243 -0.0007215768 0)
(19.62259 -0.0007226145 0)
(19.62275 -0.0007233343 0)
(19.62292 -0.0007237376 0)
(19.62308 -0.0007238247 0)
(19.62324 -0.0007235942 0)
(19.6234 -0.0007230429 0)
(19.62357 -0.0007221664 0)
(19.62373 -0.0007209585 0)
(19.62389 -0.0007194117 0)
(19.62405 -0.0007175165 0)
(19.62421 -0.0007152622 0)
(19.62437 -0.0007126362 0)
(19.62453 -0.0007096248 0)
(19.62469 -0.0007062121 0)
(19.62485 -0.000702381 0)
(19.62501 -0.0006981128 0)
(19.62517 -0.0006933873 0)
(19.62532 -0.0006881827 0)
(19.62547 -0.0006824758 0)
(19.62563 -0.000676242 0)
(19.62578 -0.0006694557 0)
(19.62593 -0.0006620895 0)
(19.62608 -0.0006541157 0)
(19.62622 -0.000645505 0)
(19.62637 -0.000636228 0)
(19.62651 -0.0006262543 0)
(19.62665 -0.0006155537 0)
(19.62679 -0.0006040956 0)
(19.62692 -0.0005918503 0)
(19.62706 -0.0005787885 0)
(19.62718 -0.0005648822 0)
(19.62731 -0.000550105 0)
(19.62743 -0.0005344327 0)
(19.62755 -0.0005178438 0)
(19.62767 -0.0005003201 0)
(19.62778 -0.000481847 0)
(19.62789 -0.0004624147 0)
(19.62799 -0.0004420182 0)
(19.62809 -0.0004206583 0)
(19.62818 -0.0003983423 0)
(19.62827 -0.0003750839 0)
(19.62835 -0.0003509045 0)
(19.62842 -0.0003258332 0)
(19.6285 -0.000299907 0)
(19.62856 -0.0002731715 0)
(19.62862 -0.0002456804 0)
(19.62867 -0.0002174957 0)
(19.62872 -0.0001886875 0)
(19.62876 -0.0001593329 0)
(19.62879 -0.0001295149 0)
(19.62882 -9.932162e-05 0)
(19.62883 -6.883646e-05 0)
(19.62885 -3.817747e-05 0)
(28.33685 -0.0003693999 0)
(21.46754 -0.0004194935 0)
(18.6972 -0.0004125782 0)
(19.43383 -0.0004239241 0)
(19.7143 -0.0004308436 0)
(19.63544 -0.0004317573 0)
(19.60713 -0.0004342155 0)
(19.61562 -0.0004406077 0)
(19.61854 -0.000450432 0)
(19.61772 -0.0004631254 0)
(19.6175 -0.0004782083 0)
(19.61768 -0.0004951119 0)
(19.6178 -0.0005132801 0)
(19.61788 -0.0005322422 0)
(19.61798 -0.0005516135 0)
(19.61808 -0.0005710841 0)
(19.61819 -0.0005904097 0)
(19.6183 -0.0006094017 0)
(19.61842 -0.0006279168 0)
(19.61854 -0.0006458489 0)
(19.61866 -0.0006631212 0)
(19.61878 -0.0006796807 0)
(19.61891 -0.0006954931 0)
(19.61904 -0.0007105388 0)
(19.61918 -0.00072481 0)
(19.61931 -0.000738308 0)
(19.61945 -0.0007510409 0)
(19.61959 -0.0007630224 0)
(19.61973 -0.0007742699 0)
(19.61988 -0.0007848037 0)
(19.62003 -0.0007946463 0)
(19.62018 -0.000803821 0)
(19.62033 -0.0008123519 0)
(19.62048 -0.0008202633 0)
(19.62063 -0.000827579 0)
(19.62079 -0.0008343223 0)
(19.62094 -0.0008405155 0)
(19.6211 -0.0008461801 0)
(19.62125 -0.000851336 0)
(19.62141 -0.000856002 0)
(19.62157 -0.0008601951 0)
(19.62173 -0.000863931 0)
(19.62189 -0.0008672237 0)
(19.62205 -0.0008700855 0)
(19.62222 -0.0008725269 0)
(19.62238 -0.0008745567 0)
(19.62254 -0.000876182 0)
(19.6227 -0.0008774081 0)
(19.62286 -0.0008782383 0)
(19.62303 -0.0008786743 0)
(19.62319 -0.0008787158 0)
(19.62335 -0.0008783609 0)
(19.62352 -0.0008776055 0)
(19.62368 -0.0008764439 0)
(19.62384 -0.0008748684 0)
(19.624 -0.0008728695 0)
(19.62416 -0.0008704356 0)
(19.62433 -0.0008675534 0)
(19.62449 -0.0008642075 0)
(19.62465 -0.0008603808 0)
(19.62481 -0.000856054 0)
(19.62497 -0.0008512062 0)
(19.62512 -0.0008458143 0)
(19.62528 -0.0008398534 0)
(19.62544 -0.000833297 0)
(19.62559 -0.0008261166 0)
(19.62574 -0.000818282 0)
(19.6259 -0.0008097614 0)
(19.62605 -0.0008005217 0)
(19.6262 -0.0007905282 0)
(19.62634 -0.0007797454 0)
(19.62649 -0.0007681365 0)
(19.62663 -0.0007556643 0)
(19.62677 -0.0007422911 0)
(19.62691 -0.0007279794 0)
(19.62705 -0.0007126918 0)
(19.62718 -0.000696392 0)
(19.62731 -0.000679045 0)
(19.62744 -0.0006606178 0)
(19.62756 -0.0006410798 0)
(19.62768 -0.0006204038 0)
(19.6278 -0.0005985665 0)
(19.62791 -0.0005755491 0)
(19.62802 -0.0005513385 0)
(19.62812 -0.0005259276 0)
(19.62822 -0.0004993165 0)
(19.62831 -0.0004715131 0)
(19.6284 -0.0004425335 0)
(19.62848 -0.000412403 0)
(19.62856 -0.0003811568 0)
(19.62863 -0.0003488399 0)
(19.6287 -0.0003155077 0)
(19.62876 -0.000281226 0)
(19.62881 -0.0002460709 0)
(19.62886 -0.0002101285 0)
(19.6289 -0.0001734941 0)
(19.62893 -0.0001362708 0)
(19.62896 -9.857088e-05 0)
(19.62898 -6.05028e-05 0)
(19.62899 -2.222649e-05 0)
(28.33676 -0.0002527247 0)
(21.46761 -0.00031875 0)
(18.6973 -0.0003367422 0)
(19.43392 -0.0003610836 0)
(19.71439 -0.000383418 0)
(19.63553 -0.0004031067 0)
(19.60721 -0.0004237957 0)
(19.61569 -0.0004467952 0)
(19.61861 -0.0004717767 0)
(19.61778 -0.000498202 0)
(19.61757 -0.0005256077 0)
(19.61774 -0.0005535465 0)
(19.61786 -0.0005816107 0)
(19.61794 -0.000609466 0)
(19.61804 -0.000636851 0)
(19.61814 -0.0006635651 0)
(19.61825 -0.0006894584 0)
(19.61836 -0.0007144229 0)
(19.61848 -0.0007383837 0)
(19.6186 -0.0007612927 0)
(19.61872 -0.0007831229 0)
(19.61885 -0.0008038634 0)
(19.61898 -0.0008235165 0)
(19.61911 -0.0008420943 0)
(19.61924 -0.0008596167 0)
(19.61938 -0.000876109 0)
(19.61952 -0.0008916011 0)
(19.61966 -0.0009061258 0)
(19.61981 -0.0009197176 0)
(19.61995 -0.0009324124 0)
(19.6201 -0.0009442465 0)
(19.62025 -0.0009552561 0)
(19.6204 -0.0009654766 0)
(19.62055 -0.0009749428 0)
(19.62071 -0.0009836881 0)
(19.62086 -0.0009917445 0)
(19.62102 -0.0009991423 0)
(19.62118 -0.00100591 0)
(19.62134 -0.001012074 0)
(19.62149 -0.001017659 0)
(19.62165 -0.001022688 0)
(19.62181 -0.00102718 0)
(19.62198 -0.001031154 0)
(19.62214 -0.001034627 0)
(19.6223 -0.001037611 0)
(19.62246 -0.001040118 0)
(19.62262 -0.001042158 0)
(19.62279 -0.001043738 0)
(19.62295 -0.001044863 0)
(19.62311 -0.001045534 0)
(19.62328 -0.001045753 0)
(19.62344 -0.001045518 0)
(19.6236 -0.001044825 0)
(19.62377 -0.001043666 0)
(19.62393 -0.001042034 0)
(19.62409 -0.001039918 0)
(19.62425 -0.001037303 0)
(19.62442 -0.001034175 0)
(19.62458 -0.001030516 0)
(19.62474 -0.001026305 0)
(19.6249 -0.001021519 0)
(19.62506 -0.001016135 0)
(19.62522 -0.001010124 0)
(19.62537 -0.001003458 0)
(19.62553 -0.0009961039 0)
(19.62569 -0.0009880288 0)
(19.62584 -0.0009791964 0)
(19.62599 -0.000969569 0)
(19.62615 -0.0009591068 0)
(19.62629 -0.0009477683 0)
(19.62644 -0.0009355108 0)
(19.62659 -0.0009222901 0)
(19.62673 -0.0009080613 0)
(19.62687 -0.000892779 0)
(19.62701 -0.0008763976 0)
(19.62715 -0.0008588717 0)
(19.62729 -0.000840157 0)
(19.62742 -0.0008202106 0)
(19.62754 -0.0007989919 0)
(19.62767 -0.000776463 0)
(19.62779 -0.0007525899 0)
(19.62791 -0.000727343 0)
(19.62802 -0.0007006984 0)
(19.62813 -0.0006726383 0)
(19.62824 -0.0006431527 0)
(19.62834 -0.0006122395 0)
(19.62843 -0.0005799062 0)
(19.62852 -0.0005461703 0)
(19.62861 -0.0005110605 0)
(19.62868 -0.0004746167 0)
(19.62876 -0.0004368915 0)
(19.62882 -0.0003979496 0)
(19.62889 -0.0003578685 0)
(19.62894 -0.0003167382 0)
(19.62899 -0.0002746605 0)
(19.62903 -0.0002317486 0)
(19.62906 -0.0001881251 0)
(19.62909 -0.0001439233 0)
(19.62911 -9.927263e-05 0)
(19.62912 -5.436542e-05 0)
(28.33667 -0.0002050626 0)
(21.4676 -0.0002953908 0)
(18.69731 -0.0003438358 0)
(19.43393 -0.0003913259 0)
(19.7144 -0.0004336377 0)
(19.63555 -0.0004703016 0)
(19.60724 -0.0005040475 0)
(19.61572 -0.0005366219 0)
(19.61864 -0.000568669 0)
(19.61781 -0.0006004139 0)
(19.6176 -0.0006319384 0)
(19.61778 -0.0006632094 0)
(19.61789 -0.0006941153 0)
(19.61798 -0.0007245164 0)
(19.61807 -0.0007542734 0)
(19.61818 -0.0007832589 0)
(19.61829 -0.0008113632 0)
(19.6184 -0.0008384967 0)
(19.61852 -0.0008645906 0)
(19.61864 -0.0008895948 0)
(19.61876 -0.0009134763 0)
(19.61889 -0.0009362171 0)
(19.61902 -0.0009578118 0)
(19.61915 -0.0009782653 0)
(19.61929 -0.0009975915 0)
(19.61943 -0.001015811 0)
(19.61957 -0.001032949 0)
(19.61971 -0.001049036 0)
(19.61986 -0.001064104 0)
(19.62 -0.001078189 0)
(19.62015 -0.001091327 0)
(19.6203 -0.001103553 0)
(19.62045 -0.001114904 0)
(19.62061 -0.001125415 0)
(19.62076 -0.001135122 0)
(19.62092 -0.001144057 0)
(19.62107 -0.001152252 0)
(19.62123 -0.001159737 0)
(19.62139 -0.001166541 0)
(19.62155 -0.001172689 0)
(19.62171 -0.001178205 0)
(19.62187 -0.00118311 0)
(19.62203 -0.001187424 0)
(19.62219 -0.001191164 0)
(19.62236 -0.001194343 0)
(19.62252 -0.001196975 0)
(19.62268 -0.001199068 0)
(19.62285 -0.00120063 0)
(19.62301 -0.001201666 0)
(19.62317 -0.001202178 0)
(19.62334 -0.001202165 0)
(19.6235 -0.001201625 0)
(19.62366 -0.001200552 0)
(19.62383 -0.001198938 0)
(19.62399 -0.001196774 0)
(19.62415 -0.001194046 0)
(19.62432 -0.001190738 0)
(19.62448 -0.001186833 0)
(19.62464 -0.001182309 0)
(19.6248 -0.001177143 0)
(19.62496 -0.001171309 0)
(19.62512 -0.001164778 0)
(19.62528 -0.001157518 0)
(19.62544 -0.001149496 0)
(19.6256 -0.001140674 0)
(19.62575 -0.001131014 0)
(19.62591 -0.001120473 0)
(19.62606 -0.001109008 0)
(19.62621 -0.001096573 0)
(19.62637 -0.001083119 0)
(19.62651 -0.001068596 0)
(19.62666 -0.001052953 0)
(19.62681 -0.001036137 0)
(19.62695 -0.001018095 0)
(19.62709 -0.0009987726 0)
(19.62723 -0.000978117 0)
(19.62736 -0.0009560755 0)
(19.6275 -0.0009325969 0)
(19.62763 -0.0009076325 0)
(19.62775 -0.000881137 0)
(19.62787 -0.000853069 0)
(19.62799 -0.0008233922 0)
(19.62811 -0.0007920769 0)
(19.62822 -0.0007591006 0)
(19.62833 -0.0007244491 0)
(19.62843 -0.0006881183 0)
(19.62852 -0.0006501146 0)
(19.62862 -0.0006104567 0)
(19.6287 -0.000569176 0)
(19.62878 -0.0005263176 0)
(19.62886 -0.0004819414 0)
(19.62892 -0.0004361221 0)
(19.62899 -0.0003889495 0)
(19.62904 -0.0003405283 0)
(19.62909 -0.0002909779 0)
(19.62913 -0.0002404314 0)
(19.62916 -0.0001890337 0)
(19.62919 -0.0001369434 0)
(19.62921 -8.431516e-05 0)
(19.62923 -3.138059e-05 0)
(28.3366 -0.0001718837 0)
(21.46759 -0.0002678137 0)
(18.69732 -0.000325655 0)
(19.43395 -0.0003802792 0)
(19.71442 -0.0004308109 0)
(19.63558 -0.0004767183 0)
(19.60726 -0.0005198805 0)
(19.61574 -0.0005617442 0)
(19.61867 -0.0006029005 0)
(19.61783 -0.0006435089 0)
(19.61762 -0.0006835772 0)
(19.6178 -0.0007230232 0)
(19.61791 -0.0007617066 0)
(19.618 -0.0007994711 0)
(19.6181 -0.0008361706 0)
(19.6182 -0.0008716795 0)
(19.61831 -0.000905896 0)
(19.61843 -0.0009387434 0)
(19.61854 -0.0009701689 0)
(19.61866 -0.00100014 0)
(19.61879 -0.001028644 0)
(19.61892 -0.001055682 0)
(19.61905 -0.001081267 0)
(19.61918 -0.001105426 0)
(19.61932 -0.001128189 0)
(19.61946 -0.001149597 0)
(19.6196 -0.001169691 0)
(19.61975 -0.001188519 0)
(19.61989 -0.001206128 0)
(19.62004 -0.001222568 0)
(19.62019 -0.001237887 0)
(19.62034 -0.001252136 0)
(19.6205 -0.001265362 0)
(19.62065 -0.001277611 0)
(19.6208 -0.001288928 0)
(19.62096 -0.001299355 0)
(19.62112 -0.001308934 0)
(19.62128 -0.001317701 0)
(19.62144 -0.001325692 0)
(19.6216 -0.001332939 0)
(19.62176 -0.001339472 0)
(19.62192 -0.001345317 0)
(19.62208 -0.001350498 0)
(19.62224 -0.001355037 0)
(19.62241 -0.00135895 0)
(19.62257 -0.001362254 0)
(19.62274 -0.001364961 0)
(19.6229 -0.001367079 0)
(19.62306 -0.001368615 0)
(19.62323 -0.001369573 0)
(19.62339 -0.001369952 0)
(19.62356 -0.001369751 0)
(19.62372 -0.001368964 0)
(19.62388 -0.001367583 0)
(19.62405 -0.001365595 0)
(19.62421 -0.001362987 0)
(19.62438 -0.001359742 0)
(19.62454 -0.001355839 0)
(19.6247 -0.001351254 0)
(19.62486 -0.001345961 0)
(19.62503 -0.00133993 0)
(19.62519 -0.001333129 0)
(19.62535 -0.001325521 0)
(19.62551 -0.001317068 0)
(19.62566 -0.001307728 0)
(19.62582 -0.001297457 0)
(19.62598 -0.001286205 0)
(19.62613 -0.001273923 0)
(19.62628 -0.001260557 0)
(19.62644 -0.001246052 0)
(19.62659 -0.00123035 0)
(19.62674 -0.001213392 0)
(19.62688 -0.001195116 0)
(19.62703 -0.00117546 0)
(19.62717 -0.001154361 0)
(19.62731 -0.001131756 0)
(19.62744 -0.001107584 0)
(19.62758 -0.001081785 0)
(19.62771 -0.001054299 0)
(19.62784 -0.001025072 0)
(19.62796 -0.0009940549 0)
(19.62808 -0.0009612028 0)
(19.6282 -0.0009264783 0)
(19.62831 -0.0008898523 0)
(19.62842 -0.0008513054 0)
(19.62852 -0.0008108294 0)
(19.62862 -0.0007684284 0)
(19.62872 -0.0007241205 0)
(19.6288 -0.0006779386 0)
(19.62889 -0.000629932 0)
(19.62896 -0.000580167 0)
(19.62903 -0.0005287274 0)
(19.62909 -0.000475715 0)
(19.62915 -0.0004212495 0)
(19.6292 -0.0003654679 0)
(19.62924 -0.0003085238 0)
(19.62928 -0.0002505849 0)
(19.62931 -0.0001918356 0)
(19.62932 -0.0001324564 0)
(19.62934 -7.271705e-05 0)
(28.33653 -0.0001592673 0)
(21.46755 -0.0002650065 0)
(18.6973 -0.0003351946 0)
(19.43393 -0.0004021824 0)
(19.71441 -0.0004662025 0)
(19.63557 -0.0005255646 0)
(19.60726 -0.000581154 0)
(19.61574 -0.0006340945 0)
(19.61866 -0.0006849564 0)
(19.61783 -0.0007339873 0)
(19.61762 -0.0007813363 0)
(19.6178 -0.000827085 0)
(19.61792 -0.0008712542 0)
(19.61801 -0.0009138298 0)
(19.6181 -0.0009547855 0)
(19.61821 -0.0009940933 0)
(19.61832 -0.001031729 0)
(19.61844 -0.001067678 0)
(19.61856 -0.001101934 0)
(19.61868 -0.001134503 0)
(19.61881 -0.001165398 0)
(19.61894 -0.001194644 0)
(19.61907 -0.001222273 0)
(19.61921 -0.001248323 0)
(19.61935 -0.001272839 0)
(19.61949 -0.001295866 0)
(19.61963 -0.001317458 0)
(19.61978 -0.001337666 0)
(19.61993 -0.001356545 0)
(19.62007 -0.001374149 0)
(19.62022 -0.001390531 0)
(19.62038 -0.001405746 0)
(19.62053 -0.001419845 0)
(19.62069 -0.001432877 0)
(19.62084 -0.00144489 0)
(19.621 -0.00145593 0)
(19.62116 -0.00146604 0)
(19.62132 -0.00147526 0)
(19.62148 -0.001483626 0)
(19.62164 -0.001491174 0)
(19.6218 -0.001497935 0)
(19.62196 -0.001503936 0)
(19.62213 -0.001509204 0)
(19.62229 -0.001513759 0)
(19.62245 -0.001517621 0)
(19.62262 -0.001520806 0)
(19.62278 -0.001523325 0)
(19.62294 -0.00152519 0)
(19.62311 -0.001526405 0)
(19.62327 -0.001526974 0)
(19.62344 -0.001526896 0)
(19.6236 -0.00152617 0)
(19.62377 -0.001524788 0)
(19.62393 -0.00152274 0)
(19.6241 -0.001520014 0)
(19.62426 -0.001516593 0)
(19.62443 -0.001512458 0)
(19.62459 -0.001507586 0)
(19.62475 -0.001501951 0)
(19.62492 -0.001495523 0)
(19.62508 -0.001488269 0)
(19.62524 -0.001480152 0)
(19.6254 -0.001471133 0)
(19.62556 -0.001461169 0)
(19.62572 -0.001450211 0)
(19.62588 -0.00143821 0)
(19.62603 -0.001425112 0)
(19.62619 -0.001410861 0)
(19.62634 -0.001395396 0)
(19.6265 -0.001378655 0)
(19.62665 -0.001360572 0)
(19.6268 -0.00134108 0)
(19.62695 -0.00132011 0)
(19.62709 -0.001297589 0)
(19.62724 -0.001273446 0)
(19.62738 -0.00124761 0)
(19.62752 -0.001220008 0)
(19.62765 -0.00119057 0)
(19.62778 -0.001159228 0)
(19.62791 -0.001125919 0)
(19.62804 -0.001090583 0)
(19.62816 -0.001053167 0)
(19.62828 -0.001013624 0)
(19.6284 -0.0009719193 0)
(19.62851 -0.0009280263 0)
(19.62861 -0.0008819322 0)
(19.62871 -0.0008336379 0)
(19.62881 -0.0007831602 0)
(19.6289 -0.0007305333 0)
(19.62898 -0.0006758099 0)
(19.62906 -0.0006190628 0)
(19.62913 -0.0005603852 0)
(19.62919 -0.0004998914 0)
(19.62925 -0.0004377171 0)
(19.6293 -0.0003740184 0)
(19.62935 -0.0003089714 0)
(19.62938 -0.0002427692 0)
(19.62941 -0.0001756251 0)
(19.62943 -0.0001077484 0)
(19.62945 -3.94529e-05 0)
(28.33646 -0.0001528771 0)
(21.46751 -0.0002648701 0)
(18.69728 -0.000341839 0)
(19.43392 -0.0004153853 0)
(19.7144 -0.0004869003 0)
(19.63556 -0.0005540898 0)
(19.60725 -0.0006173751 0)
(19.61574 -0.0006777838 0)
(19.61866 -0.0007358653 0)
(19.61783 -0.0007918551 0)
(19.61762 -0.0008458996 0)
(19.6178 -0.0008980827 0)
(19.61792 -0.0009484264 0)
(19.61801 -0.0009969161 0)
(19.61811 -0.001043524 0)
(19.61822 -0.00108822 0)
(19.61833 -0.00113098 0)
(19.61845 -0.001171789 0)
(19.61857 -0.001210644 0)
(19.6187 -0.001247555 0)
(19.61883 -0.001282544 0)
(19.61896 -0.001315641 0)
(19.61909 -0.001346887 0)
(19.61923 -0.001376332 0)
(19.61937 -0.00140403 0)
(19.61951 -0.001430041 0)
(19.61966 -0.001454425 0)
(19.6198 -0.001477248 0)
(19.61995 -0.001498575 0)
(19.6201 -0.001518471 0)
(19.62026 -0.001537001 0)
(19.62041 -0.001554228 0)
(19.62056 -0.001570214 0)
(19.62072 -0.001585017 0)
(19.62088 -0.001598693 0)
(19.62104 -0.001611297 0)
(19.6212 -0.001622879 0)
(19.62136 -0.001633484 0)
(19.62152 -0.001643157 0)
(19.62168 -0.001651938 0)
(19.62184 -0.001659863 0)
(19.622 -0.001666965 0)
(19.62217 -0.001673272 0)
(19.62233 -0.001678812 0)
(19.6225 -0.001683605 0)
(19.62266 -0.001687669 0)
(19.62283 -0.00169102 0)
(19.62299 -0.001693669 0)
(19.62316 -0.001695623 0)
(19.62332 -0.001696886 0)
(19.62349 -0.001697458 0)
(19.62365 -0.001697337 0)
(19.62382 -0.001696514 0)
(19.62399 -0.001694981 0)
(19.62415 -0.001692722 0)
(19.62432 -0.00168972 0)
(19.62448 -0.001685953 0)
(19.62464 -0.001681395 0)
(19.62481 -0.001676019 0)
(19.62497 -0.001669791 0)
(19.62514 -0.001662673 0)
(19.6253 -0.001654626 0)
(19.62546 -0.001645604 0)
(19.62562 -0.00163556 0)
(19.62578 -0.00162444 0)
(19.62594 -0.001612189 0)
(19.6261 -0.001598746 0)
(19.62626 -0.001584047 0)
(19.62641 -0.001568025 0)
(19.62657 -0.001550609 0)
(19.62672 -0.001531726 0)
(19.62687 -0.001511297 0)
(19.62702 -0.001489245 0)
(19.62717 -0.001465487 0)
(19.62731 -0.001439943 0)
(19.62746 -0.001412528 0)
(19.6276 -0.001383159 0)
(19.62773 -0.001351756 0)
(19.62787 -0.001318239 0)
(19.628 -0.001282532 0)
(19.62813 -0.001244565 0)
(19.62825 -0.001204273 0)
(19.62838 -0.001161599 0)
(19.62849 -0.001116499 0)
(19.6286 -0.001068938 0)
(19.62871 -0.001018896 0)
(19.62882 -0.000966368 0)
(19.62891 -0.0009113681 0)
(19.629 -0.0008539294 0)
(19.62909 -0.000794107 0)
(19.62917 -0.0007319783 0)
(19.62924 -0.0006676453 0)
(19.62931 -0.0006012344 0)
(19.62937 -0.0005328971 0)
(19.62942 -0.0004628093 0)
(19.62947 -0.0003911705 0)
(19.6295 -0.0003182008 0)
(19.62953 -0.0002441446 0)
(19.62955 -0.0001692422 0)