/*--------------------------------*- C++ -*----------------------------------*\
| =========                 |                                                 |
| \\      /  F ield         | OpenFOAM: The Open Source CFD Toolbox           |
|  \\    /   O peration     | Version:  2.3.0                                 |
|   \\  /    A nd           | Web:      www.OpenFOAM.org                      |
|    \\/     M anipulation  |                                                 |
\*---------------------------------------------------------------------------*/
FoamFile
{
    version     2.0;
    format      ascii;
    class       volVectorField;
    location    "9700/bottomAir";
    object      U;
}
// * * * * * * * * * * * * * * * * * * * * * * * * * * * * * * * * * * * * * //

dimensions      [0 1 -1 0 0 0 0];

internalField   nonuniform List<vector> 
4000
(
(28.06541 -0.003000142 0)
(21.25984 -0.001495683 0)
(18.52036 -0.00058844 0)
(19.25064 -0.0004511048 0)
(19.52816 -0.0003263536 0)
(19.45019 -0.0002156469 0)
(19.42231 -0.0001596075 0)
(19.43077 -0.0001290815 0)
(19.4337 -0.0001083196 0)
(19.4329 -9.44934e-05 0)
(19.4327 -8.555858e-05 0)
(19.43289 -7.962738e-05 0)
(19.43301 -7.563825e-05 0)
(19.43309 -7.299216e-05 0)
(19.43318 -7.128956e-05 0)
(19.43329 -7.025349e-05 0)
(19.43339 -6.969618e-05 0)
(19.4335 -6.948554e-05 0)
(19.43361 -6.952635e-05 0)
(19.43372 -6.974892e-05 0)
(19.43384 -7.010102e-05 0)
(19.43396 -7.054392e-05 0)
(19.43408 -7.104754e-05 0)
(19.43421 -7.158961e-05 0)
(19.43434 -7.215235e-05 0)
(19.43447 -7.272278e-05 0)
(19.4346 -7.329032e-05 0)
(19.43474 -7.38475e-05 0)
(19.43488 -7.438811e-05 0)
(19.43502 -7.490798e-05 0)
(19.43516 -7.540364e-05 0)
(19.43531 -7.587295e-05 0)
(19.43545 -7.631414e-05 0)
(19.4356 -7.672627e-05 0)
(19.43575 -7.710866e-05 0)
(19.4359 -7.746106e-05 0)
(19.43605 -7.778343e-05 0)
(19.4362 -7.807588e-05 0)
(19.43635 -7.833873e-05 0)
(19.43651 -7.857226e-05 0)
(19.43666 -7.877694e-05 0)
(19.43682 -7.895303e-05 0)
(19.43698 -7.910106e-05 0)
(19.43713 -7.922119e-05 0)
(19.43729 -7.931386e-05 0)
(19.43745 -7.93791e-05 0)
(19.43761 -7.94172e-05 0)
(19.43776 -7.942797e-05 0)
(19.43792 -7.941153e-05 0)
(19.43808 -7.936745e-05 0)
(19.43824 -7.929563e-05 0)
(19.4384 -7.919535e-05 0)
(19.43856 -7.906627e-05 0)
(19.43872 -7.890739e-05 0)
(19.43888 -7.871809e-05 0)
(19.43903 -7.849707e-05 0)
(19.43919 -7.82434e-05 0)
(19.43935 -7.795548e-05 0)
(19.43951 -7.763208e-05 0)
(19.43966 -7.727126e-05 0)
(19.43982 -7.687147e-05 0)
(19.43997 -7.643047e-05 0)
(19.44013 -7.594638e-05 0)
(19.44028 -7.541664e-05 0)
(19.44043 -7.483906e-05 0)
(19.44058 -7.421076e-05 0)
(19.44073 -7.35293e-05 0)
(19.44088 -7.279151e-05 0)
(19.44102 -7.199469e-05 0)
(19.44116 -7.113545e-05 0)
(19.44131 -7.02109e-05 0)
(19.44145 -6.921752e-05 0)
(19.44158 -6.815228e-05 0)
(19.44172 -6.70116e-05 0)
(19.44185 -6.57925e-05 0)
(19.44198 -6.449146e-05 0)
(19.44211 -6.310564e-05 0)
(19.44224 -6.163179e-05 0)
(19.44236 -6.006739e-05 0)
(19.44247 -5.840963e-05 0)
(19.44259 -5.665656e-05 0)
(19.4427 -5.480605e-05 0)
(19.4428 -5.285694e-05 0)
(19.44291 -5.080802e-05 0)
(19.443 -4.865918e-05 0)
(19.4431 -4.641041e-05 0)
(19.44318 -4.40629e-05 0)
(19.44327 -4.161809e-05 0)
(19.44334 -3.907871e-05 0)
(19.44342 -3.644788e-05 0)
(19.44348 -3.373014e-05 0)
(19.44354 -3.093061e-05 0)
(19.4436 -2.805615e-05 0)
(19.44365 -2.511495e-05 0)
(19.44369 -2.21184e-05 0)
(19.44372 -1.908326e-05 0)
(19.44375 -1.603712e-05 0)
(19.44377 -1.304065e-05 0)
(19.44379 -1.018881e-05 0)
(19.4438 -7.890769e-06 0)
(28.06015 -0.003738494 0)
(21.25732 -0.001596124 0)
(18.51583 -0.0004547371 0)
(19.24551 -0.0003642448 0)
(19.52307 -0.0002588505 0)
(19.44503 -0.000152477 0)
(19.41706 -0.0001123358 0)
(19.42549 -0.00010015 0)
(19.42841 -9.540522e-05 0)
(19.4276 -9.59649e-05 0)
(19.4274 -0.0001001565 0)
(19.42759 -0.0001060745 0)
(19.42771 -0.0001127725 0)
(19.4278 -0.0001198193 0)
(19.42789 -0.0001269488 0)
(19.428 -0.0001339926 0)
(19.42811 -0.0001408542 0)
(19.42822 -0.0001474772 0)
(19.42833 -0.0001538294 0)
(19.42845 -0.0001598931 0)
(19.42857 -0.0001656603 0)
(19.4287 -0.0001711295 0)
(19.42883 -0.0001763033 0)
(19.42896 -0.0001811871 0)
(19.42909 -0.0001857882 0)
(19.42923 -0.0001901152 0)
(19.42937 -0.0001941774 0)
(19.42951 -0.0001979848 0)
(19.42965 -0.0002015475 0)
(19.4298 -0.0002048756 0)
(19.42995 -0.0002079793 0)
(19.43009 -0.0002108685 0)
(19.43025 -0.0002135527 0)
(19.4304 -0.0002160412 0)
(19.43055 -0.0002183428 0)
(19.43071 -0.000220466 0)
(19.43086 -0.0002224186 0)
(19.43102 -0.0002242081 0)
(19.43118 -0.0002258413 0)
(19.43134 -0.0002273246 0)
(19.4315 -0.0002286637 0)
(19.43166 -0.0002298639 0)
(19.43182 -0.0002309299 0)
(19.43198 -0.0002318658 0)
(19.43214 -0.0002326752 0)
(19.43231 -0.000233361 0)
(19.43247 -0.0002339258 0)
(19.43263 -0.0002343715 0)
(19.4328 -0.0002346993 0)
(19.43296 -0.0002349102 0)
(19.43312 -0.0002350043 0)
(19.43329 -0.0002349815 0)
(19.43345 -0.0002348409 0)
(19.43362 -0.0002345811 0)
(19.43378 -0.0002342002 0)
(19.43394 -0.0002336958 0)
(19.4341 -0.000233065 0)
(19.43427 -0.0002323041 0)
(19.43443 -0.0002314092 0)
(19.43459 -0.0002303757 0)
(19.43475 -0.0002291984 0)
(19.43491 -0.0002278717 0)
(19.43507 -0.0002263895 0)
(19.43522 -0.0002247452 0)
(19.43538 -0.0002229315 0)
(19.43554 -0.000220941 0)
(19.43569 -0.0002187655 0)
(19.43584 -0.0002163967 0)
(19.43599 -0.0002138257 0)
(19.43614 -0.0002110433 0)
(19.43629 -0.0002080402 0)
(19.43643 -0.0002048068 0)
(19.43658 -0.0002013333 0)
(19.43672 -0.00019761 0)
(19.43685 -0.0001936271 0)
(19.43699 -0.0001893751 0)
(19.43712 -0.0001848447 0)
(19.43725 -0.0001800272 0)
(19.43738 -0.0001749144 0)
(19.4375 -0.0001694987 0)
(19.43762 -0.0001637736 0)
(19.43773 -0.0001577337 0)
(19.43785 -0.0001513748 0)
(19.43795 -0.0001446944 0)
(19.43805 -0.0001376913 0)
(19.43815 -0.0001303666 0)
(19.43824 -0.0001227233 0)
(19.43833 -0.0001147666 0)
(19.43841 -0.0001065041 0)
(19.43849 -9.794607e-05 0)
(19.43856 -8.910547e-05 0)
(19.43863 -7.999811e-05 0)
(19.43869 -7.064303e-05 0)
(19.43874 -6.10628e-05 0)
(19.43879 -5.128467e-05 0)
(19.43883 -4.13426e-05 0)
(19.43886 -3.128087e-05 0)
(19.43889 -2.117104e-05 0)
(19.43891 -1.110715e-05 0)
(19.43892 -1.410557e-06 0)
(28.05999 -0.001413438 0)
(21.25847 -0.0006919993 0)
(18.51638 -0.0003357519 0)
(19.24578 -0.0003380741 0)
(19.52338 -0.0003110077 0)
(19.44534 -0.0002661054 0)
(19.41736 -0.0002448751 0)
(19.42579 -0.0002367728 0)
(19.4287 -0.0002332714 0)
(19.4279 -0.0002335222 0)
(19.4277 -0.0002367939 0)
(19.42789 -0.0002419957 0)
(19.42801 -0.0002484197 0)
(19.4281 -0.0002556368 0)
(19.42819 -0.000263331 0)
(19.4283 -0.0002712678 0)
(19.42841 -0.000279279 0)
(19.42852 -0.0002872427 0)
(19.42863 -0.0002950702 0)
(19.42875 -0.0003026968 0)
(19.42887 -0.0003100766 0)
(19.42899 -0.000317177 0)
(19.42912 -0.0003239764 0)
(19.42925 -0.0003304608 0)
(19.42938 -0.000336623 0)
(19.42952 -0.0003424599 0)
(19.42966 -0.0003479728 0)
(19.4298 -0.0003531651 0)
(19.42994 -0.000358043 0)
(19.43008 -0.0003626137 0)
(19.43023 -0.0003668858 0)
(19.43038 -0.0003708687 0)
(19.43053 -0.000374572 0)
(19.43068 -0.0003780057 0)
(19.43083 -0.0003811797 0)
(19.43098 -0.0003841038 0)
(19.43114 -0.0003867875 0)
(19.43129 -0.0003892398 0)
(19.43145 -0.0003914694 0)
(19.43161 -0.0003934842 0)
(19.43177 -0.0003952918 0)
(19.43192 -0.0003968989 0)
(19.43208 -0.0003983116 0)
(19.43224 -0.0003995352 0)
(19.43241 -0.0004005743 0)
(19.43257 -0.0004014328 0)
(19.43273 -0.0004021137 0)
(19.43289 -0.0004026193 0)
(19.43305 -0.0004029511 0)
(19.43321 -0.0004031097 0)
(19.43338 -0.0004030948 0)
(19.43354 -0.0004029057 0)
(19.4337 -0.0004025402 0)
(19.43386 -0.0004019959 0)
(19.43403 -0.0004012691 0)
(19.43419 -0.0004003555 0)
(19.43435 -0.0003992497 0)
(19.43451 -0.0003979458 0)
(19.43467 -0.0003964366 0)
(19.43483 -0.0003947144 0)
(19.43499 -0.0003927705 0)
(19.43514 -0.0003905953 0)
(19.4353 -0.0003881783 0)
(19.43546 -0.0003855085 0)
(19.43561 -0.0003825737 0)
(19.43577 -0.0003793611 0)
(19.43592 -0.0003758571 0)
(19.43607 -0.0003720477 0)
(19.43622 -0.0003679178 0)
(19.43637 -0.0003634523 0)
(19.43651 -0.0003586349 0)
(19.43666 -0.0003534498 0)
(19.4368 -0.0003478803 0)
(19.43694 -0.0003419101 0)
(19.43707 -0.0003355226 0)
(19.43721 -0.0003287018 0)
(19.43734 -0.0003214318 0)
(19.43747 -0.0003136978 0)
(19.43759 -0.0003054856 0)
(19.43771 -0.0002967827 0)
(19.43783 -0.0002875776 0)
(19.43794 -0.000277861 0)
(19.43805 -0.0002676255 0)
(19.43816 -0.0002568665 0)
(19.43826 -0.0002455819 0)
(19.43836 -0.0002337729 0)
(19.43845 -0.0002214441 0)
(19.43853 -0.0002086039 0)
(19.43862 -0.0001952647 0)
(19.43869 -0.0001814431 0)
(19.43876 -0.0001671602 0)
(19.43883 -0.000152442 0)
(19.43888 -0.0001373188 0)
(19.43894 -0.0001218265 0)
(19.43898 -0.0001060055 0)
(19.43902 -8.99016e-05 0)
(19.43905 -7.356393e-05 0)
(19.43908 -5.704082e-05 0)
(19.43909 -4.037055e-05 0)
(19.43911 -2.350617e-05 0)
(28.05961 -0.000963409 0)
(21.25899 -0.0007893934 0)
(18.51693 -0.0005685983 0)
(19.24624 -0.0004902712 0)
(19.52384 -0.0004281999 0)
(19.44579 -0.000368978 0)
(19.41779 -0.000331014 0)
(19.4262 -0.0003108432 0)
(19.4291 -0.0003013243 0)
(19.42829 -0.0002992155 0)
(19.42808 -0.0003024997 0)
(19.42826 -0.0003094288 0)
(19.42838 -0.0003187292 0)
(19.42846 -0.0003295377 0)
(19.42856 -0.0003412469 0)
(19.42866 -0.0003534231 0)
(19.42877 -0.0003657589 0)
(19.42888 -0.0003780371 0)
(19.42899 -0.0003901039 0)
(19.42911 -0.0004018515 0)
(19.42923 -0.0004132051 0)
(19.42935 -0.0004241144 0)
(19.42948 -0.0004345469 0)
(19.42961 -0.0004444838 0)
(19.42974 -0.0004539158 0)
(19.42988 -0.0004628416 0)
(19.43001 -0.0004712651 0)
(19.43015 -0.0004791943 0)
(19.4303 -0.0004866404 0)
(19.43044 -0.0004936165 0)
(19.43059 -0.0005001373 0)
(19.43073 -0.0005062181 0)
(19.43088 -0.0005118749 0)
(19.43103 -0.0005171238 0)
(19.43119 -0.0005219804 0)
(19.43134 -0.0005264602 0)
(19.43149 -0.0005305781 0)
(19.43165 -0.0005343481 0)
(19.43181 -0.0005377836 0)
(19.43196 -0.0005408969 0)
(19.43212 -0.0005436994 0)
(19.43228 -0.0005462014 0)
(19.43244 -0.0005484123 0)
(19.4326 -0.0005503403 0)
(19.43276 -0.0005519923 0)
(19.43293 -0.0005533743 0)
(19.43309 -0.0005544911 0)
(19.43325 -0.0005553462 0)
(19.43341 -0.0005559421 0)
(19.43357 -0.0005562799 0)
(19.43374 -0.0005563597 0)
(19.4339 -0.0005561803 0)
(19.43406 -0.0005557393 0)
(19.43422 -0.0005550332 0)
(19.43438 -0.0005540572 0)
(19.43455 -0.0005528053 0)
(19.43471 -0.0005512702 0)
(19.43487 -0.0005494435 0)
(19.43503 -0.0005473156 0)
(19.43519 -0.0005448755 0)
(19.43535 -0.0005421111 0)
(19.4355 -0.0005390092 0)
(19.43566 -0.0005355551 0)
(19.43582 -0.0005317332 0)
(19.43597 -0.0005275268 0)
(19.43613 -0.0005229178 0)
(19.43628 -0.0005178874 0)
(19.43643 -0.0005124155 0)
(19.43658 -0.0005064815 0)
(19.43673 -0.0005000637 0)
(19.43687 -0.0004931397 0)
(19.43702 -0.000485687 0)
(19.43716 -0.0004776823 0)
(19.4373 -0.0004691024 0)
(19.43743 -0.0004599242 0)
(19.43757 -0.0004501248 0)
(19.4377 -0.0004396821 0)
(19.43783 -0.0004285749 0)
(19.43795 -0.0004167834 0)
(19.43808 -0.0004042893 0)
(19.43819 -0.0003910766 0)
(19.43831 -0.0003771319 0)
(19.43842 -0.0003624446 0)
(19.43853 -0.0003470078 0)
(19.43863 -0.0003308184 0)
(19.43872 -0.0003138777 0)
(19.43882 -0.0002961921 0)
(19.4389 -0.000277773 0)
(19.43898 -0.0002586376 0)
(19.43906 -0.000238809 0)
(19.43913 -0.0002183168 0)
(19.4392 -0.0001971967 0)
(19.43925 -0.0001754914 0)
(19.43931 -0.0001532501 0)
(19.43935 -0.0001305288 0)
(19.43939 -0.0001073904 0)
(19.43942 -8.39037e-05 0)
(19.43945 -6.014406e-05 0)
(19.43947 -3.618533e-05 0)
(19.43948 -1.211845e-05 0)
(28.0595 -0.0005213991 0)
(21.25935 -0.0004618492 0)
(18.51727 -0.0003634171 0)
(19.24649 -0.000342707 0)
(19.52406 -0.000335278 0)
(19.446 -0.0003269713 0)
(19.41798 -0.0003264799 0)
(19.42638 -0.0003336298 0)
(19.42928 -0.0003451216 0)
(19.42846 -0.0003593476 0)
(19.42825 -0.0003754755 0)
(19.42843 -0.0003927665 0)
(19.42855 -0.0004106448 0)
(19.42864 -0.0004287149 0)
(19.42873 -0.0004466966 0)
(19.42884 -0.0004643868 0)
(19.42894 -0.0004816398 0)
(19.42906 -0.000498353 0)
(19.42917 -0.0005144554 0)
(19.42929 -0.0005298994 0)
(19.42941 -0.0005446554 0)
(19.42954 -0.0005587071 0)
(19.42966 -0.000572049 0)
(19.42979 -0.0005846833 0)
(19.42993 -0.0005966186 0)
(19.43006 -0.000607868 0)
(19.4302 -0.0006184482 0)
(19.43034 -0.0006283782 0)
(19.43049 -0.0006376792 0)
(19.43063 -0.000646373 0)
(19.43078 -0.0006544827 0)
(19.43093 -0.0006620309 0)
(19.43108 -0.0006690408 0)
(19.43123 -0.0006755345 0)
(19.43138 -0.000681534 0)
(19.43153 -0.0006870602 0)
(19.43169 -0.0006921329 0)
(19.43185 -0.0006967712 0)
(19.432 -0.0007009925 0)
(19.43216 -0.0007048133 0)
(19.43232 -0.0007082485 0)
(19.43248 -0.0007113117 0)
(19.43264 -0.0007140152 0)
(19.4328 -0.0007163695 0)
(19.43296 -0.000718384 0)
(19.43312 -0.0007200664 0)
(19.43329 -0.0007214228 0)
(19.43345 -0.0007224581 0)
(19.43361 -0.0007231753 0)
(19.43377 -0.0007235762 0)
(19.43394 -0.0007236609 0)
(19.4341 -0.0007234278 0)
(19.43426 -0.0007228741 0)
(19.43442 -0.0007219952 0)
(19.43459 -0.0007207849 0)
(19.43475 -0.0007192357 0)
(19.43491 -0.0007173382 0)
(19.43507 -0.0007150816 0)
(19.43523 -0.0007124535 0)
(19.43539 -0.0007094399 0)
(19.43555 -0.0007060252 0)
(19.43571 -0.0007021922 0)
(19.43587 -0.0006979221 0)
(19.43602 -0.0006931948 0)
(19.43618 -0.0006879885 0)
(19.43633 -0.0006822801 0)
(19.43649 -0.000676045 0)
(19.43664 -0.0006692573 0)
(19.43679 -0.0006618901 0)
(19.43693 -0.0006539153 0)
(19.43708 -0.0006453039 0)
(19.43723 -0.0006360263 0)
(19.43737 -0.0006260523 0)
(19.43751 -0.0006153515 0)
(19.43765 -0.0006038935 0)
(19.43778 -0.0005916484 0)
(19.43791 -0.0005785871 0)
(19.43804 -0.0005646816 0)
(19.43817 -0.0005499054 0)
(19.43829 -0.0005342345 0)
(19.43841 -0.0005176472 0)
(19.43853 -0.0005001253 0)
(19.43864 -0.0004816544 0)
(19.43874 -0.0004622246 0)
(19.43885 -0.0004418309 0)
(19.43894 -0.0004204742 0)
(19.43904 -0.0003981616 0)
(19.43913 -0.000374907 0)
(19.43921 -0.0003507319 0)
(19.43928 -0.0003256651 0)
(19.43936 -0.000299744 0)
(19.43942 -0.0002730141 0)
(19.43948 -0.0002455291 0)
(19.43953 -0.0002173514 0)
(19.43958 -0.000188551 0)
(19.43962 -0.0001592053 0)
(19.43965 -0.0001293974 0)
(19.43968 -9.921583e-05 0)
(19.43969 -6.874387e-05 0)
(19.43971 -3.809904e-05 0)
(28.05933 -0.0003690023 0)
(21.25942 -0.0004191269 0)
(18.51737 -0.0004122572 0)
(19.24658 -0.0004236165 0)
(19.52416 -0.000430559 0)
(19.44611 -0.0004315021 0)
(19.41809 -0.0004339874 0)
(19.42649 -0.0004404022 0)
(19.42939 -0.0004502452 0)
(19.42857 -0.000462954 0)
(19.42836 -0.0004780492 0)
(19.42854 -0.0004949625 0)
(19.42865 -0.0005131383 0)
(19.42874 -0.0005321062 0)
(19.42883 -0.000551482 0)
(19.42894 -0.0005709561 0)
(19.42904 -0.0005902842 0)
(19.42915 -0.0006092778 0)
(19.42927 -0.0006277941 0)
(19.42939 -0.0006457267 0)
(19.42951 -0.0006629992 0)
(19.42964 -0.0006795585 0)
(19.42976 -0.0006953704 0)
(19.42989 -0.0007104154 0)
(19.43003 -0.0007246856 0)
(19.43017 -0.0007381824 0)
(19.4303 -0.0007509139 0)
(19.43045 -0.0007628938 0)
(19.43059 -0.0007741396 0)
(19.43073 -0.0007846716 0)
(19.43088 -0.0007945122 0)
(19.43103 -0.0008036849 0)
(19.43118 -0.0008122137 0)
(19.43133 -0.0008201228 0)
(19.43149 -0.0008274362 0)
(19.43164 -0.0008341771 0)
(19.4318 -0.0008403679 0)
(19.43195 -0.0008460299 0)
(19.43211 -0.0008511833 0)
(19.43227 -0.0008558466 0)
(19.43243 -0.000860037 0)
(19.43259 -0.0008637703 0)
(19.43275 -0.0008670603 0)
(19.43291 -0.0008699193 0)
(19.43307 -0.0008723579 0)
(19.43323 -0.000874385 0)
(19.43339 -0.0008760076 0)
(19.43356 -0.0008772309 0)
(19.43372 -0.0008780584 0)
(19.43388 -0.0008784916 0)
(19.43405 -0.0008785305 0)
(19.43421 -0.0008781729 0)
(19.43437 -0.0008774149 0)
(19.43453 -0.0008762508 0)
(19.4347 -0.0008746728 0)
(19.43486 -0.0008726714 0)
(19.43502 -0.0008702352 0)
(19.43518 -0.0008673507 0)
(19.43534 -0.0008640027 0)
(19.4355 -0.0008601739 0)
(19.43566 -0.0008558452 0)
(19.43582 -0.0008509955 0)
(19.43598 -0.000845602 0)
(19.43614 -0.0008396396 0)
(19.43629 -0.0008330819 0)
(19.43645 -0.0008259002 0)
(19.4366 -0.0008180646 0)
(19.43675 -0.0008095433 0)
(19.4369 -0.0008003031 0)
(19.43705 -0.0007903093 0)
(19.4372 -0.0007795264 0)
(19.43735 -0.0007679177 0)
(19.43749 -0.000755446 0)
(19.43763 -0.0007420736 0)
(19.43777 -0.0007277629 0)
(19.4379 -0.0007124767 0)
(19.43804 -0.0006961786 0)
(19.43817 -0.0006788337 0)
(19.43829 -0.0006604089 0)
(19.43842 -0.0006408737 0)
(19.43854 -0.0006202009 0)
(19.43865 -0.0005983671 0)
(19.43877 -0.0005753537 0)
(19.43887 -0.0005511474 0)
(19.43898 -0.0005257413 0)
(19.43908 -0.0004991355 0)
(19.43917 -0.0004713377 0)
(19.43926 -0.0004423641 0)
(19.43934 -0.0004122403 0)
(19.43942 -0.0003810012 0)
(19.43949 -0.0003486919 0)
(19.43956 -0.0003153678 0)
(19.43962 -0.0002810949 0)
(19.43967 -0.0002459493 0)
(19.43972 -0.0002100172 0)
(19.43976 -0.000173394 0)
(19.43979 -0.0001361831 0)
(19.43982 -9.849645e-05 0)
(19.43984 -6.044271e-05 0)
(19.43985 -2.218129e-05 0)
(28.05925 -0.0002524748 0)
(21.25949 -0.0003185085 0)
(18.51748 -0.0003365261 0)
(19.24667 -0.0003608765 0)
(19.52425 -0.0003832267 0)
(19.44619 -0.0004029346 0)
(19.41817 -0.0004236405 0)
(19.42656 -0.0004466537 0)
(19.42945 -0.0004716461 0)
(19.42863 -0.0004980799 0)
(19.42842 -0.0005254919 0)
(19.4286 -0.0005534353 0)
(19.42871 -0.0005815028 0)
(19.4288 -0.0006093602 0)
(19.42889 -0.0006367464 0)
(19.429 -0.0006634611 0)
(19.4291 -0.0006893545 0)
(19.42922 -0.0007143185 0)
(19.42933 -0.0007382785 0)
(19.42945 -0.0007611865 0)
(19.42957 -0.0007830153 0)
(19.4297 -0.0008037543 0)
(19.42983 -0.0008234056 0)
(19.42996 -0.0008419815 0)
(19.4301 -0.0008595018 0)
(19.43024 -0.0008759919 0)
(19.43037 -0.0008914816 0)
(19.43052 -0.0009060038 0)
(19.43066 -0.000919593 0)
(19.43081 -0.0009322851 0)
(19.43096 -0.0009441165 0)
(19.43111 -0.0009551231 0)
(19.43126 -0.0009653407 0)
(19.43141 -0.0009748038 0)
(19.43156 -0.000983546 0)
(19.43172 -0.0009915992 0)
(19.43187 -0.0009989936 0)
(19.43203 -0.001005758 0)
(19.43219 -0.001011919 0)
(19.43235 -0.0010175 0)
(19.43251 -0.001022525 0)
(19.43267 -0.001027014 0)
(19.43283 -0.001030985 0)
(19.43299 -0.001034454 0)
(19.43315 -0.001037434 0)
(19.43332 -0.001039938 0)
(19.43348 -0.001041974 0)
(19.43364 -0.001043551 0)
(19.43381 -0.001044671 0)
(19.43397 -0.001045339 0)
(19.43413 -0.001045555 0)
(19.4343 -0.001045316 0)
(19.43446 -0.001044619 0)
(19.43462 -0.001043457 0)
(19.43479 -0.001041821 0)
(19.43495 -0.001039701 0)
(19.43511 -0.001037083 0)
(19.43527 -0.001033952 0)
(19.43543 -0.00103029 0)
(19.4356 -0.001026075 0)
(19.43576 -0.001021287 0)
(19.43592 -0.0010159 0)
(19.43607 -0.001009886 0)
(19.43623 -0.001003217 0)
(19.43639 -0.0009958612 0)
(19.43654 -0.0009877839 0)
(19.4367 -0.0009789496 0)
(19.43685 -0.0009693204 0)
(19.437 -0.0009588566 0)
(19.43715 -0.0009475168 0)
(19.4373 -0.0009352582 0)
(19.43745 -0.0009220368 0)
(19.43759 -0.0009078076 0)
(19.43773 -0.0008925251 0)
(19.43787 -0.0008761438 0)
(19.43801 -0.0008586185 0)
(19.43814 -0.0008399047 0)
(19.43827 -0.0008199596 0)
(19.4384 -0.0007987426 0)
(19.43853 -0.0007762157 0)
(19.43865 -0.0007523451 0)
(19.43877 -0.0007271012 0)
(19.43888 -0.0007004599 0)
(19.43899 -0.0006724037 0)
(19.43909 -0.0006429223 0)
(19.43919 -0.0006120138 0)
(19.43929 -0.0005796858 0)
(19.43938 -0.0005459557 0)
(19.43946 -0.000510852 0)
(19.43954 -0.000474415 0)
(19.43962 -0.000436697 0)
(19.43968 -0.0003977629 0)
(19.43974 -0.0003576902 0)
(19.4398 -0.0003165689 0)
(19.43985 -0.0002745009 0)
(19.43989 -0.0002315994 0)
(19.43992 -0.0001879869 0)
(19.43995 -0.0001437967 0)
(19.43997 -9.915808e-05 0)
(19.43998 -5.4263e-05 0)
(28.05915 -0.0002048846 0)
(21.25948 -0.0002951947 0)
(18.51748 -0.0003436392 0)
(19.24668 -0.0003911224 0)
(19.52427 -0.0004334358 0)
(19.44621 -0.000470107 0)
(19.41819 -0.0005038617 0)
(19.42659 -0.000536445 0)
(19.42948 -0.0005685006 0)
(19.42866 -0.000600253 0)
(19.42845 -0.0006317841 0)
(19.42863 -0.0006630607 0)
(19.42875 -0.0006939711 0)
(19.42883 -0.0007243758 0)
(19.42893 -0.0007541356 0)
(19.42903 -0.0007831232 0)
(19.42914 -0.0008112288 0)
(19.42925 -0.0008383632 0)
(19.42937 -0.0008644574 0)
(19.42949 -0.0008894614 0)
(19.42961 -0.0009133425 0)
(19.42974 -0.0009360825 0)
(19.42987 -0.000957676 0)
(19.43001 -0.0009781282 0)
(19.43014 -0.0009974526 0)
(19.43028 -0.00101567 0)
(19.43042 -0.001032806 0)
(19.43056 -0.001048891 0)
(19.43071 -0.001063957 0)
(19.43086 -0.001078039 0)
(19.43101 -0.001091174 0)
(19.43116 -0.001103397 0)
(19.43131 -0.001114745 0)
(19.43146 -0.001125253 0)
(19.43162 -0.001134957 0)
(19.43177 -0.001143888 0)
(19.43193 -0.00115208 0)
(19.43209 -0.001159562 0)
(19.43224 -0.001166362 0)
(19.4324 -0.001172507 0)
(19.43256 -0.001178019 0)
(19.43273 -0.001182921 0)
(19.43289 -0.001187231 0)
(19.43305 -0.001190967 0)
(19.43321 -0.001194142 0)
(19.43337 -0.00119677 0)
(19.43354 -0.00119886 0)
(19.4337 -0.001200418 0)
(19.43386 -0.001201451 0)
(19.43403 -0.001201958 0)
(19.43419 -0.001201942 0)
(19.43436 -0.001201398 0)
(19.43452 -0.001200321 0)
(19.43468 -0.001198705 0)
(19.43485 -0.001196537 0)
(19.43501 -0.001193806 0)
(19.43517 -0.001190495 0)
(19.43534 -0.001186587 0)
(19.4355 -0.00118206 0)
(19.43566 -0.001176891 0)
(19.43582 -0.001171054 0)
(19.43598 -0.001164521 0)
(19.43614 -0.001157259 0)
(19.4363 -0.001149234 0)
(19.43645 -0.001140411 0)
(19.43661 -0.001130749 0)
(19.43677 -0.001120207 0)
(19.43692 -0.001108741 0)
(19.43707 -0.001096305 0)
(19.43722 -0.00108285 0)
(19.43737 -0.001068328 0)
(19.43752 -0.001052685 0)
(19.43766 -0.00103587 0)
(19.43781 -0.001017829 0)
(19.43795 -0.0009985079 0)
(19.43809 -0.0009778544 0)
(19.43822 -0.0009558152 0)
(19.43835 -0.0009323395 0)
(19.43848 -0.0009073786 0)
(19.43861 -0.000880887 0)
(19.43873 -0.0008528234 0)
(19.43885 -0.0008231516 0)
(19.43897 -0.0007918419 0)
(19.43908 -0.0007588716 0)
(19.43918 -0.0007242268 0)
(19.43929 -0.0006879032 0)
(19.43938 -0.0006499073 0)
(19.43947 -0.0006102578 0)
(19.43956 -0.0005689861 0)
(19.43964 -0.0005261373 0)
(19.43971 -0.0004817713 0)
(19.43978 -0.0004359627 0)
(19.43984 -0.0003888014 0)
(19.4399 -0.0003403921 0)
(19.43995 -0.0002908543 0)
(19.43999 -0.0002403209 0)
(19.44002 -0.0001889367 0)
(19.44005 -0.0001368603 0)
(19.44007 -8.42462e-05 0)
(19.44009 -3.132572e-05 0)
(28.05908 -0.0001717626 0)
(21.25947 -0.0002676715 0)
(18.5175 -0.0003255074 0)
(19.2467 -0.0003801248 0)
(19.52429 -0.0004306568 0)
(19.44624 -0.0004765692 0)
(19.41822 -0.0005197377 0)
(19.42661 -0.0005616079 0)
(19.42951 -0.0006027703 0)
(19.42868 -0.0006433839 0)
(19.42847 -0.0006834565 0)
(19.42865 -0.0007229057 0)
(19.42877 -0.0007615914 0)
(19.42885 -0.0007993574 0)
(19.42895 -0.0008360578 0)
(19.42905 -0.0008715667 0)
(19.42916 -0.0009057828 0)
(19.42928 -0.0009386294 0)
(19.4294 -0.0009700536 0)
(19.42952 -0.001000023 0)
(19.42964 -0.001028525 0)
(19.42977 -0.00105556 0)
(19.4299 -0.001081144 0)
(19.43004 -0.0011053 0)
(19.43017 -0.00112806 0)
(19.43031 -0.001149465 0)
(19.43046 -0.001169556 0)
(19.4306 -0.00118838 0)
(19.43075 -0.001205986 0)
(19.4309 -0.001222422 0)
(19.43104 -0.001237737 0)
(19.4312 -0.001251982 0)
(19.43135 -0.001265204 0)
(19.4315 -0.001277449 0)
(19.43166 -0.001288762 0)
(19.43182 -0.001299185 0)
(19.43197 -0.001308759 0)
(19.43213 -0.001317522 0)
(19.43229 -0.001325508 0)
(19.43245 -0.001332751 0)
(19.43261 -0.001339279 0)
(19.43277 -0.001345119 0)
(19.43294 -0.001350295 0)
(19.4331 -0.001354829 0)
(19.43326 -0.001358738 0)
(19.43343 -0.001362037 0)
(19.43359 -0.001364739 0)
(19.43375 -0.001366852 0)
(19.43392 -0.001368383 0)
(19.43408 -0.001369336 0)
(19.43425 -0.001369711 0)
(19.43441 -0.001369505 0)
(19.43458 -0.001368713 0)
(19.43474 -0.001367326 0)
(19.4349 -0.001365334 0)
(19.43507 -0.001362722 0)
(19.43523 -0.001359472 0)
(19.4354 -0.001355564 0)
(19.43556 -0.001350975 0)
(19.43572 -0.001345678 0)
(19.43588 -0.001339643 0)
(19.43604 -0.001332838 0)
(19.4362 -0.001325227 0)
(19.43636 -0.001316771 0)
(19.43652 -0.001307427 0)
(19.43668 -0.001297152 0)
(19.43683 -0.001285898 0)
(19.43699 -0.001273613 0)
(19.43714 -0.001260246 0)
(19.43729 -0.001245739 0)
(19.43744 -0.001230036 0)
(19.43759 -0.001213076 0)
(19.43774 -0.0011948 0)
(19.43788 -0.001175143 0)
(19.43803 -0.001154045 0)
(19.43816 -0.001131441 0)
(19.4383 -0.00110727 0)
(19.43844 -0.001081472 0)
(19.43857 -0.001053988 0)
(19.4387 -0.001024764 0)
(19.43882 -0.0009937506 0)
(19.43894 -0.0009609025 0)
(19.43906 -0.0009261825 0)
(19.43917 -0.0008895616 0)
(19.43928 -0.0008510206 0)
(19.43938 -0.0008105509 0)
(19.43948 -0.000768157 0)
(19.43957 -0.0007238567 0)
(19.43966 -0.000677683 0)
(19.43974 -0.0006296853 0)
(19.43982 -0.0005799298 0)
(19.43989 -0.0005285002 0)
(19.43995 -0.0004754984 0)
(19.44001 -0.000421044 0)
(19.44006 -0.0003652739 0)
(19.4401 -0.0003083417 0)
(19.44014 -0.000250415 0)
(19.44016 -0.0001916782 0)
(19.44018 -0.0001323113 0)
(19.4402 -7.25841e-05 0)
(28.05901 -0.0001591776 0)
(21.25944 -0.0002648903 0)
(18.51748 -0.0003350655 0)
(19.24668 -0.0004020409 0)
(19.52428 -0.0004660543 0)
(19.44623 -0.0005254138 0)
(19.41821 -0.0005810028 0)
(19.42661 -0.0006339443 0)
(19.4295 -0.0006848077 0)
(19.42868 -0.0007338404 0)
(19.42847 -0.000781191 0)
(19.42865 -0.0008269413 0)
(19.42877 -0.0008711115 0)
(19.42886 -0.0009136879 0)
(19.42896 -0.000954644 0)
(19.42906 -0.0009939517 0)
(19.42918 -0.001031587 0)
(19.42929 -0.001067535 0)
(19.42941 -0.00110179 0)
(19.42954 -0.001134357 0)
(19.42966 -0.001165251 0)
(19.42979 -0.001194495 0)
(19.42993 -0.001222122 0)
(19.43006 -0.00124817 0)
(19.4302 -0.001272682 0)
(19.43034 -0.001295707 0)
(19.43049 -0.001317296 0)
(19.43063 -0.001337501 0)
(19.43078 -0.001356376 0)
(19.43093 -0.001373976 0)
(19.43108 -0.001390355 0)
(19.43123 -0.001405566 0)
(19.43138 -0.001419661 0)
(19.43154 -0.001432688 0)
(19.4317 -0.001444698 0)
(19.43185 -0.001455734 0)
(19.43201 -0.001465839 0)
(19.43217 -0.001475054 0)
(19.43233 -0.001483416 0)
(19.43249 -0.00149096 0)
(19.43265 -0.001497716 0)
(19.43282 -0.001503712 0)
(19.43298 -0.001508975 0)
(19.43314 -0.001513526 0)
(19.43331 -0.001517383 0)
(19.43347 -0.001520563 0)
(19.43364 -0.001523078 0)
(19.4338 -0.001524937 0)
(19.43396 -0.001526147 0)
(19.43413 -0.001526712 0)
(19.43429 -0.00152663 0)
(19.43446 -0.001525899 0)
(19.43462 -0.001524512 0)
(19.43479 -0.00152246 0)
(19.43495 -0.001519729 0)
(19.43512 -0.001516304 0)
(19.43528 -0.001512165 0)
(19.43545 -0.00150729 0)
(19.43561 -0.001501651 0)
(19.43577 -0.001495219 0)
(19.43593 -0.001487962 0)
(19.4361 -0.001479843 0)
(19.43626 -0.001470821 0)
(19.43642 -0.001460853 0)
(19.43658 -0.001449893 0)
(19.43673 -0.001437891 0)
(19.43689 -0.001424791 0)
(19.43705 -0.001410539 0)
(19.4372 -0.001395073 0)
(19.43735 -0.001378332 0)
(19.43751 -0.001360249 0)
(19.43766 -0.001340757 0)
(19.4378 -0.001319787 0)
(19.43795 -0.001297268 0)
(19.43809 -0.001273128 0)
(19.43823 -0.001247294 0)
(19.43837 -0.001219695 0)
(19.43851 -0.001190261 0)
(19.43864 -0.001158924 0)
(19.43877 -0.00112562 0)
(19.4389 -0.001090289 0)
(19.43902 -0.001052879 0)
(19.43914 -0.001013344 0)
(19.43925 -0.0009716471 0)
(19.43936 -0.0009277628 0)
(19.43947 -0.000881678 0)
(19.43957 -0.0008333938 0)
(19.43967 -0.000782927 0)
(19.43975 -0.0007303116 0)
(19.43984 -0.0006756005 0)
(19.43992 -0.0006188663 0)
(19.43999 -0.0005602022 0)
(19.44005 -0.0004997226 0)
(19.44011 -0.0004375629 0)
(19.44016 -0.0003738793 0)
(19.44021 -0.0003088476 0)
(19.44024 -0.0002426609 0)
(19.44027 -0.0001755325 0)
(19.44029 -0.0001076712 0)
(19.44031 -3.939098e-05 0)
(28.05895 -0.0001528119 0)
(21.2594 -0.0002647793 0)
(18.51745 -0.000341734 0)
(19.24666 -0.0004152684 0)
(19.52426 -0.0004867762 0)
(19.44622 -0.0005539621 0)
(19.41821 -0.000617246 0)
(19.42661 -0.0006776547 0)
(19.4295 -0.000735737 0)
(19.42868 -0.0007917278 0)
(19.42848 -0.0008457732 0)
(19.42866 -0.000897957 0)
(19.42878 -0.000948301 0)
(19.42886 -0.0009967907 0)
(19.42896 -0.001043398 0)
(19.42907 -0.001088093 0)
(19.42919 -0.001130852 0)
(19.4293 -0.001171659 0)
(19.42942 -0.001210512 0)
(19.42955 -0.001247421 0)
(19.42968 -0.001282407 0)
(19.42981 -0.001315501 0)
(19.42995 -0.001346744 0)
(19.43008 -0.001376186 0)
(19.43022 -0.00140388 0)
(19.43037 -0.001429886 0)
(19.43051 -0.001454267 0)
(19.43066 -0.001477085 0)
(19.43081 -0.001498408 0)
(19.43096 -0.001518299 0)
(19.43111 -0.001536825 0)
(19.43126 -0.001554047 0)
(19.43142 -0.001570027 0)
(19.43157 -0.001584825 0)
(19.43173 -0.001598496 0)
(19.43189 -0.001611095 0)
(19.43205 -0.00162267 0)
(19.43221 -0.00163327 0)
(19.43237 -0.001642937 0)
(19.43253 -0.001651712 0)
(19.4327 -0.001659631 0)
(19.43286 -0.001666727 0)
(19.43302 -0.001673029 0)
(19.43319 -0.001678562 0)
(19.43335 -0.001683348 0)
(19.43352 -0.001687407 0)
(19.43368 -0.001690752 0)
(19.43385 -0.001693394 0)
(19.43401 -0.001695342 0)
(19.43418 -0.001696598 0)
(19.43434 -0.001697164 0)
(19.43451 -0.001697037 0)
(19.43467 -0.001696208 0)
(19.43484 -0.001694669 0)
(19.43501 -0.001692404 0)
(19.43517 -0.001689396 0)
(19.43534 -0.001685623 0)
(19.4355 -0.00168106 0)
(19.43567 -0.001675678 0)
(19.43583 -0.001669444 0)
(19.43599 -0.001662321 0)
(19.43615 -0.001654269 0)
(19.43632 -0.001645243 0)
(19.43648 -0.001635194 0)
(19.43664 -0.00162407 0)
(19.4368 -0.001611815 0)
(19.43696 -0.001598369 0)
(19.43711 -0.001583667 0)
(19.43727 -0.001567642 0)
(19.43742 -0.001550223 0)
(19.43758 -0.001531338 0)
(19.43773 -0.001510908 0)
(19.43788 -0.001488854 0)
(19.43802 -0.001465097 0)
(19.43817 -0.001439552 0)
(19.43831 -0.001412138 0)
(19.43845 -0.001382771 0)
(19.43859 -0.00135137 0)
(19.43873 -0.001317855 0)
(19.43886 -0.001282152 0)
(19.43899 -0.001244189 0)
(19.43911 -0.001203901 0)
(19.43923 -0.001161234 0)
(19.43935 -0.00111614 0)
(19.43946 -0.001068587 0)
(19.43957 -0.001018552 0)
(19.43967 -0.0009660332 0)
(19.43977 -0.0009110429 0)
(19.43986 -0.0008536146 0)
(19.43995 -0.0007938033 0)
(19.44003 -0.0007316864 0)
(19.4401 -0.0006673658 0)
(19.44017 -0.000600968 0)
(19.44023 -0.0005326441 0)
(19.44028 -0.0004625701 0)
(19.44033 -0.0003909454 0)
(19.44036 -0.00031799 0)
(19.44039 -0.0002439479 0)