/*--------------------------------*- C++ -*----------------------------------*\
| =========                 |                                                 |
| \\      /  F ield         | OpenFOAM: The Open Source CFD Toolbox           |
|  \\    /   O peration     | Version:  2.3.0                                 |
|   \\  /    A nd           | Web:      www.OpenFOAM.org                      |
|    \\/     M anipulation  |                                                 |
\*---------------------------------------------------------------------------*/
FoamFile
{
    version     2.0;
    format      ascii;
    class       surfaceScalarField;
    location    "9900/bottomAir";
    object      phi;
}
// * * * * * * * * * * * * * * * * * * * * * * * * * * * * * * * * * * * * * //

dimensions      [1 0 -1 0 0 0 0];

internalField   nonuniform List<scalar> 
7860
(
0.006667747
-1.218464e-06
0.006668103
-3.546588e-07
0.006668193
-8.964911e-08
0.006668306
-1.122393e-07
0.006668389
-8.235638e-08
0.006668444
-5.39279e-08
0.006668489
-4.549178e-08
0.006668532
-4.27125e-08
0.006668573
-4.126269e-08
0.006668615
-4.128973e-08
0.006668657
-4.232871e-08
0.006668701
-4.385402e-08
0.006668746
-4.563679e-08
0.006668794
-4.756273e-08
0.006668843
-4.955261e-08
0.006668895
-5.155254e-08
0.006668948
-5.35293e-08
0.006669003
-5.546095e-08
0.006669061
-5.733295e-08
0.00666912
-5.913583e-08
0.006669181
-6.086336e-08
0.006669243
-6.251212e-08
0.006669307
-6.408006e-08
0.006669372
-6.556684e-08
0.006669439
-6.697265e-08
0.006669508
-6.829881e-08
0.006669577
-6.954677e-08
0.006669648
-7.07187e-08
0.00666972
-7.181672e-08
0.006669792
-7.284343e-08
0.006669866
-7.380125e-08
0.006669941
-7.469289e-08
0.006670016
-7.552088e-08
0.006670092
-7.628785e-08
0.006670169
-7.699626e-08
0.006670247
-7.764858e-08
0.006670325
-7.824707e-08
0.006670404
-7.879395e-08
0.006670483
-7.929125e-08
0.006670563
-7.974089e-08
0.006670643
-8.014461e-08
0.006670723
-8.050398e-08
0.006670804
-8.082047e-08
0.006670885
-8.109528e-08
0.006670967
-8.132954e-08
0.006671048
-8.152411e-08
0.00667113
-8.167979e-08
0.006671212
-8.179706e-08
0.006671293
-8.187639e-08
0.006671375
-8.19179e-08
0.006671457
-8.192171e-08
0.006671539
-8.188756e-08
0.006671621
-8.181524e-08
0.006671702
-8.170413e-08
0.006671784
-8.155365e-08
0.006671865
-8.136281e-08
0.006671946
-8.113068e-08
0.006672027
-8.085592e-08
0.006672108
-8.053722e-08
0.006672188
-8.017288e-08
0.006672268
-7.976125e-08
0.006672347
-7.930025e-08
0.006672426
-7.878788e-08
0.006672504
-7.822172e-08
0.006672582
-7.759945e-08
0.006672658
-7.691832e-08
0.006672735
-7.617568e-08
0.00667281
-7.536849e-08
0.006672884
-7.449386e-08
0.006672958
-7.354851e-08
0.006673031
-7.252932e-08
0.006673102
-7.143286e-08
0.006673172
-7.025591e-08
0.006673241
-6.899499e-08
0.006673309
-6.764686e-08
0.006673375
-6.620812e-08
0.00667344
-6.467571e-08
0.006673503
-6.304647e-08
0.006673564
-6.13177e-08
0.006673624
-5.948669e-08
0.006673681
-5.755131e-08
0.006673737
-5.550955e-08
0.00667379
-5.33601e-08
0.006673841
-5.110191e-08
0.00667389
-4.873475e-08
0.006673936
-4.625879e-08
0.00667398
-4.367514e-08
0.006674021
-4.098545e-08
0.006674059
-3.81924e-08
0.006674094
-3.529933e-08
0.006674126
-3.231069e-08
0.006674156
-2.923168e-08
0.006674182
-2.606878e-08
0.006674204
-2.28294e-08
0.006674224
-1.952266e-08
0.00667424
-1.615984e-08
0.006674253
-1.27559e-08
0.006674262
-9.33633e-09
0.006674268
-5.934447e-09
-2.683628e-09
0.006666759
-6.614181e-07
0.006666762
-3.571136e-07
0.006666825
-1.517989e-07
0.006666843
-1.286927e-07
0.00666687
-1.092874e-07
0.006666905
-8.826144e-08
0.00666694
-8.015289e-08
0.006666975
-7.852999e-08
0.006667013
-7.90533e-08
0.006667053
-8.108022e-08
0.006667095
-8.416855e-08
0.006667139
-8.783544e-08
0.006667185
-9.180042e-08
0.006667233
-9.590949e-08
0.006667283
-1.000576e-07
0.006667336
-1.041729e-07
0.006667391
-1.08207e-07
0.006667447
-1.121278e-07
0.006667506
-1.159135e-07
0.006667566
-1.195497e-07
0.006667628
-1.230274e-07
0.006667692
-1.263414e-07
0.006667757
-1.294898e-07
0.006667824
-1.324722e-07
0.006667892
-1.352905e-07
0.006667962
-1.379472e-07
0.006668033
-1.404463e-07
0.006668105
-1.427919e-07
0.006668178
-1.44989e-07
0.006668252
-1.470426e-07
0.006668327
-1.489581e-07
0.006668403
-1.507406e-07
0.00666848
-1.523956e-07
0.006668557
-1.539283e-07
0.006668636
-1.553437e-07
0.006668715
-1.566468e-07
0.006668794
-1.578422e-07
0.006668874
-1.589344e-07
0.006668955
-1.599274e-07
0.006669036
-1.608251e-07
0.006669117
-1.616311e-07
0.006669199
-1.623484e-07
0.006669281
-1.6298e-07
0.006669364
-1.635284e-07
0.006669446
-1.639957e-07
0.006669529
-1.643839e-07
0.006669612
-1.646943e-07
0.006669695
-1.649281e-07
0.006669779
-1.65086e-07
0.006669862
-1.651686e-07
0.006669945
-1.651758e-07
0.006670028
-1.651074e-07
0.006670111
-1.649626e-07
0.006670194
-1.647405e-07
0.006670277
-1.644397e-07
0.00667036
-1.640585e-07
0.006670442
-1.635947e-07
0.006670524
-1.630459e-07
0.006670606
-1.624093e-07
0.006670688
-1.616817e-07
0.006670769
-1.608595e-07
0.006670849
-1.599389e-07
0.00667093
-1.589156e-07
0.006671009
-1.57785e-07
0.006671088
-1.565421e-07
0.006671166
-1.551818e-07
0.006671244
-1.536984e-07
0.006671321
-1.520862e-07
0.006671396
-1.50339e-07
0.006671471
-1.484506e-07
0.006671545
-1.464145e-07
0.006671618
-1.442239e-07
0.00667169
-1.418722e-07
0.00667176
-1.393527e-07
0.006671829
-1.366585e-07
0.006671896
-1.337831e-07
0.006671962
-1.3072e-07
0.006672027
-1.274632e-07
0.00667209
-1.240069e-07
0.00667215
-1.203459e-07
0.006672209
-1.164756e-07
0.006672266
-1.123922e-07
0.006672321
-1.080928e-07
0.006672373
-1.035754e-07
0.006672423
-9.88392e-08
0.006672471
-9.388486e-08
0.006672516
-8.871418e-08
0.006672558
-8.333074e-08
0.006672598
-7.773951e-08
0.006672635
-7.194744e-08
0.006672668
-6.596305e-08
0.006672699
-5.979693e-08
0.006672726
-5.346141e-08
0.00667275
-4.697096e-08
0.006672771
-4.034197e-08
0.006672789
-3.359314e-08
0.006672803
-2.674538e-08
0.006672813
-1.982277e-08
0.00667282
-1.28506e-08
-5.861826e-09
0.006667032
-3.680415e-07
0.006666929
-2.536157e-07
0.006666931
-1.530762e-07
0.006666941
-1.376048e-07
0.006666962
-1.291182e-07
0.006666992
-1.184099e-07
0.006667026
-1.141065e-07
0.006667062
-1.145783e-07
0.0066671
-1.172166e-07
0.006667141
-1.212857e-07
0.006667183
-1.263894e-07
0.006667227
-1.321174e-07
0.006667273
-1.38182e-07
0.006667322
-1.443998e-07
0.006667372
-1.50643e-07
0.006667425
-1.5682e-07
0.006667479
-1.628669e-07
0.006667536
-1.687394e-07
0.006667594
-1.744069e-07
0.006667654
-1.798493e-07
0.006667716
-1.850534e-07
0.00666778
-1.900121e-07
0.006667845
-1.947222e-07
0.006667912
-1.991838e-07
0.00666798
-2.033993e-07
0.006668049
-2.073729e-07
0.00666812
-2.111103e-07
0.006668192
-2.146181e-07
0.006668264
-2.179033e-07
0.006668338
-2.209738e-07
0.006668413
-2.238374e-07
0.006668489
-2.265022e-07
0.006668565
-2.289762e-07
0.006668643
-2.312671e-07
0.006668721
-2.333828e-07
0.006668799
-2.353304e-07
0.006668878
-2.37117e-07
0.006668958
-2.387492e-07
0.006669038
-2.402333e-07
0.006669119
-2.415749e-07
0.0066692
-2.427794e-07
0.006669282
-2.438514e-07
0.006669364
-2.447954e-07
0.006669446
-2.45615e-07
0.006669528
-2.463136e-07
0.00666961
-2.468939e-07
0.006669693
-2.47358e-07
0.006669776
-2.477077e-07
0.006669859
-2.479442e-07
0.006669941
-2.48068e-07
0.006670024
-2.480793e-07
0.006670107
-2.479775e-07
0.00667019
-2.477617e-07
0.006670273
-2.474304e-07
0.006670355
-2.469815e-07
0.006670437
-2.464125e-07
0.00667052
-2.4572e-07
0.006670601
-2.449006e-07
0.006670683
-2.439498e-07
0.006670764
-2.42863e-07
0.006670845
-2.416348e-07
0.006670925
-2.402593e-07
0.006671005
-2.387302e-07
0.006671084
-2.370405e-07
0.006671163
-2.35183e-07
0.006671241
-2.331495e-07
0.006671318
-2.309319e-07
0.006671394
-2.285213e-07
0.00667147
-2.259085e-07
0.006671545
-2.230841e-07
0.006671618
-2.200382e-07
0.006671691
-2.167609e-07
0.006671762
-2.132418e-07
0.006671832
-2.094709e-07
0.006671901
-2.054379e-07
0.006671968
-2.011327e-07
0.006672034
-1.965457e-07
0.006672098
-1.916676e-07
0.006672161
-1.864895e-07
0.006672221
-1.810036e-07
0.00667228
-1.752028e-07
0.006672337
-1.690813e-07
0.006672391
-1.626343e-07
0.006672444
-1.55859e-07
0.006672494
-1.487539e-07
0.006672541
-1.413197e-07
0.006672586
-1.335592e-07
0.006672628
-1.254774e-07
0.006672667
-1.170819e-07
0.006672704
-1.083827e-07
0.006672737
-9.939285e-08
0.006672767
-9.012784e-08
0.006672795
-8.060626e-08
0.006672818
-7.084945e-08
0.006672839
-6.088168e-08
0.006672856
-5.073001e-08
0.00667287
-4.042401e-08
0.00667288
-2.99956e-08
0.006672887
-1.947506e-08
-8.893024e-09
0.006667122
-2.107038e-07
0.006667062
-1.935092e-07
0.006667065
-1.553338e-07
0.006667077
-1.480803e-07
0.006667094
-1.456224e-07
0.006667118
-1.42485e-07
0.006667147
-1.428265e-07
0.006667179
-1.465365e-07
0.006667214
-1.521734e-07
0.006667252
-1.590558e-07
0.006667292
-1.66803e-07
0.006667335
-1.750714e-07
0.00666738
-1.835965e-07
0.006667428
-1.92196e-07
0.006667478
-2.007398e-07
0.00666753
-2.091338e-07
0.006667585
-2.173109e-07
0.006667641
-2.25224e-07
0.006667699
-2.32841e-07
0.00666776
-2.401405e-07
0.006667822
-2.471096e-07
0.006667885
-2.537415e-07
0.006667951
-2.600345e-07
0.006668017
-2.659902e-07
0.006668085
-2.716133e-07
0.006668155
-2.769104e-07
0.006668226
-2.818899e-07
0.006668297
-2.865612e-07
0.00666837
-2.909344e-07
0.006668444
-2.950201e-07
0.006668519
-2.988293e-07
0.006668595
-3.02373e-07
0.006668672
-3.056621e-07
0.006668749
-3.087071e-07
0.006668827
-3.115186e-07
0.006668906
-3.141063e-07
0.006668985
-3.164797e-07
0.006669065
-3.186477e-07
0.006669146
-3.206187e-07
0.006669226
-3.224003e-07
0.006669308
-3.239997e-07
0.006669389
-3.254232e-07
0.006669471
-3.266767e-07
0.006669553
-3.277651e-07
0.006669635
-3.286928e-07
0.006669718
-3.294635e-07
0.006669801
-3.300802e-07
0.006669883
-3.30545e-07
0.006669966
-3.308596e-07
0.006670049
-3.310249e-07
0.006670132
-3.310408e-07
0.006670215
-3.309069e-07
0.006670298
-3.306217e-07
0.006670381
-3.301834e-07
0.006670463
-3.295891e-07
0.006670546
-3.288354e-07
0.006670628
-3.27918e-07
0.00667071
-3.268321e-07
0.006670791
-3.25572e-07
0.006670873
-3.241312e-07
0.006670953
-3.225028e-07
0.006671034
-3.206789e-07
0.006671114
-3.186509e-07
0.006671193
-3.164096e-07
0.006671272
-3.139451e-07
0.00667135
-3.112469e-07
0.006671427
-3.083038e-07
0.006671504
-3.051039e-07
0.00667158
-3.016351e-07
0.006671654
-2.978845e-07
0.006671728
-2.938389e-07
0.006671801
-2.894849e-07
0.006671872
-2.848088e-07
0.006671943
-2.797967e-07
0.006672012
-2.744349e-07
0.006672079
-2.687098e-07
0.006672145
-2.626082e-07
0.00667221
-2.561175e-07
0.006672272
-2.492258e-07
0.006672333
-2.419221e-07
0.006672392
-2.341968e-07
0.006672449
-2.260418e-07
0.006672504
-2.174505e-07
0.006672557
-2.084187e-07
0.006672607
-1.989443e-07
0.006672655
-1.890278e-07
0.0066727
-1.786726e-07
0.006672742
-1.678852e-07
0.006672782
-1.566755e-07
0.006672818
-1.450567e-07
0.006672852
-1.33046e-07
0.006672882
-1.20664e-07
0.00667291
-1.079352e-07
0.006672934
-9.488789e-08
0.006672954
-8.155403e-08
0.006672972
-6.796898e-08
0.006672985
-5.417098e-08
0.006672996
-4.02015e-08
0.006673002
-2.610056e-08
-1.192441e-08
0.006667189
-1.419843e-07
0.006667152
-1.548586e-07
0.006667143
-1.460074e-07
0.006667146
-1.497591e-07
0.006667156
-1.557753e-07
0.006667175
-1.611655e-07
0.006667201
-1.678926e-07
0.006667231
-1.763468e-07
0.006667264
-1.859437e-07
0.006667301
-1.962758e-07
0.006667342
-2.070952e-07
0.006667385
-2.181777e-07
0.00666743
-2.293329e-07
0.006667479
-2.404164e-07
0.006667529
-2.513198e-07
0.006667582
-2.619614e-07
0.006667637
-2.722809e-07
0.006667694
-2.822353e-07
0.006667752
-2.917945e-07
0.006667813
-3.009391e-07
0.006667876
-3.096579e-07
0.00666794
-3.179459e-07
0.006668005
-3.258033e-07
0.006668073
-3.332342e-07
0.006668141
-3.402458e-07
0.006668211
-3.468475e-07
0.006668282
-3.530504e-07
0.006668354
-3.588669e-07
0.006668428
-3.643103e-07
0.006668502
-3.693942e-07
0.006668577
-3.741327e-07
0.006668653
-3.785397e-07
0.00666873
-3.826291e-07
0.006668808
-3.864144e-07
0.006668886
-3.899085e-07
0.006668965
-3.931241e-07
0.006669045
-3.960729e-07
0.006669125
-3.987663e-07
0.006669205
-4.012146e-07
0.006669286
-4.034276e-07
0.006669368
-4.054141e-07
0.00666945
-4.071821e-07
0.006669532
-4.087389e-07
0.006669614
-4.100907e-07
0.006669696
-4.112431e-07
0.006669779
-4.122006e-07
0.006669862
-4.129669e-07
0.006669945
-4.135448e-07
0.006670028
-4.139363e-07
0.006670111
-4.141424e-07
0.006670194
-4.141633e-07
0.006670277
-4.139983e-07
0.00667036
-4.136456e-07
0.006670443
-4.131027e-07
0.006670526
-4.123663e-07
0.006670608
-4.11432e-07
0.006670691
-4.102945e-07
0.006670773
-4.089477e-07
0.006670855
-4.073845e-07
0.006670936
-4.055969e-07
0.006671017
-4.035761e-07
0.006671098
-4.013121e-07
0.006671178
-3.987944e-07
0.006671258
-3.960114e-07
0.006671337
-3.929505e-07
0.006671415
-3.895987e-07
0.006671492
-3.859417e-07
0.006671569
-3.819649e-07
0.006671645
-3.776527e-07
0.00667172
-3.729889e-07
0.006671795
-3.679571e-07
0.006671868
-3.625401e-07
0.006671939
-3.567205e-07
0.00667201
-3.504809e-07
0.00667208
-3.438038e-07
0.006672147
-3.366718e-07
0.006672214
-3.290682e-07
0.006672279
-3.209767e-07
0.006672342
-3.12382e-07
0.006672403
-3.032701e-07
0.006672463
-2.936283e-07
0.00667252
-2.83446e-07
0.006672575
-2.727147e-07
0.006672628
-2.614283e-07
0.006672679
-2.495838e-07
0.006672727
-2.371815e-07
0.006672773
-2.24225e-07
0.006672815
-2.107222e-07
0.006672855
-1.966849e-07
0.006672893
-1.821296e-07
0.006672927
-1.670773e-07
0.006672957
-1.515538e-07
0.006672985
-1.355898e-07
0.006673009
-1.192206e-07
0.00667303
-1.02486e-07
0.006673048
-8.543034e-08
0.006673062
-6.810134e-08
0.006673072
-5.055081e-08
0.006673079
-3.28287e-08
-1.500689e-08
0.006667192
-9.970589e-08
0.006667168
-1.30587e-07
0.006667164
-1.414215e-07
0.006667171
-1.550195e-07
0.006667184
-1.685267e-07
0.006667204
-1.808304e-07
0.006667229
-1.93146e-07
0.006667259
-2.060688e-07
0.006667293
-2.195024e-07
0.00666733
-2.332595e-07
0.00666737
-2.471937e-07
0.006667413
-2.611606e-07
0.006667458
-2.750223e-07
0.006667506
-2.886636e-07
0.006667557
-3.019929e-07
0.00666761
-3.149391e-07
0.006667665
-3.274484e-07
0.006667722
-3.394818e-07
0.006667781
-3.510128e-07
0.006667842
-3.620246e-07
0.006667905
-3.725086e-07
0.006667969
-3.824629e-07
0.006668035
-3.918905e-07
0.006668103
-4.007985e-07
0.006668172
-4.091973e-07
0.006668242
-4.170997e-07
0.006668313
-4.245202e-07
0.006668386
-4.314747e-07
0.00666846
-4.379798e-07
0.006668534
-4.440526e-07
0.00666861
-4.497105e-07
0.006668686
-4.549708e-07
0.006668763
-4.598502e-07
0.006668841
-4.643654e-07
0.00666892
-4.685323e-07
0.006668999
-4.723661e-07
0.006669079
-4.758812e-07
0.006669159
-4.790911e-07
0.00666924
-4.820086e-07
0.006669321
-4.846453e-07
0.006669402
-4.87012e-07
0.006669484
-4.891182e-07
0.006669567
-4.909728e-07
0.006669649
-4.925834e-07
0.006669732
-4.939564e-07
0.006669815
-4.950975e-07
0.006669898
-4.960111e-07
0.006669981
-4.967005e-07
0.006670064
-4.971682e-07
0.006670147
-4.974153e-07
0.00667023
-4.974421e-07
0.006670314
-4.972476e-07
0.006670397
-4.968301e-07
0.00667048
-4.961863e-07
0.006670563
-4.953122e-07
0.006670646
-4.942026e-07
0.006670728
-4.928513e-07
0.00667081
-4.912507e-07
0.006670892
-4.893924e-07
0.006670974
-4.872669e-07
0.006671055
-4.848635e-07
0.006671136
-4.821703e-07
0.006671216
-4.791745e-07
0.006671296
-4.758621e-07
0.006671376
-4.722183e-07
0.006671454
-4.682269e-07
0.006671532
-4.63871e-07
0.006671609
-4.591328e-07
0.006671686
-4.539933e-07
0.006671761
-4.484332e-07
0.006671835
-4.424323e-07
0.006671909
-4.359697e-07
0.006671981
-4.290243e-07
0.006672052
-4.215748e-07
0.006672122
-4.135997e-07
0.00667219
-4.050779e-07
0.006672257
-3.959886e-07
0.006672323
-3.863117e-07
0.006672386
-3.760283e-07
0.006672448
-3.651208e-07
0.006672508
-3.535735e-07
0.006672566
-3.413727e-07
0.006672622
-3.285074e-07
0.006672675
-3.149698e-07
0.006672726
-3.007554e-07
0.006672775
-2.858637e-07
0.006672821
-2.702985e-07
0.006672865
-2.540687e-07
0.006672905
-2.371879e-07
0.006672943
-2.196754e-07
0.006672977
-2.015563e-07
0.006673008
-1.828614e-07
0.006673036
-1.636274e-07
0.006673061
-1.438969e-07
0.006673082
-1.237182e-07
0.0066731
-1.031446e-07
0.006673114
-8.223434e-08
0.006673125
-6.10506e-08
0.006673131
-3.965491e-08
-1.813816e-08
0.006667196
-8.162928e-08
0.006667186
-1.198533e-07
0.006667186
-1.404448e-07
0.006667193
-1.609595e-07
0.006667206
-1.807052e-07
0.006667225
-1.990793e-07
0.006667248
-2.168049e-07
0.006667277
-2.344246e-07
0.006667309
-2.520277e-07
0.006667346
-2.695452e-07
0.006667385
-2.869003e-07
0.006667428
-3.040094e-07
0.006667474
-3.207835e-07
0.006667522
-3.371416e-07
0.006667573
-3.530164e-07
0.006667626
-3.683544e-07
0.006667682
-3.831148e-07
0.00666774
-3.972687e-07
0.006667799
-4.10797e-07
0.006667861
-4.236895e-07
0.006667924
-4.359431e-07
0.006667989
-4.475608e-07
0.006668056
-4.585503e-07
0.006668124
-4.689232e-07
0.006668193
-4.786942e-07
0.006668264
-4.878802e-07
0.006668336
-4.964999e-07
0.006668409
-5.045731e-07
0.006668483
-5.121202e-07
0.006668558
-5.191623e-07
0.006668634
-5.257202e-07
0.006668711
-5.318146e-07
0.006668788
-5.374657e-07
0.006668867
-5.426933e-07
0.006668946
-5.475162e-07
0.006669025
-5.519523e-07
0.006669105
-5.560188e-07
0.006669186
-5.597316e-07
0.006669267
-5.631056e-07
0.006669348
-5.661545e-07
0.00666943
-5.688909e-07
0.006669512
-5.713262e-07
0.006669595
-5.734704e-07
0.006669678
-5.753326e-07
0.006669761
-5.769205e-07
0.006669844
-5.782404e-07
0.006669927
-5.792975e-07
0.00667001
-5.800959e-07
0.006670094
-5.806383e-07
0.006670177
-5.809261e-07
0.006670261
-5.809595e-07
0.006670344
-5.807377e-07
0.006670428
-5.802582e-07
0.006670511
-5.795175e-07
0.006670594
-5.785109e-07
0.006670677
-5.772323e-07
0.00667076
-5.756744e-07
0.006670842
-5.738285e-07
0.006670925
-5.716848e-07
0.006671007
-5.69232e-07
0.006671088
-5.664577e-07
0.006671169
-5.63348e-07
0.00667125
-5.59888e-07
0.00667133
-5.560613e-07
0.00667141
-5.518503e-07
0.006671489
-5.472363e-07
0.006671567
-5.421992e-07
0.006671645
-5.367181e-07
0.006671722
-5.307709e-07
0.006671797
-5.243344e-07
0.006671872
-5.173848e-07
0.006671946
-5.098975e-07
0.006672019
-5.018475e-07
0.006672091
-4.932092e-07
0.006672161
-4.839572e-07
0.00667223
-4.740659e-07
0.006672298
-4.635105e-07
0.006672364
-4.522669e-07
0.006672428
-4.403119e-07
0.00667249
-4.276243e-07
0.006672551
-4.141845e-07
0.006672609
-3.999758e-07
0.006672666
-3.849841e-07
0.00667272
-3.691993e-07
0.006672772
-3.52615e-07
0.006672821
-3.352296e-07
0.006672868
-3.170468e-07
0.006672912
-2.980758e-07
0.006672953
-2.783319e-07
0.006672991
-2.578371e-07
0.006673026
-2.366202e-07
0.006673058
-2.14717e-07
0.006673087
-1.921705e-07
0.006673112
-1.690307e-07
0.006673134
-1.453545e-07
0.006673152
-1.212051e-07
0.006673166
-9.665148e-08
0.006673177
-7.176876e-08
0.006673184
-4.663027e-08
-2.134372e-08
0.006667184
-7.101614e-08
0.00666718
-1.150857e-07
0.006667183
-1.428415e-07
0.006667192
-1.691697e-07
0.006667207
-1.946546e-07
0.006667227
-2.186118e-07
0.006667251
-2.414215e-07
0.006667281
-2.6358e-07
0.006667314
-2.852688e-07
0.006667351
-3.064997e-07
0.006667391
-3.272541e-07
0.006667434
-3.474989e-07
0.006667481
-3.671857e-07
0.00666753
-3.862633e-07
0.006667581
-4.046862e-07
0.006667635
-4.224171e-07
0.006667692
-4.394274e-07
0.00666775
-4.556976e-07
0.00666781
-4.712163e-07
0.006667873
-4.859797e-07
0.006667937
-4.999907e-07
0.006668002
-5.132573e-07
0.006668069
-5.257925e-07
0.006668138
-5.376124e-07
0.006668208
-5.487365e-07
0.006668279
-5.591862e-07
0.006668352
-5.689845e-07
0.006668425
-5.781556e-07
0.0066685
-5.867239e-07
0.006668575
-5.947144e-07
0.006668651
-6.021518e-07
0.006668729
-6.090605e-07
0.006668807
-6.15464e-07
0.006668885
-6.213854e-07
0.006668965
-6.268466e-07
0.006669044
-6.318684e-07
0.006669125
-6.364706e-07
0.006669206
-6.406715e-07
0.006669287
-6.444884e-07
0.006669369
-6.479371e-07
0.006669451
-6.51032e-07
0.006669533
-6.537861e-07
0.006669616
-6.562112e-07
0.006669699
-6.583174e-07
0.006669782
-6.601135e-07
0.006669865
-6.616069e-07
0.006669949
-6.628036e-07
0.006670033
-6.637082e-07
0.006670116
-6.643237e-07
0.0066702
-6.646518e-07
0.006670284
-6.646929e-07
0.006670367
-6.644457e-07
0.006670451
-6.639077e-07
0.006670534
-6.630749e-07
0.006670618
-6.619418e-07
0.006670701
-6.605015e-07
0.006670784
-6.587456e-07
0.006670867
-6.566643e-07
0.00667095
-6.542462e-07
0.006671032
-6.514786e-07
0.006671114
-6.483472e-07
0.006671195
-6.448362e-07
0.006671276
-6.409284e-07
0.006671357
-6.366049e-07
0.006671437
-6.318457e-07
0.006671516
-6.26629e-07
0.006671595
-6.20932e-07
0.006671673
-6.147303e-07
0.00667175
-6.079984e-07
0.006671826
-6.007096e-07
0.006671902
-5.928362e-07
0.006671976
-5.843495e-07
0.00667205
-5.752204e-07
0.006672122
-5.654191e-07
0.006672193
-5.549156e-07
0.006672262
-5.436801e-07
0.00667233
-5.316831e-07
0.006672397
-5.188959e-07
0.006672462
-5.05291e-07
0.006672525
-4.908428e-07
0.006672587
-4.755278e-07
0.006672646
-4.593252e-07
0.006672703
-4.422178e-07
0.006672758
-4.241922e-07
0.006672811
-4.0524e-07
0.006672861
-3.853578e-07
0.006672908
-3.645484e-07
0.006672953
-3.428212e-07
0.006672995
-3.201928e-07
0.006673034
-2.966875e-07
0.00667307
-2.723376e-07
0.006673102
-2.471839e-07
0.006673131
-2.212757e-07
0.006673157
-1.946707e-07
0.006673179
-1.674349e-07
0.006673197
-1.39642e-07
0.006673212
-1.113725e-07
0.006673223
-8.271501e-08
0.00667323
-5.375599e-08
-2.462417e-08
0.006667172
-6.781966e-08
0.006667173
-1.161352e-07
0.00666718
-1.48759e-07
0.006667192
-1.797632e-07
0.006667208
-2.101554e-07
0.006667229
-2.390037e-07
0.006667254
-2.664485e-07
0.006667283
-2.929251e-07
0.006667317
-3.186257e-07
0.006667354
-3.435823e-07
0.006667394
-3.67798e-07
0.006667438
-3.912632e-07
0.006667484
-4.139523e-07
0.006667534
-4.358338e-07
0.006667586
-4.568787e-07
0.006667641
-4.770634e-07
0.006667697
-4.963712e-07
0.006667757
-5.147926e-07
0.006667818
-5.323253e-07
0.00666788
-5.489734e-07
0.006667945
-5.64747e-07
0.006668011
-5.796608e-07
0.006668079
-5.93734e-07
0.006668149
-6.069889e-07
0.006668219
-6.194505e-07
0.006668291
-6.311455e-07
0.006668364
-6.421022e-07
0.006668438
-6.523495e-07
0.006668513
-6.619167e-07
0.00666859
-6.70833e-07
0.006668666
-6.791273e-07
0.006668744
-6.868279e-07
0.006668823
-6.939622e-07
0.006668902
-7.005565e-07
0.006668981
-7.06636e-07
0.006669062
-7.122246e-07
0.006669143
-7.173447e-07
0.006669224
-7.220173e-07
0.006669306
-7.262619e-07
0.006669388
-7.300964e-07
0.00666947
-7.335373e-07
0.006669553
-7.365991e-07
0.006669636
-7.392952e-07
0.006669719
-7.416369e-07
0.006669803
-7.436343e-07
0.006669887
-7.452957e-07
0.00666997
-7.466278e-07
0.006670054
-7.476357e-07
0.006670138
-7.483229e-07
0.006670222
-7.486913e-07
0.006670306
-7.487414e-07
0.00667039
-7.484717e-07
0.006670474
-7.478794e-07
0.006670558
-7.4696e-07
0.006670642
-7.457074e-07
0.006670725
-7.441139e-07
0.006670809
-7.421699e-07
0.006670892
-7.398645e-07
0.006670975
-7.371849e-07
0.006671057
-7.341168e-07
0.00667114
-7.306441e-07
0.006671222
-7.267488e-07
0.006671303
-7.224117e-07
0.006671384
-7.176115e-07
0.006671465
-7.123254e-07
0.006671544
-7.065289e-07
0.006671624
-7.001959e-07
0.006671702
-6.932989e-07
0.00667178
-6.858086e-07
0.006671857
-6.776948e-07
0.006671933
-6.689257e-07
0.006672008
-6.594684e-07
0.006672082
-6.492895e-07
0.006672155
-6.383546e-07
0.006672227
-6.26629e-07
0.006672297
-6.140781e-07
0.006672366
-6.006674e-07
0.006672434
-5.863634e-07
0.0066725
-5.711336e-07
0.006672564
-5.549477e-07
0.006672626
-5.377773e-07
0.006672686
-5.195975e-07
0.006672744
-5.003867e-07
0.0066728
-4.801283e-07
0.006672854
-4.588105e-07
0.006672905
-4.36428e-07
0.006672953
-4.12982e-07
0.006672999
-3.884814e-07
0.006673042
-3.629437e-07
0.006673081
-3.363949e-07
0.006673118
-3.088709e-07
0.006673151
-2.804172e-07
0.006673181
-2.510894e-07
0.006673207
-2.209532e-07
0.00667323
-1.90084e-07
0.006673249
-1.585667e-07
0.006673264
-1.264941e-07
0.006673275
-9.396871e-08
0.006673282
-6.109085e-08
-2.800879e-08
0.006667154
-6.734662e-08
0.006667158
-1.200295e-07
0.006667168
-1.569422e-07
0.006667181
-1.921613e-07
0.006667198
-2.271333e-07
0.00666722
-2.606222e-07
0.006667247
-2.925412e-07
0.006667277
-3.232572e-07
0.006667311
-3.529413e-07
0.006667349
-3.816212e-07
0.006667391
-4.093081e-07
0.006667435
-4.360074e-07
0.006667483
-4.617107e-07
0.006667534
-4.864033e-07
0.006667587
-5.100714e-07
0.006667642
-5.327051e-07
0.0066677
-5.542997e-07
0.00666776
-5.748566e-07
0.006667822
-5.943828e-07
0.006667886
-6.128913e-07
0.006667951
-6.304e-07
0.006668019
-6.469311e-07
0.006668087
-6.625107e-07
0.006668157
-6.771676e-07
0.006668229
-6.909329e-07
0.006668302
-7.038392e-07
0.006668375
-7.159202e-07
0.00666845
-7.2721e-07
0.006668526
-7.377429e-07
0.006668603
-7.475527e-07
0.00666868
-7.566727e-07
0.006668758
-7.651352e-07
0.006668837
-7.729715e-07
0.006668917
-7.802114e-07
0.006668997
-7.868835e-07
0.006669078
-7.930146e-07
0.006669159
-7.9863e-07
0.006669241
-8.037533e-07
0.006669323
-8.084063e-07
0.006669405
-8.126091e-07
0.006669488
-8.1638e-07
0.006669571
-8.197354e-07
0.006669655
-8.226899e-07
0.006669738
-8.252564e-07
0.006669822
-8.27446e-07
0.006669906
-8.292678e-07
0.00666999
-8.307295e-07
0.006670074
-8.318366e-07
0.006670158
-8.32593e-07
0.006670243
-8.33001e-07
0.006670327
-8.330609e-07
0.006670411
-8.327712e-07
0.006670495
-8.321289e-07
0.00667058
-8.311288e-07
0.006670664
-8.297642e-07
0.006670748
-8.280267e-07
0.006670831
-8.259056e-07
0.006670915
-8.233888e-07
0.006670998
-8.204621e-07
0.006671081
-8.171096e-07
0.006671164
-8.133133e-07
0.006671246
-8.090535e-07
0.006671328
-8.043084e-07
0.006671409
-7.990545e-07
0.00667149
-7.932662e-07
0.006671571
-7.869162e-07
0.00667165
-7.799752e-07
0.006671729
-7.724122e-07
0.006671808
-7.641944e-07
0.006671885
-7.552876e-07
0.006671962
-7.456559e-07
0.006672038
-7.352621e-07
0.006672113
-7.24068e-07
0.006672186
-7.120345e-07
0.006672259
-6.991218e-07
0.00667233
-6.852902e-07
0.0066724
-6.704998e-07
0.006672468
-6.547117e-07
0.006672535
-6.378881e-07
0.0066726
-6.199928e-07
0.006672663
-6.009926e-07
0.006672724
-5.808572e-07
0.006672784
-5.595603e-07
0.00667284
-5.370809e-07
0.006672895
-5.134036e-07
0.006672947
-4.885198e-07
0.006672997
-4.624286e-07
0.006673043
-4.35138e-07
0.006673087
-4.066652e-07
0.006673128
-3.77038e-07
0.006673165
-3.462951e-07
0.006673199
-3.144866e-07
0.00667323
-2.816746e-07
0.006673257
-2.479329e-07
0.00667328
-2.13347e-07
0.006673299
-1.780137e-07
0.006673315
-1.420394e-07
0.006673326
-1.055421e-07
0.006673334
-6.863766e-08
-3.149902e-08
0.006667135
-6.956336e-08
0.006667142
-1.265908e-07
0.006667154
-1.673744e-07
0.006667169
-2.065653e-07
0.006667188
-2.458494e-07
0.006667212
-2.837018e-07
0.006667239
-3.198662e-07
0.006667271
-3.546586e-07
0.006667306
-3.882211e-07
0.006667345
-4.205644e-07
0.006667387
-4.516958e-07
0.006667433
-4.816246e-07
0.006667481
-5.103505e-07
0.006667533
-5.378684e-07
0.006667587
-5.64175e-07
0.006667643
-5.892706e-07
0.006667702
-6.13161e-07
0.006667763
-6.358569e-07
0.006667826
-6.573748e-07
0.00666789
-6.777365e-07
0.006667957
-6.969683e-07
0.006668025
-7.151004e-07
0.006668095
-7.321664e-07
0.006668166
-7.482023e-07
0.006668238
-7.63246e-07
0.006668311
-7.773365e-07
0.006668386
-7.905137e-07
0.006668461
-8.028173e-07
0.006668538
-8.142868e-07
0.006668615
-8.249613e-07
0.006668693
-8.348787e-07
0.006668772
-8.440755e-07
0.006668852
-8.525872e-07
0.006668932
-8.604472e-07
0.006669013
-8.676876e-07
0.006669094
-8.743385e-07
0.006669176
-8.804279e-07
0.006669258
-8.859822e-07
0.006669341
-8.910255e-07
0.006669423
-8.955801e-07
0.006669507
-8.996661e-07
0.00666959
-9.033017e-07
0.006669674
-9.065032e-07
0.006669758
-9.092845e-07
0.006669842
-9.116581e-07
0.006669927
-9.136339e-07
0.006670011
-9.152202e-07
0.006670096
-9.164233e-07
0.00667018
-9.172475e-07
0.006670265
-9.176952e-07
0.00667035
-9.177668e-07
0.006670434
-9.174607e-07
0.006670519
-9.167735e-07
0.006670603
-9.156997e-07
0.006670688
-9.142319e-07
0.006670772
-9.123608e-07
0.006670856
-9.100748e-07
0.00667094
-9.073607e-07
0.006671024
-9.042027e-07
0.006671107
-9.005835e-07
0.006671191
-8.964833e-07
0.006671273
-8.918802e-07
0.006671356
-8.867505e-07
0.006671438
-8.810679e-07
0.006671519
-8.748044e-07
0.0066716
-8.679295e-07
0.006671681
-8.604109e-07
0.006671761
-8.52214e-07
0.00667184
-8.433024e-07
0.006671918
-8.336377e-07
0.006671995
-8.231797e-07
0.006672072
-8.118868e-07
0.006672148
-7.997158e-07
0.006672222
-7.866225e-07
0.006672296
-7.725618e-07
0.006672368
-7.574882e-07
0.006672439
-7.413562e-07
0.006672508
-7.241207e-07
0.006672576
-7.05738e-07
0.006672642
-6.861659e-07
0.006672707
-6.653648e-07
0.006672769
-6.432987e-07
0.006672829
-6.199358e-07
0.006672887
-5.952496e-07
0.006672943
-5.692201e-07
0.006672997
-5.418346e-07
0.006673047
-5.130894e-07
0.006673095
-4.829903e-07
0.00667314
-4.515538e-07
0.006673182
-4.188086e-07
0.00667322
-3.847959e-07
0.006673255
-3.495701e-07
0.006673287
-3.131996e-07
0.006673315
-2.757667e-07
0.006673339
-2.373674e-07
0.006673359
-1.981111e-07
0.006673375
-1.581187e-07
0.006673387
-1.175249e-07
0.006673395
-7.646225e-08
-3.512762e-08
0.006667113
-7.304746e-08
0.006667122
-1.347596e-07
0.006667135
-1.794033e-07
0.006667152
-2.224998e-07
0.006667173
-2.660012e-07
0.006667197
-3.081239e-07
0.006667226
-3.484656e-07
0.006667259
-3.872969e-07
0.006667295
-4.247256e-07
0.006667335
-4.607364e-07
0.006667379
-4.953247e-07
0.006667426
-5.284978e-07
0.006667476
-5.602587e-07
0.006667528
-5.906091e-07
0.006667584
-6.195543e-07
0.006667641
-6.471047e-07
0.006667701
-6.73276e-07
0.006667764
-6.980894e-07
0.006667828
-7.215715e-07
0.006667894
-7.437537e-07
0.006667961
-7.646717e-07
0.00666803
-7.843646e-07
0.006668101
-8.028744e-07
0.006668173
-8.20245e-07
0.006668246
-8.365219e-07
0.006668321
-8.517512e-07
0.006668396
-8.659791e-07
0.006668472
-8.792517e-07
0.00666855
-8.916142e-07
0.006668628
-9.031109e-07
0.006668707
-9.137846e-07
0.006668786
-9.236766e-07
0.006668866
-9.328263e-07
0.006668947
-9.412712e-07
0.006669028