/*--------------------------------*- C++ -*----------------------------------*\
| =========                 |                                                 |
| \\      /  F ield         | OpenFOAM: The Open Source CFD Toolbox           |
|  \\    /   O peration     | Version:  2.3.0                                 |
|   \\  /    A nd           | Web:      www.OpenFOAM.org                      |
|    \\/     M anipulation  |                                                 |
\*---------------------------------------------------------------------------*/
FoamFile
{
    version     2.0;
    format      ascii;
    class       surfaceScalarField;
    location    "10000/topAir";
    object      phi;
}
// * * * * * * * * * * * * * * * * * * * * * * * * * * * * * * * * * * * * * //

dimensions      [1 0 -1 0 0 0 0];

internalField   nonuniform List<scalar> 
7860
(
0.009561973
4.801673e-06
0.009557743
4.232676e-06
0.00955437
3.374938e-06
0.009550915
3.457138e-06
0.009547316
3.600357e-06
0.009543674
3.643558e-06
0.009540002
3.672238e-06
0.009536298
3.704304e-06
0.009532566
3.73146e-06
0.009528813
3.752909e-06
0.009525043
3.770539e-06
0.009521257
3.785266e-06
0.009517459
3.797553e-06
0.009513651
3.80784e-06
0.009509835
3.816498e-06
0.009506011
3.823811e-06
0.00950218
3.830001e-06
0.009498345
3.835247e-06
0.009494505
3.839695e-06
0.009490661
3.843461e-06
0.009486815
3.846641e-06
0.009482965
3.849314e-06
0.009479113
3.851546e-06
0.00947526
3.853394e-06
0.009471405
3.854902e-06
0.009467548
3.856112e-06
0.009463691
3.857057e-06
0.009459833
3.857765e-06
0.009455975
3.858262e-06
0.009452116
3.85857e-06
0.009448257
3.858708e-06
0.009444399
3.858691e-06
0.00944054
3.858534e-06
0.009436682
3.858251e-06
0.009432824
3.857851e-06
0.009428966
3.857345e-06
0.009425109
3.856741e-06
0.009421253
3.856046e-06
0.009417398
3.855268e-06
0.009413543
3.854412e-06
0.00940969
3.853483e-06
0.009405837
3.852485e-06
0.009401986
3.851422e-06
0.009398135
3.850298e-06
0.009394286
3.849115e-06
0.009390438
3.847875e-06
0.009386592
3.84658e-06
0.009382746
3.845232e-06
0.009378902
3.843831e-06
0.00937506
3.842377e-06
0.009371219
3.840872e-06
0.00936738
3.839315e-06
0.009363542
3.837704e-06
0.009359706
3.83604e-06
0.009355872
3.83432e-06
0.009352039
3.832543e-06
0.009348208
3.830706e-06
0.009344379
3.828806e-06
0.009340552
3.82684e-06
0.009336728
3.824805e-06
0.009332905
3.822695e-06
0.009329084
3.820505e-06
0.009325266
3.818229e-06
0.00932145
3.815862e-06
0.009317637
3.813393e-06
0.009313826
3.810816e-06
0.009310018
3.80812e-06
0.009306212
3.805293e-06
0.00930241
3.802323e-06
0.009298611
3.799195e-06
0.009294815
3.795891e-06
0.009291023
3.792394e-06
0.009287234
3.78868e-06
0.009283449
3.784724e-06
0.009279669
3.780496e-06
0.009275893
3.775961e-06
0.009272122
3.771079e-06
0.009268356
3.765802e-06
0.009264596
3.760073e-06
0.009260842
3.753825e-06
0.009257095
3.746974e-06
0.009253355
3.739423e-06
0.009249624
3.731047e-06
0.009245903
3.721696e-06
0.009242191
3.711177e-06
0.009238492
3.699246e-06
0.009234806
3.685584e-06
0.009231137
3.66977e-06
0.009227485
3.651233e-06
0.009223856
3.629177e-06
0.009220254
3.602461e-06
0.009216684
3.56938e-06
0.009213157
3.527276e-06
0.009209685
3.471776e-06
0.00920629
3.395351e-06
0.009203006
3.283796e-06
0.009199895
3.111086e-06
0.00919708
2.815118e-06
0.009194776
2.304256e-06
1.16111e-06
0.009571846
6.635385e-07
0.009573399
2.682283e-06
0.009573883
2.893214e-06
0.009574384
2.958172e-06
0.009574848
3.138212e-06
0.009575225
3.267226e-06
0.009575544
3.353586e-06
0.009575824
3.424346e-06
0.009576073
3.482843e-06
0.009576295
3.530316e-06
0.009576496
3.569529e-06
0.009576679
3.602507e-06
0.009576845
3.630526e-06
0.009576999
3.65455e-06
0.009577139
3.675334e-06
0.00957727
3.693456e-06
0.00957739
3.709368e-06
0.009577502
3.723425e-06
0.009577605
3.735911e-06
0.009577701
3.747058e-06
0.009577791
3.757053e-06
0.009577874
3.766052e-06
0.009577951
3.774184e-06
0.009578023
3.781556e-06
0.009578089
3.788261e-06
0.009578151
3.794375e-06
0.009578208
3.799964e-06
0.00957826
3.805086e-06
0.009578308
3.809789e-06
0.009578353
3.814116e-06
0.009578393
3.818104e-06
0.00957843
3.821785e-06
0.009578463
3.825187e-06
0.009578493
3.828335e-06
0.00957852
3.831251e-06
0.009578543
3.833954e-06
0.009578563
3.836459e-06
0.00957858
3.838784e-06
0.009578595
3.840939e-06
0.009578606
3.842937e-06
0.009578615
3.844787e-06
0.00957862
3.846498e-06
0.009578624
3.848077e-06
0.009578624
3.849531e-06
0.009578623
3.850866e-06
0.009578618
3.852084e-06
0.009578612
3.853191e-06
0.009578603
3.854187e-06
0.009578591
3.855076e-06
0.009578578
3.855859e-06
0.009578562
3.856535e-06
0.009578544
3.857103e-06
0.009578524
3.857563e-06
0.009578502
3.857913e-06
0.009578479
3.858149e-06
0.009578453
3.858267e-06
0.009578425
3.858264e-06
0.009578396
3.858132e-06
0.009578365
3.857866e-06
0.009578332
3.857457e-06
0.009578298
3.856897e-06
0.009578262
3.856174e-06
0.009578225
3.855278e-06
0.009578187
3.854194e-06
0.009578147
3.852907e-06
0.009578107
3.851399e-06
0.009578065
3.849651e-06
0.009578023
3.84764e-06
0.00957798
3.84534e-06
0.009577936
3.842721e-06
0.009577892
3.839752e-06
0.009577848
3.836392e-06
0.009577804
3.832597e-06
0.009577761
3.828318e-06
0.009577718
3.823495e-06
0.009577675
3.818059e-06
0.009577635
3.811931e-06
0.009577595
3.805014e-06
0.009577558
3.797199e-06
0.009577524
3.78835e-06
0.009577492
3.778308e-06
0.009577465
3.766877e-06
0.009577442
3.753818e-06
0.009577425
3.738835e-06
0.009577414
3.721557e-06
0.009577412
3.701513e-06
0.00957742
3.678095e-06
0.009577439
3.650507e-06
0.009577472
3.617684e-06
0.009577523
3.578174e-06
0.009577596
3.529952e-06
0.009577695
3.470117e-06
0.009577828
3.394409e-06
0.009578003
3.296374e-06
0.009578233
3.166017e-06
0.009578529
2.987197e-06
0.009578906
2.734216e-06
0.00957936
2.361098e-06
0.009579861
1.803616e-06
8.975466e-07
0.00956897
9.681523e-07
0.00956978
1.873428e-06
0.0095704
2.276555e-06
0.009570862
2.498136e-06
0.009571275
2.726471e-06
0.009571639
2.904277e-06
0.009571962
3.031419e-06
0.009572254
3.13192e-06
0.009572523
3.214412e-06
0.009572771
3.282106e-06
0.009573002
3.338339e-06
0.009573218
3.385766e-06
0.009573422
3.426192e-06
0.009573616
3.460949e-06
0.0095738
3.491073e-06
0.009573976
3.517367e-06
0.009574144
3.540462e-06
0.009574307
3.56086e-06
0.009574463
3.578967e-06
0.009574615
3.595113e-06
0.009574762
3.609568e-06
0.009574906
3.622556e-06
0.009575045
3.634266e-06
0.009575182
3.644855e-06
0.009575316
3.654457e-06
0.009575447
3.663185e-06
0.009575575
3.671137e-06
0.009575702
3.678397e-06
0.009575826
3.685036e-06
0.009575949
3.691119e-06
0.009576071
3.6967e-06
0.00957619
3.701826e-06
0.009576309
3.706539e-06
0.009576426
3.710877e-06
0.009576543
3.714871e-06
0.009576658
3.71855e-06
0.009576772
3.721939e-06
0.009576886
3.72506e-06
0.009576999
3.727933e-06
0.009577111
3.730574e-06
0.009577223
3.732997e-06
0.009577334
3.735217e-06
0.009577445
3.737244e-06
0.009577555
3.739087e-06
0.009577665
3.740755e-06
0.009577775
3.742254e-06
0.009577885
3.74359e-06
0.009577994
3.744765e-06
0.009578103
3.745784e-06
0.009578212
3.746647e-06
0.009578321
3.747356e-06
0.009578431
3.747908e-06
0.00957854
3.748303e-06
0.009578649
3.748538e-06
0.009578759
3.748607e-06
0.009578868
3.748506e-06
0.009578978
3.748228e-06
0.009579089
3.747763e-06
0.009579199
3.747103e-06
0.009579311
3.746236e-06
0.009579422
3.745149e-06
0.009579535
3.743825e-06
0.009579648
3.742249e-06
0.009579761
3.7404e-06
0.009579876
3.738255e-06
0.009579992
3.735789e-06
0.009580108
3.732973e-06
0.009580226
3.729773e-06
0.009580345
3.726154e-06
0.009580466
3.72207e-06
0.009580588
3.717475e-06
0.009580712
3.712312e-06
0.009580838
3.706518e-06
0.009580967
3.700018e-06
0.009581097
3.692727e-06
0.009581231
3.684548e-06
0.009581367
3.675363e-06
0.009581507
3.665037e-06
0.009581651
3.653411e-06
0.009581799
3.640293e-06
0.009581952
3.625456e-06
0.00958211
3.608623e-06
0.009582274
3.589459e-06
0.009582446
3.56755e-06
0.009582625
3.542383e-06
0.009582813
3.513311e-06
0.009583012
3.47951e-06
0.009583222
3.439915e-06
0.009583447
3.393131e-06
0.009583688
3.337296e-06
0.009583948
3.269886e-06
0.00958423
3.18742e-06
0.00958454
3.085011e-06
0.00958488
2.955694e-06
0.009585257
2.789445e-06
0.009585672
2.571711e-06
0.009586125
2.281911e-06
0.009586595
1.891114e-06
0.009587032
1.365755e-06
6.765331e-07
0.009570028
6.259463e-07
0.009570439
1.464163e-06
0.009570798
1.920189e-06
0.009571119
2.179224e-06
0.009571436
2.411531e-06
0.009571737
2.604125e-06
0.009572016
2.752438e-06
0.009572276
2.871989e-06
0.009572519
2.971355e-06
0.009572747
3.054278e-06
0.009572961
3.124018e-06
0.009573163
3.183313e-06
0.009573355
3.234171e-06
0.009573538
3.278108e-06
0.009573712
3.316323e-06
0.00957388
3.349767e-06
0.009574041
3.379196e-06
0.009574196
3.40522e-06
0.009574347
3.428338e-06
0.009574493
3.448957e-06
0.009574635
3.467415e-06
0.009574773
3.483993e-06
0.009574908
3.498928e-06
0.00957504
3.512418e-06
0.00957517
3.524635e-06
0.009575297
3.535722e-06
0.009575422
3.545805e-06
0.009575546
3.55499e-06
0.009575667
3.563371e-06
0.009575787
3.571028e-06
0.009575906
3.578033e-06
0.009576023
3.584446e-06
0.009576139
3.590322e-06
0.009576254
3.595709e-06
0.009576368
3.600648e-06
0.009576482
3.605177e-06
0.009576594
3.609327e-06
0.009576706
3.613128e-06
0.009576817
3.616604e-06
0.009576928
3.619778e-06
0.009577038
3.622669e-06
0.009577148
3.625293e-06
0.009577257
3.627665e-06
0.009577367
3.629798e-06
0.009577476
3.631702e-06
0.009577584
3.633385e-06
0.009577693
3.634854e-06
0.009577802
3.636114e-06
0.00957791
3.63717e-06
0.009578019
3.638022e-06
0.009578128
3.638673e-06
0.009578236
3.63912e-06
0.009578345
3.639361e-06
0.009578454
3.639392e-06
0.009578564
3.639207e-06
0.009578673
3.6388e-06
0.009578783
3.638161e-06
0.009578894
3.637279e-06
0.009579005
3.636141e-06
0.009579116
3.634733e-06
0.009579228
3.633037e-06
0.009579341
3.631033e-06
0.009579454
3.628698e-06
0.009579569
3.626007e-06
0.009579684
3.622931e-06
0.0095798
3.619435e-06
0.009579918
3.615483e-06
0.009580037
3.611031e-06
0.009580157
3.606032e-06
0.009580278
3.600429e-06
0.009580402
3.594161e-06
0.009580527
3.587154e-06
0.009580654
3.579328e-06
0.009580783
3.570587e-06
0.009580915
3.560822e-06
0.00958105
3.549907e-06
0.009581187
3.537695e-06
0.009581328
3.524013e-06
0.009581473
3.50866e-06
0.009581622
3.491395e-06
0.009581776
3.471933e-06
0.009581934
3.449931e-06
0.009582099
3.424973e-06
0.00958227
3.396555e-06
0.009582448
3.364052e-06
0.009582635
3.32669e-06
0.009582831
3.283498e-06
0.009583037
3.233242e-06
0.009583256
3.174337e-06
0.009583489
3.104732e-06
0.009583737
3.021736e-06
0.009584002
2.921787e-06
0.009584287
2.800148e-06
0.009584592
2.650491e-06
0.009584917
2.464412e-06
0.009585258
2.23092e-06
0.009585604
1.936207e-06
0.009585931
1.564376e-06
0.009586197
1.099686e-06
5.420841e-07
0.00956989
6.612559e-07
0.009570123
1.233313e-06
0.009570438
1.606982e-06
0.009570743
1.876435e-06
0.00957104
2.116503e-06
0.009571324
2.320687e-06
0.009571592
2.485364e-06
0.009571843
2.620963e-06
0.009572079
2.734954e-06
0.009572302
2.831235e-06
0.009572513
2.913023e-06
0.009572713
2.983073e-06
0.009572904
3.04351e-06
0.009573085
3.095982e-06
0.00957326
3.141803e-06
0.009573427
3.182034e-06
0.009573589
3.217528e-06
0.009573745
3.248983e-06
0.009573896
3.276969e-06
0.009574043
3.301961e-06
0.009574185
3.324353e-06
0.009574325
3.344475e-06
0.009574461
3.362607e-06
0.009574594
3.378986e-06
0.009574725
3.393814e-06
0.009574853
3.407265e-06
0.009574979
3.419488e-06
0.009575103
3.430613e-06
0.009575226
3.440752e-06
0.009575347
3.450003e-06
0.009575466
3.458452e-06
0.009575584
3.466174e-06
0.009575701
3.473236e-06
0.009575817
3.479694e-06
0.009575932
3.485601e-06
0.009576046
3.491001e-06
0.00957616
3.495935e-06
0.009576272
3.500438e-06
0.009576384
3.50454e-06
0.009576496
3.508268e-06
0.009576607
3.511647e-06
0.009576717
3.514696e-06
0.009576827
3.517435e-06
0.009576937
3.519878e-06
0.009577047
3.522038e-06
0.009577156
3.523925e-06
0.009577265
3.525548e-06
0.009577375
3.526914e-06
0.009577484
3.528027e-06
0.009577593
3.528889e-06
0.009577702
3.529502e-06
0.009577811
3.529865e-06
0.00957792
3.529973e-06
0.00957803
3.529823e-06
0.00957814
3.529408e-06
0.00957825
3.528718e-06
0.00957836
3.527743e-06
0.009578471
3.52647e-06
0.009578582
3.524882e-06
0.009578694
3.522962e-06
0.009578806
3.520688e-06
0.009578919
3.518037e-06
0.009579033
3.51498e-06
0.009579147
3.511486e-06
0.009579263
3.50752e-06
0.009579379
3.503042e-06
0.009579496
3.498005e-06
0.009579615
3.492357e-06
0.009579735
3.486041e-06
0.009579856
3.478989e-06
0.009579979
3.471126e-06
0.009580104
3.462366e-06
0.009580231
3.452609e-06
0.00958036
3.441742e-06
0.009580491
3.429637e-06
0.009580625
3.416141e-06
0.009580761
3.401081e-06
0.009580901
3.384254e-06
0.009581044
3.365423e-06
0.009581191
3.344307e-06
0.009581343
3.320575e-06
0.009581499
3.293832e-06
0.00958166
3.263605e-06
0.009581827
3.229322e-06
0.009582001
3.190287e-06
0.009582182
3.145648e-06
0.009582371
3.094349e-06
0.009582569
3.035082e-06
0.009582777
2.966201e-06
0.009582996
2.885634e-06
0.009583227
2.790752e-06
0.009583471
2.678216e-06
0.009583727
2.543793e-06
0.009583996
2.382153e-06
0.009584273
2.186722e-06
0.009584554
1.949693e-06
0.009584828
1.662398e-06
0.009585076
1.316968e-06
0.009585268
9.078261e-07
4.453261e-07
0.009570339
4.869812e-07
0.009570551
1.023227e-06
0.009570783
1.377423e-06
0.009571018
1.643558e-06
0.009571253
1.882527e-06
0.009571486
2.08885e-06
0.009571712
2.260017e-06
0.009571929
2.403785e-06
0.009572138
2.526274e-06
0.009572338
2.63105e-06
0.00957253
2.721058e-06
0.009572714
2.798857e-06
0.009572891
2.866489e-06
0.009573061
2.925581e-06
0.009573225
2.977458e-06
0.009573384
3.023205e-06
0.009573537
3.063713e-06
0.009573686
3.099717e-06
0.009573831
3.131829e-06
0.009573972
3.160561e-06
0.00957411
3.186344e-06
0.009574245
3.209541e-06
0.009574377
3.230462e-06
0.009574506
3.249371e-06
0.009574633
3.266496e-06
0.009574758
3.282033e-06
0.009574882
3.29615e-06
0.009575003
3.308994e-06
0.009575123
3.320695e-06
0.009575241
3.331363e-06
0.009575359
3.341099e-06
0.009575475
3.349986e-06
0.00957559
3.358103e-06
0.009575704
3.365516e-06
0.009575817
3.372284e-06
0.00957593
3.37846e-06
0.009576041
3.384089e-06
0.009576152
3.389213e-06
0.009576263
3.393867e-06
0.009576373
3.398083e-06
0.009576483
3.401889e-06
0.009576592
3.405309e-06
0.009576701
3.408363e-06
0.00957681
3.41107e-06
0.009576918
3.413444e-06
0.009577027
3.415498e-06
0.009577135
3.417241e-06
0.009577243
3.418682e-06
0.009577351
3.419825e-06
0.009577459
3.420673e-06
0.009577568
3.421228e-06
0.009577676
3.421488e-06
0.009577785
3.421449e-06
0.009577893
3.421106e-06
0.009578002
3.420451e-06
0.009578111
3.419473e-06
0.009578221
3.418159e-06
0.009578331
3.416495e-06
0.009578441
3.414461e-06
0.009578552
3.412036e-06
0.009578664
3.409196e-06
0.009578776
3.405912e-06
0.009578888
3.402152e-06
0.009579002
3.39788e-06
0.009579116
3.393054e-06
0.009579232
3.387627e-06
0.009579348
3.381547e-06
0.009579466
3.374753e-06
0.009579585
3.367177e-06
0.009579705
3.358743e-06
0.009579827
3.349364e-06
0.00957995
3.338939e-06
0.009580075
3.327358e-06
0.009580202
3.314489e-06
0.009580332
3.300186e-06
0.009580464
3.284277e-06
0.009580598
3.266567e-06
0.009580736
3.246828e-06
0.009580876
3.224794e-06
0.00958102
3.200155e-06
0.009581168
3.172546e-06
0.009581321
3.141537e-06
0.009581478
3.106615e-06
0.00958164
3.067168e-06
0.009581808
3.022464e-06
0.009581982
2.971613e-06
0.009582162
2.913542e-06
0.00958235
2.846937e-06
0.009582546
2.770196e-06
0.009582751
2.681351e-06
0.009582963
2.577996e-06
0.009583184
2.457195e-06
0.009583413
2.315407e-06
0.009583646
2.148438e-06
0.009583882
1.951482e-06
0.009584112
1.719377e-06
0.009584327
1.447114e-06
0.009584513
1.131338e-06
0.00958465
7.71018e-07
3.765373e-07
0.009570372
4.787945e-07
0.009570493
9.045334e-07
0.009570667
1.205638e-06
0.009570858
1.454806e-06
0.009571059
1.683076e-06
0.009571265
1.883886e-06
0.00957147
2.055149e-06
0.009571672
2.202246e-06
0.009571868
2.32964e-06
0.009572059
2.440154e-06
0.009572244
2.536247e-06
0.009572422
2.620135e-06
0.009572595
2.693665e-06
0.009572762
2.758357e-06
0.009572924
2.815483e-06
0.009573081
2.866106e-06
0.009573233
2.911117e-06
0.009573381
2.951264e-06
0.009573526
2.987178e-06
0.009573667
3.019391e-06
0.009573804
3.048358e-06
0.009573939
3.074465e-06
0.009574071
3.098044e-06
0.009574201
3.119381e-06
0.009574329
3.138722e-06
0.009574454
3.156281e-06
0.009574578
3.172243e-06
0.0095747
3.186771e-06
0.009574821
3.200006e-06
0.00957494
3.212073e-06
0.009575058
3.223082e-06
0.009575175
3.233129e-06
0.00957529
3.242299e-06
0.009575405
3.250667e-06
0.009575519
3.258301e-06
0.009575632
3.265258e-06
0.009575744
3.271592e-06
0.009575856
3.277348e-06
0.009575967
3.282567e-06
0.009576078
3.287285e-06
0.009576188
3.291533e-06
0.009576298
3.295338e-06
0.009576408
3.298725e-06
0.009576517
3.301713e-06
0.009576626
3.304319e-06
0.009576735
3.306559e-06
0.009576844
3.308442e-06
0.009576952
3.309978e-06
0.009577061
3.311173e-06
0.00957717
3.31203e-06
0.009577278
3.31255e-06
0.009577387
3.312732e-06
0.009577496
3.312572e-06
0.009577605
3.312063e-06
0.009577714
3.311196e-06
0.009577823
3.30996e-06
0.009577933
3.30834e-06
0.009578043
3.306318e-06
0.009578154
3.303874e-06
0.009578265
3.300984e-06
0.009578377
3.297619e-06
0.009578489
3.293748e-06
0.009578601
3.289334e-06
0.009578715
3.284337e-06
0.009578829
3.278709e-06
0.009578944
3.272399e-06
0.009579061
3.265346e-06
0.009579178
3.257483e-06
0.009579296
3.248735e-06
0.009579416
3.239016e-06
0.009579537
3.228229e-06
0.00957966
3.216263e-06
0.009579784
3.202995e-06
0.00957991
3.188282e-06
0.009580038
3.17196e-06
0.009580169
3.153845e-06
0.009580302
3.133723e-06
0.009580437
3.111347e-06
0.009580575
3.086432e-06
0.009580717
3.058647e-06
0.009580862
3.027605e-06
0.009581011
2.992856e-06
0.009581163
2.953867e-06
0.00958132
2.910012e-06
0.009581482
2.860548e-06
0.009581649
2.804591e-06
0.009581822
2.741091e-06
0.009582
2.668793e-06
0.009582184
2.586198e-06
0.009582374
2.491526e-06
0.009582569
2.382666e-06
0.009582769
2.257148e-06
0.009582972
2.11213e-06
0.009583176
1.944443e-06
0.009583377
1.750719e-06
0.009583569
1.527709e-06
0.009583743
1.272771e-06
0.009583889
9.850299e-07
0.009583995
6.656126e-07
3.237124e-07
0.00957061
3.98141e-07
0.009570729
7.883681e-07
0.009570875
1.061549e-06
0.009571039
1.293334e-06
0.009571213
1.510694e-06
0.009571392
1.705429e-06
0.009571573
1.874861e-06
0.009571752
2.022852e-06
0.009571929
2.15272e-06
0.009572102
2.266678e-06
0.009572272
2.366773e-06
0.009572437
2.454913e-06
0.009572598
2.532744e-06
0.009572754
2.60166e-06
0.009572906
2.662851e-06
0.009573055
2.717335e-06
0.0095732
2.765976e-06
0.009573341
2.809514e-06
0.00957348
2.848576e-06
0.009573615
2.883704e-06
0.009573748
2.915361e-06
0.009573878
2.943945e-06
0.009574006
2.969801e-06
0.009574132
2.993228e-06
0.009574257
3.014485e-06
0.009574379
3.033799e-06
0.0095745
3.051368e-06
0.009574619
3.067364e-06
0.009574737
3.081942e-06
0.009574853
3.095234e-06
0.009574969
3.107359e-06
0.009575084
3.118422e-06
0.009575197
3.128515e-06
0.00957531
3.137721e-06
0.009575422
3.146112e-06
0.009575534
3.153754e-06
0.009575644
3.160702e-06
0.009575755
3.167009e-06
0.009575864
3.172717e-06
0.009575974
3.177868e-06
0.009576083
3.182496e-06
0.009576191
3.18663e-06
0.0095763
3.190297e-06
0.009576408
3.19352e-06
0.009576516
3.196317e-06
0.009576624
3.198703e-06
0.009576731
3.200692e-06
0.009576839
3.202293e-06
0.009576946
3.203513e-06
0.009577054
3.204355e-06
0.009577162
3.204821e-06
0.00957727
3.204909e-06
0.009577377
3.204614e-06
0.009577486
3.20393e-06
0.009577594
3.202846e-06
0.009577702
3.20135e-06
0.009577811
3.199425e-06
0.009577921
3.197051e-06
0.00957803
3.194207e-06
0.00957814
3.190864e-06
0.009578251
3.186993e-06
0.009578362
3.182558e-06
0.009578474
3.17752e-06
0.009578586
3.171832e-06
0.0095787
3.165445e-06
0.009578814
3.158299e-06
0.009578929
3.15033e-06
0.009579045
3.141465e-06
0.009579162
3.13162e-06
0.00957928
3.120704e-06
0.0095794
3.10861e-06
0.009579521
3.09522e-06
0.009579643
3.0804e-06
0.009579767
3.063997e-06
0.009579893
3.045837e-06
0.009580022
3.025723e-06
0.009580152
3.003428e-06
0.009580284
2.978695e-06
0.00958042
2.951226e-06
0.009580558
2.920678e-06
0.009580699
2.886654e-06
0.009580843
2.848695e-06
0.00958099
2.806268e-06
0.009581141
2.758749e-06
0.009581297
2.705412e-06
0.009581456
2.645407e-06
0.009581619
2.577741e-06
0.009581787
2.501254e-06
0.009581958
2.414597e-06
0.009582133
2.31621e-06
0.009582312
2.204309e-06
0.009582492
2.076887e-06
0.009582672
1.931749e-06
0.00958285
1.76659e-06
0.009583022
1.57916e-06
0.009583182
1.367552e-06
0.009583324
1.130592e-06
0.00958344
8.686447e-07
0.009583522
5.835771e-07
2.827435e-07
0.009570703
3.74e-07
0.009570784
7.092196e-07
0.009570897
9.505656e-07
0.009571028
1.164726e-06
0.009571172
1.368605e-06
0.009571324
1.553695e-06
0.009571482
1.717466e-06
0.009571642
1.862742e-06
0.009571803
1.991908e-06
0.009571963
2.106587e-06
0.009572122
2.208379e-06
0.009572277
2.298846e-06
0.009572431
2.379378e-06
0.009572581
2.451189e-06
0.009572728
2.515344e-06
0.009572872
2.572774e-06
0.009573014
2.624286e-06
0.009573153
2.670581e-06
0.009573289
2.712265e-06
0.009573422
2.749867e-06
0.009573554
2.783843e-06
0.009573683
2.814594e-06
0.00957381
2.842466e-06
0.009573935
2.867764e-06
0.009574059
2.890753e-06
0.009574181
2.911667e-06
0.009574301
2.930712e-06
0.00957442
2.948068e-06
0.009574538
2.963895e-06
0.009574655
2.978334e-06
0.009574771
2.991511e-06
0.009574886
3.003537e-06
0.009574999
3.01451e-06
0.009575113
3.024518e-06
0.009575225
3.033638e-06
0.009575337
3.04194e-06
0.009575448
3.049486e-06
0.009575558
3.05633e-06
0.009575668
3.06252e-06
0.009575778
3.068099e-06
0.009575887
3.073104e-06
0.009575996
3.077568e-06
0.009576105
3.081519e-06
0.009576214
3.084982e-06
0.009576322
3.087977e-06
0.00957643
3.090521e-06
0.009576538
3.092629e-06
0.009576646
3.094309e-06
0.009576754
3.09557e-06
0.009576862
3.096416e-06
0.00957697
3.096847e-06
0.009577078
3.096863e-06
0.009577186
3.096459e-06
0.009577294
3.095626e-06
0.009577403
3.094353e-06
0.009577511
3.092628e-06
0.00957762
3.090432e-06
0.009577729
3.087744e-06
0.009577839
3.084539e-06
0.009577949
3.080788e-06
0.00957806
3.076459e-06
0.009578171
3.071512e-06
0.009578282
3.065906e-06
0.009578394
3.05959e-06
0.009578507
3.052511e-06
0.009578621
3.044605e-06
0.009578735
3.035804e-06
0.009578851
3.026029e-06
0.009578967
3.015191e-06
0.009579085
3.003192e-06
0.009579203
2.98992e-06
0.009579323
2.975249e-06
0.009579445
2.959038e-06
0.009579568
2.941127e-06
0.009579692
2.921335e-06
0.009579818
2.899457e-06
0.009579946
2.875259e-06
0.009580077
2.848476e-06
0.009580209
2.818805e-06
0.009580344
2.7859e-06
0.009580481
2.749364e-06
0.009580621
2.708742e-06
0.009580764
2.663511e-06
0.009580909
2.613069e-06
0.009581058
2.556723e-06
0.00958121
2.493679e-06
0.009581364
2.423022e-06
0.009581522
2.34371e-06
0.009581682
2.25456e-06
0.009581844
2.154244e-06
0.009582007
2.041294e-06
0.00958217
1.914124e-06
0.00958233
1.771085e-06
0.009582486
1.610558e-06
0.009582634
1.431107e-06
0.00958277
1.231722e-06
0.009582889
1.012102e-06
0.009582984
7.732042e-07
0.009583051
5.170852e-07
2.496436e-07
0.009570853
3.294371e-07
0.009570929
6.351746e-07
0.009571028
8.541337e-07
0.009571144
1.051245e-06
0.009571272
1.241824e-06
0.009571409
1.4173e-06
0.009571552
1.574893e-06
0.009571699
1.71659e-06
0.009571847
1.844052e-06
0.009571995
1.958403e-06
0.009572142
2.060854e-06
0.009572288
2.152658e-06
0.009572432
2.234972e-06
0.009572574
2.30884e-06
0.009572714
2.375202e-06
0.009572852
2.4349e-06
0.009572987
2.488677e-06
0.00957312
2.53719e-06
0.009573252
2.581016e-06
0.00957338
2.620665e-06
0.009573508
2.656582e-06
0.009573633
2.689161e-06
0.009573756
2.718748e-06
0.009573878
2.745646e-06
0.009573999
2.770124e-06
0.009574118
2.79242e-06
0.009574236
2.812744e-06
0.009574352
2.831281e-06
0.009574468
2.848197e-06
0.009574582
2.863637e-06
0.009574696
2.877733e-06
0.009574809
2.8906e-06
0.009574921
2.902342e-06
0.009575032
2.913051e-06
0.009575143
2.922808e-06
0.009575253
2.931687e-06
0.009575363
2.939753e-06
0.009575472
2.947064e-06
0.009575581
2.953671e-06
0.009575689
2.959619e-06
0.009575797
2.964948e-06
0.009575905
2.969693e-06
0.009576013
2.973884e-06
0.00957612
2.977548e-06
0.009576227
2.980706e-06
0.009576334
2.983376e-06
0.009576441
2.985574e-06
0.009576548
2.987309e-06
0.009576655
2.988591e-06
0.009576762
2.989423e-06
0.009576869
2.989806e-06
0.009576976
2.98974e-06
0.009577083
2.989219e-06
0.009577191
2.988234e-06
0.009577298
2.986774e-06
0.009577406
2.984824e-06
0.009577514
2.982365e-06
0.009577622
2.979375e-06
0.009577731
2.975827e-06
0.00957784
2.97169e-06
0.00957795
2.966929e-06
0.009578059
2.961504e-06
0.00957817
2.955368e-06
0.009578281
2.94847e-06
0.009578393
2.940751e-06
0.009578505
2.932147e-06
0.009578618
2.922583e-06
0.009578732
2.911977e-06
0.009578847
2.900236e-06
0.009578963
2.887258e-06
0.00957908
2.872925e-06
0.009579198
2.857108e-06
0.009579318
2.83966e-06
0.009579438
2.820416e-06
0.009579561
2.799192e-06
0.009579684
2.775777e-06
0.009579809
2.749935e-06
0.009579937
2.721401e-06
0.009580065
2.68987e-06
0.009580196
2.655002e-06
0.009580329
2.616406e-06
0.009580464
2.573641e-06
0.009580602
2.526206e-06
0.009580741
2.473532e-06
0.009580883
2.414972e-06
0.009581027
2.349798e-06
0.009581173
2.277189e-06
0.00958132
2.19623e-06
0.009581469
2.105904e-06
0.009581618
2.005107e-06
0.009581766
1.892659e-06
0.009581913
1.767338e-06
0.009582056
1.627942e-06
0.009582193
1.473376e-06
0.009582322
1.302785e-06
0.009582438
1.115741e-06
0.009582537
9.124383e-07
0.009582616
6.940577e-07
0.009582671
4.625531e-07
2.225858e-07
0.00957095
3.053137e-07
0.00957101
5.778384e-07
0.009571091
7.754343e-07
0.009571187
9.574501e-07
0.009571295
1.135252e-06
0.009571413
1.300581e-06
0.009571537
1.4508e-06
0.009571666
1.587364e-06
0.009571799
1.711432e-06
0.009571934
1.823765e-06
0.009572069
1.925265e-06
0.009572205
2.016919e-06
0.00957234
2.099672e-06
0.009572474
2.1744e-06
0.009572607
2.241914e-06
0.009572739
2.302954e-06
0.009572869
2.358189e-06
0.009572998
2.408217e-06
0.009573125
2.453575e-06
0.009573251
2.494741e-06
0.009573375
2.532139e-06
0.009573498
2.566146e-06
0.009573619
2.597099e-06
0.009573739
2.625295e-06
0.009573858
2.651e-06
0.009573976
2.674449e-06
0.009574093
2.695853e-06
0.009574209
2.715397e-06
0.009574323
2.733251e-06
0.009574437
2.749561e-06
0.00957455
2.764461e-06
0.009574663
2.77807e-06
0.009574775
2.790495e-06
0.009574886
2.80183e-06
0.009574996
2.812159e-06
0.009575106
2.821559e-06
0.009575216
2.830098e-06
0.009575325
2.837836e-06
0.009575434
2.844825e-06
0.009575542
2.851114e-06
0.00957565
2.856745e-06
0.009575758
2.861753e-06
0.009575866
2.86617e-06
0.009575973
2.870025e-06
0.009576081
2.87334e-06
0.009576188
2.876134e-06
0.009576295
2.878422e-06
0.009576402
2.880217e-06
0.009576509
2.881526e-06
0.009576616
2.882355e-06
0.009576723
2.882704e-06
0.00957683
2.882572e-06
0.009576937
2.881953e-06
0.009577045
2.880839e-06
0.009577152
2.879217e-06
0.00957726
2.877072e-06
0.009577368
2.874383e-06
0.009577476
2.871127e-06
0.009577585
2.867275e-06
0.009577693
2.862797e-06
0.009577803
2.857654e-06
0.009577912
2.851804e-06
0.009578022
2.845199e-06
0.009578133
2.837785e-06
0.009578244
2.829501e-06
0.009578356
2.820279e-06
0.009578469
2.810043e-06
0.009578582
2.798707e-06
0.009578696
2.786175e-06
0.009578811
2.772341e-06
0.009578927
2.757086e-06
0.009579043
2.740276e-06
0.009579161
2.721763e-06
0.00957928
2.701379e-06
0.009579401
2.678938e-06
0.009579522
2.65423e-06
0.009579645
2.627019e-06
0.009579769
2.597043e-06
0.009579895
2.564003e-06
0.009580023
2.527568e-06
0.009580152
2.487362e-06
0.009580282
2.442964e-06
0.009580415
2.393903e-06
0.009580548
2.339649e-06
0.009580684
2.279611e-06
0.00958082
2.213135e-06
0.009580958
2.139495e-06
0.009581096
2.057902e-06
0.009581235
1.967501e-06
0.009581372
1.86739e-06
0.009581508
1.756641e-06
0.009581641
1.634332e-06
0.00958177
1.499614e-06
0.009581891
1.351779e-06
0.009582004
1.190374e-06
0.009582104
1.015337e-06
0.009582189
8.271305e-07
0.009582256
6.269761e-07
0.009582302
4.166422e-07
1.998739e-07
0.009571061
2.762767e-07
0.009571115
5.256094e-07
0.009571187
7.060994e-07
0.009571272
8.739332e-07
0.00957137
1.039417e-06
0.009571477
1.194751e-06
0.00957159
1.337368e-06
0.00957171
1.468322e-06
0.009571833
1.588395e-06
0.009571958
1.69805e-06
0.009572085
1.797922e-06
0.009572213
1.888764e-06
0.009572342
1.971325e-06
0.009572469
2.046324e-06
0.009572597
2.114447e-06
0.009572723
2.176334e-06
0.009572849
2.232577e-06
0.009572973
2.283715e-06
0.009573096
2.330239e-06
0.009573218
2.372593e-06
0.009573339
2.411175e-06
0.009573458
2.446345e-06
0.009573577
2.478426e-06
0.009573694
2.507706e-06
0.00957381
2.534443e-06
0.009573926
2.558871e-06
0.00957404
2.581197e-06
0.009574154
2.601606e-06
0.009574267
2.620268e-06
0.009574379
2.63733e-06
0.00957449
2.652928e-06
0.009574601
2.667183e-06
0.009574711
2.680201e-06
0.009574821
2.692081e-06
0.00957493
2.70291e-06
0.009575039
2.712765e-06
0.009575147
2.721715e-06
0.009575255
2.729824e-06
0.009575363
2.737146e-06
0.00957547
2.743731e-06
0.009575577
2.749621e-06
0.009575684
2.754856e-06
0.00957579
2.759467e-06
0.009575897
2.763483e-06
0.009576003
2.766929e-06
0.009576109
2.769825e-06
0.009576216
2.772186e-06
0.009576322
2.774024e-06
0.009576428
2.775349e-06
0.009576534
2.776165e-06
0.00957664
2.776475e-06
0.009576746
2.776274e-06
0.009576853
2.77556e-06
0.009576959
2.774321e-06
0.009577066
2.772545e-06
0.009577173
2.770217e-06
0.00957728
2.767314e-06
0.009577387
2.763813e-06
0.009577495
2.759684e-06
0.009577602
2.754894e-06
0.009577711
2.749405e-06
0.009577819
2.743172e-06
0.009577928
2.736145e-06
0.009578038
2.72827e-06
0.009578148
2.719482e-06
0.009578258
2.709713e-06
0.009578369
2.698884e-06
0.009578481
2.686907e-06
0.009578594
2.673684e-06
0.009578707
2.659109e-06
0.009578821
2.643059e-06
0.009578936
2.625401e-06
0.009579051
2.605984e-06
0.009579168
2.584642e-06
0.009579286
2.561189e-06
0.009579405
2.535418e-06
0.009579525
2.507099e-06
0.009579646
2.475973e-06
0.009579768
2.441755e-06
0.009579891
2.404124e-06
0.009580016