/*--------------------------------*- C++ -*----------------------------------*\
| =========                 |                                                 |
| \\      /  F ield         | OpenFOAM: The Open Source CFD Toolbox           |
|  \\    /   O peration     | Version:  2.3.0                                 |
|   \\  /    A nd           | Web:      www.OpenFOAM.org                      |
|    \\/     M anipulation  |                                                 |
\*---------------------------------------------------------------------------*/
FoamFile
{
    version     2.0;
    format      ascii;
    class       surfaceScalarField;
    location    "9600/bottomAir";
    object      phi;
}
// * * * * * * * * * * * * * * * * * * * * * * * * * * * * * * * * * * * * * //

dimensions      [1 0 -1 0 0 0 0];

internalField   nonuniform List<scalar> 
7860
(
0.005603769
-1.20249e-06
0.005604114
-3.444838e-07
0.005604197
-8.243003e-08
0.005604302
-1.040527e-07
0.005604376
-7.30263e-08
0.00560442
-4.3481e-08
0.005604453
-3.380143e-08
0.005604483
-2.972583e-08
0.00560451
-2.698081e-08
0.005604536
-2.573195e-08
0.005604561
-2.552325e-08
0.005604587
-2.583621e-08
0.005604614
-2.644617e-08
0.005604641
-2.724183e-08
0.005604669
-2.814564e-08
0.005604698
-2.910487e-08
0.005604728
-3.008682e-08
0.005604759
-3.106973e-08
0.005604791
-3.20389e-08
0.005604824
-3.298436e-08
0.005604858
-3.389924e-08
0.005604892
-3.47792e-08
0.005604928
-3.56212e-08
0.005604964
-3.642368e-08
0.005605001
-3.718562e-08
0.005605039
-3.790697e-08
0.005605078
-3.858783e-08
0.005605117
-3.922892e-08
0.005605157
-3.983096e-08
0.005605197
-4.039509e-08
0.005605238
-4.092236e-08
0.005605279
-4.141406e-08
0.005605321
-4.18714e-08
0.005605363
-4.22957e-08
0.005605406
-4.268819e-08
0.005605449
-4.305013e-08
0.005605492
-4.338269e-08
0.005605536
-4.368702e-08
0.00560558
-4.39642e-08
0.005605624
-4.42152e-08
0.005605669
-4.444098e-08
0.005605713
-4.464233e-08
0.005605758
-4.482007e-08
0.005605803
-4.49748e-08
0.005605848
-4.510714e-08
0.005605893
-4.521752e-08
0.005605938
-4.530639e-08
0.005605984
-4.537395e-08
0.005606029
-4.54205e-08
0.005606075
-4.544602e-08
0.00560612
-4.545063e-08
0.005606165
-4.543411e-08
0.005606211
-4.539637e-08
0.005606256
-4.5337e-08
0.005606301
-4.525572e-08
0.005606347
-4.515192e-08
0.005606392
-4.50251e-08
0.005606436
-4.487447e-08
0.005606481
-4.469932e-08
0.005606526
-4.449864e-08
0.00560657
-4.427156e-08
0.005606614
-4.401685e-08
0.005606658
-4.373343e-08
0.005606701
-4.341989e-08
0.005606744
-4.307497e-08
0.005606787
-4.269707e-08
0.005606829
-4.228475e-08
0.005606871
-4.183626e-08
0.005606912
-4.135001e-08
0.005606953
-4.082411e-08
0.005606993
-4.025685e-08
0.005607033
-3.964627e-08
0.005607072
-3.89906e-08
0.00560711
-3.828781e-08
0.005607148
-3.753617e-08
0.005607184
-3.673368e-08
0.00560722
-3.58787e-08
0.005607255
-3.496939e-08
0.005607289
-3.400428e-08
0.005607322
-3.298181e-08
0.005607354
-3.190081e-08
0.005607385
-3.076013e-08
0.005607414
-2.955906e-08
0.005607443
-2.829698e-08
0.00560747
-2.697381e-08
0.005607495
-2.55896e-08
0.005607519
-2.414503e-08
0.005607542
-2.2641e-08
0.005607563
-2.107908e-08
0.005607582
-1.946114e-08
0.0056076
-1.778979e-08
0.005607616
-1.606799e-08
0.005607631
-1.429961e-08
0.005607643
-1.248913e-08
0.005607654
-1.064236e-08
0.005607663
-8.767132e-09
0.005607669
-6.874884e-09
0.005607674
-4.988136e-09
0.005607677
-3.138094e-09
-1.463366e-09
0.005602797
-6.495188e-07
0.005602798
-3.443288e-07
0.005602855
-1.38618e-07
0.005602865
-1.134737e-07
0.005602884
-9.147829e-08
0.005602909
-6.781895e-08
0.005602932
-5.70566e-08
0.005602955
-5.277019e-08
0.005602979
-5.065759e-08
0.005603003
-5.010356e-08
0.005603028
-5.067986e-08
0.005603054
-5.191141e-08
0.005603081
-5.352387e-08
0.005603109
-5.536756e-08
0.005603138
-5.734036e-08
0.005603169
-5.937194e-08
0.0056032
-6.141501e-08
0.005603232
-6.343743e-08
0.005603266
-6.541697e-08
0.0056033
-6.733819e-08
0.005603335
-6.919074e-08
0.005603371
-7.096761e-08
0.005603408
-7.266458e-08
0.005603446
-7.427916e-08
0.005603484
-7.581048e-08
0.005603524
-7.725855e-08
0.005603564
-7.862437e-08
0.005603604
-7.990936e-08
0.005603646
-8.111551e-08
0.005603687
-8.224501e-08
0.00560373
-8.330033e-08
0.005603773
-8.428401e-08
0.005603816
-8.519867e-08
0.00560386
-8.604694e-08
0.005603904
-8.68314e-08
0.005603948
-8.755459e-08
0.005603993
-8.821891e-08
0.005604038
-8.882669e-08
0.005604083
-8.938008e-08
0.005604129
-8.988113e-08
0.005604175
-9.033167e-08
0.005604221
-9.073343e-08
0.005604267
-9.108788e-08
0.005604314
-9.139641e-08
0.00560436
-9.166012e-08
0.005604407
-9.188005e-08
0.005604454
-9.205689e-08
0.0056045
-9.21913e-08
0.005604547
-9.22836e-08
0.005604594
-9.233406e-08
0.005604641
-9.23426e-08
0.005604688
-9.230911e-08
0.005604735
-9.22331e-08
0.005604781
-9.211407e-08
0.005604828
-9.195113e-08
0.005604875
-9.174338e-08
0.005604921
-9.148953e-08
0.005604967
-9.118827e-08
0.005605013
-9.083792e-08
0.005605059
-9.043676e-08
0.005605105
-8.998269e-08
0.00560515
-8.947362e-08
0.005605196
-8.890705e-08
0.005605241
-8.828048e-08
0.005605285
-8.759105e-08
0.005605329
-8.68359e-08
0.005605373
-8.60118e-08
0.005605416
-8.511559e-08
0.005605459
-8.414373e-08
0.005605501
-8.309277e-08
0.005605543
-8.195896e-08
0.005605584
-8.073866e-08
0.005605624
-7.9428e-08
0.005605664
-7.802326e-08
0.005605703
-7.652056e-08
0.005605741
-7.49163e-08
0.005605779
-7.320675e-08
0.005605815
-7.138858e-08
0.00560585
-6.945847e-08
0.005605885
-6.741361e-08
0.005605918
-6.52513e-08
0.00560595
-6.29695e-08
0.005605981
-6.056646e-08
0.005606011
-5.804121e-08
0.00560604
-5.539323e-08
0.005606067
-5.262292e-08
0.005606092
-4.973128e-08
0.005606116
-4.672038e-08
0.005606139
-4.359302e-08
0.00560616
-4.03532e-08
0.005606179
-3.700575e-08
0.005606196
-3.355678e-08
0.005606212
-3.001338e-08
0.005606226
-2.638402e-08
0.005606238
-2.267838e-08
0.005606248
-1.890773e-08
0.005606256
-1.508502e-08
0.005606262
-1.122557e-08
0.005606267
-7.346161e-09
-3.465658e-09
0.005603069
-3.575856e-07
0.005602964
-2.385787e-07
0.005602961
-1.346927e-07
0.005602963
-1.154519e-07
0.005602975
-1.027876e-07
0.005602995
-8.78828e-08
0.005603018
-7.947025e-08
0.005603041
-7.58909e-08
0.005603065
-7.454484e-08
0.00560309
-7.472424e-08
0.005603115
-7.604897e-08
0.005603141
-7.811745e-08
0.005603168
-8.06492e-08
0.005603196
-8.346655e-08
0.005603225
-8.644542e-08
0.005603255
-8.94966e-08
0.005603286
-9.255731e-08
0.005603318
-9.55833e-08
0.005603351
-9.854329e-08
0.005603385
-1.014153e-07
0.00560342
-1.041843e-07
0.005603456
-1.0684e-07
0.005603493
-1.093762e-07
0.00560353
-1.117893e-07
0.005603568
-1.140779e-07
0.005603607
-1.162421e-07
0.005603647
-1.182833e-07
0.005603687
-1.202037e-07
0.005603728
-1.220062e-07
0.00560377
-1.236941e-07
0.005603811
-1.252711e-07
0.005603854
-1.267411e-07
0.005603897
-1.281078e-07
0.00560394
-1.293754e-07
0.005603984
-1.305475e-07
0.005604028
-1.316281e-07
0.005604072
-1.326208e-07
0.005604117
-1.33529e-07
0.005604162
-1.343559e-07
0.005604207
-1.351046e-07
0.005604252
-1.357779e-07
0.005604298
-1.363783e-07
0.005604344
-1.369081e-07
0.00560439
-1.373692e-07
0.005604436
-1.377635e-07
0.005604482
-1.380923e-07
0.005604528
-1.383569e-07
0.005604575
-1.38558e-07
0.005604621
-1.386963e-07
0.005604667
-1.387721e-07
0.005604714
-1.387853e-07
0.00560476
-1.387357e-07
0.005604807
-1.386226e-07
0.005604853
-1.384452e-07
0.005604899
-1.382023e-07
0.005604945
-1.378923e-07
0.005604991
-1.375135e-07
0.005605037
-1.370638e-07
0.005605083
-1.365408e-07
0.005605128
-1.359418e-07
0.005605174
-1.352637e-07
0.005605219
-1.345033e-07
0.005605263
-1.33657e-07
0.005605308
-1.327208e-07
0.005605352
-1.316906e-07
0.005605395
-1.30562e-07
0.005605439
-1.293302e-07
0.005605482
-1.279903e-07
0.005605524
-1.265372e-07
0.005605566
-1.249655e-07
0.005605607
-1.232697e-07
0.005605648
-1.214441e-07
0.005605688
-1.194831e-07
0.005605727
-1.173808e-07
0.005605766
-1.151316e-07
0.005605804
-1.127298e-07
0.005605841
-1.101699e-07
0.005605877
-1.074468e-07
0.005605912
-1.045554e-07
0.005605946
-1.014913e-07
0.005605979
-9.825067e-08
0.005606011
-9.483005e-08
0.005606041
-9.122692e-08
0.005606071
-8.743956e-08
0.005606099
-8.346727e-08
0.005606125
-7.931039e-08
0.005606151
-7.497051e-08
0.005606174
-7.045049e-08
0.005606197
-6.575463e-08
0.005606217
-6.088867e-08
0.005606236
-5.585995e-08
0.005606253
-5.067741e-08
0.005606268
-4.535167e-08
0.005606282
-3.989504e-08
0.005606294
-3.432163e-08
0.005606303
-2.864729e-08
0.005606311
-2.288947e-08
0.005606317
-1.706675e-08
0.005606321
-1.119627e-08
-5.287767e-09
0.00560316
-2.003775e-07
0.005603097
-1.753952e-07
0.005603095
-1.315484e-07
0.005603099
-1.188941e-07
0.005603107
-1.107105e-07
0.005603122
-1.018445e-07
0.005603139
-9.661169e-08
0.005603158
-9.486198e-08
0.005603179
-9.514823e-08
0.005603201
-9.681683e-08
0.005603224
-9.950551e-08
0.005603249
-1.028801e-07
0.005603275
-1.066845e-07
0.005603302
-1.10743e-07
0.00560333
-1.149298e-07
0.00560336
-1.191536e-07
0.005603391
-1.233485e-07
0.005603422
-1.274672e-07
0.005603455
-1.314762e-07
0.005603489
-1.353519e-07
0.005603524
-1.390781e-07
0.00560356
-1.426443e-07
0.005603596
-1.460441e-07
0.005603634
-1.492744e-07
0.005603672
-1.523346e-07
0.005603711
-1.552257e-07
0.00560375
-1.579502e-07
0.005603791
-1.605118e-07
0.005603832
-1.629146e-07
0.005603873
-1.651636e-07
0.005603915
-1.672639e-07
0.005603957
-1.692208e-07
0.005604
-1.710397e-07
0.005604044
-1.72726e-07
0.005604087
-1.742851e-07
0.005604131
-1.757221e-07
0.005604176
-1.770418e-07
0.00560422
-1.782491e-07
0.005604265
-1.793482e-07
0.005604311
-1.803432e-07
0.005604356
-1.812379e-07
0.005604402
-1.820358e-07
0.005604447
-1.827398e-07
0.005604493
-1.833527e-07
0.005604539
-1.838768e-07
0.005604586
-1.84314e-07
0.005604632
-1.846659e-07
0.005604678
-1.849336e-07
0.005604725
-1.85118e-07
0.005604771
-1.852193e-07
0.005604818
-1.852377e-07
0.005604864
-1.851728e-07
0.00560491
-1.850237e-07
0.005604957
-1.847893e-07
0.005605003
-1.844679e-07
0.005605049
-1.840577e-07
0.005605095
-1.835561e-07
0.005605141
-1.829604e-07
0.005605187
-1.822675e-07
0.005605232
-1.814736e-07
0.005605277
-1.805748e-07
0.005605323
-1.795666e-07
0.005605367
-1.784444e-07
0.005605412
-1.772027e-07
0.005605456
-1.758362e-07
0.0056055
-1.743388e-07
0.005605543
-1.727042e-07
0.005605586
-1.709258e-07
0.005605628
-1.689967e-07
0.00560567
-1.669098e-07
0.005605712
-1.646575e-07
0.005605752
-1.622324e-07
0.005605793
-1.596267e-07
0.005605832
-1.568326e-07
0.005605871
-1.538425e-07
0.005605909
-1.506486e-07
0.005605946
-1.472436e-07
0.005605982
-1.436204e-07
0.005606017
-1.397722e-07
0.005606051
-1.356929e-07
0.005606084
-1.313772e-07
0.005606116
-1.268204e-07
0.005606147
-1.220188e-07
0.005606177
-1.169702e-07
0.005606205
-1.116733e-07
0.005606232
-1.061284e-07
0.005606257
-1.003374e-07
0.005606281
-9.430414e-08
0.005606303
-8.803408e-08
0.005606324
-8.153483e-08
0.005606343
-7.481599e-08
0.00560636
-6.788937e-08
0.005606375
-6.076891e-08
0.005606389
-5.347073e-08
0.005606401
-4.601307e-08
0.00560641
-3.841614e-08
0.005606418
-3.070181e-08
0.005606424
-2.289357e-08
0.005606428
-1.501394e-08
-7.093338e-09
0.005603229
-1.304521e-07
0.005603188
-1.331514e-07
0.005603174
-1.16814e-07
0.005603169
-1.135597e-07
0.005603171
-1.122584e-07
0.00560318
-1.1036e-07
0.005603194
-1.100156e-07
0.00560321
-1.115714e-07
0.00560323
-1.144289e-07
0.005603251
-1.182065e-07
0.005603274
-1.226753e-07
0.005603299
-1.276209e-07
0.005603325
-1.328613e-07
0.005603352
-1.382591e-07
0.005603381
-1.437107e-07
0.005603411
-1.49137e-07
0.005603442
-1.544789e-07
0.005603474
-1.596926e-07
0.005603507
-1.647461e-07
0.005603542
-1.696168e-07
0.005603577
-1.742891e-07
0.005603613
-1.787533e-07
0.00560365
-1.830035e-07
0.005603687
-1.870376e-07
0.005603726
-1.908559e-07
0.005603765
-1.944607e-07
0.005603805
-1.978558e-07
0.005603845
-2.010462e-07
0.005603887
-2.040376e-07
0.005603928
-2.068364e-07
0.00560397
-2.094492e-07
0.005604013
-2.118829e-07
0.005604056
-2.141444e-07
0.005604099
-2.162407e-07
0.005604143
-2.181783e-07
0.005604187
-2.199639e-07
0.005604232
-2.216036e-07
0.005604277
-2.231033e-07
0.005604322
-2.244686e-07
0.005604367
-2.257045e-07
0.005604413
-2.268158e-07
0.005604459
-2.278067e-07
0.005604504
-2.286811e-07
0.005604551
-2.294424e-07
0.005604597
-2.300934e-07
0.005604643
-2.306366e-07
0.005604689
-2.310739e-07
0.005604736
-2.314068e-07
0.005604782
-2.316362e-07
0.005604829
-2.317627e-07
0.005604875
-2.317863e-07
0.005604922
-2.317065e-07
0.005604968
-2.315222e-07
0.005605015
-2.31232e-07
0.005605061
-2.30834e-07
0.005605107
-2.303256e-07
0.005605154
-2.297038e-07
0.0056052
-2.289652e-07
0.005605245
-2.281057e-07
0.005605291
-2.271208e-07
0.005605336
-2.260056e-07
0.005605382
-2.247544e-07
0.005605426
-2.233613e-07
0.005605471
-2.218197e-07
0.005605515
-2.201226e-07
0.005605559
-2.182626e-07
0.005605603
-2.162317e-07
0.005605646
-2.140217e-07
0.005605688
-2.116237e-07
0.005605731
-2.090288e-07
0.005605772
-2.062276e-07
0.005605813
-2.032105e-07
0.005605853
-1.999678e-07
0.005605893
-1.964896e-07
0.005605932
-1.92766e-07
0.00560597
-1.887874e-07
0.005606007
-1.845443e-07
0.005606044
-1.800275e-07
0.005606079
-1.752285e-07
0.005606114
-1.701394e-07
0.005606147
-1.64753e-07
0.005606179
-1.590635e-07
0.00560621
-1.530659e-07
0.00560624
-1.467569e-07
0.005606269
-1.401349e-07
0.005606296
-1.331999e-07
0.005606321
-1.259542e-07
0.005606345
-1.18402e-07
0.005606368
-1.105501e-07
0.005606389
-1.024079e-07
0.005606408
-9.398712e-08
0.005606425
-8.530251e-08
0.005606441
-7.637137e-08
0.005606455
-6.721373e-08
0.005606466
-5.785224e-08
0.005606476
-4.831194e-08
0.005606484
-3.861986e-08
0.00560649
-2.880508e-08
0.005606494
-1.889544e-08
-8.930675e-09
0.005603235
-8.657063e-08
0.005603208
-1.050018e-07
0.005603198
-1.066281e-07
0.005603197
-1.116302e-07
0.005603202
-1.162252e-07
0.005603211
-1.196846e-07
0.005603225
-1.234296e-07
0.005603241
-1.280072e-07
0.00560326
-1.33303e-07
0.005603281
-1.391559e-07
0.005603304
-1.454391e-07
0.005603328
-1.520188e-07
0.005603354
-1.58766e-07
0.005603381
-1.655732e-07
0.00560341
-1.723536e-07
0.00560344
-1.790388e-07
0.005603471
-1.855757e-07
0.005603503
-1.919242e-07
0.005603536
-1.980548e-07
0.00560357
-2.039468e-07
0.005603606
-2.09586e-07
0.005603642
-2.14964e-07
0.005603679
-2.200767e-07
0.005603717
-2.249232e-07
0.005603755
-2.295054e-07
0.005603795
-2.338275e-07
0.005603835
-2.378948e-07
0.005603875
-2.417142e-07
0.005603916
-2.452931e-07
0.005603958
-2.486397e-07
0.005604
-2.517624e-07
0.005604043
-2.546698e-07
0.005604086
-2.573705e-07
0.00560413
-2.598729e-07
0.005604174
-2.621853e-07
0.005604218
-2.643156e-07
0.005604263
-2.662715e-07
0.005604308
-2.6806e-07
0.005604353
-2.696879e-07
0.005604398
-2.711614e-07
0.005604444
-2.724862e-07
0.00560449
-2.736676e-07
0.005604536
-2.7471e-07
0.005604582
-2.756176e-07
0.005604628
-2.763939e-07
0.005604675
-2.770418e-07
0.005604721
-2.775636e-07
0.005604768
-2.779612e-07
0.005604814
-2.782357e-07
0.005604861
-2.783877e-07
0.005604907
-2.784173e-07
0.005604954
-2.783238e-07
0.005605001
-2.781061e-07
0.005605047
-2.777624e-07
0.005605093
-2.772904e-07
0.00560514
-2.76687e-07
0.005605186
-2.759487e-07
0.005605232
-2.750713e-07
0.005605278
-2.740499e-07
0.005605324
-2.728792e-07
0.005605369
-2.715532e-07
0.005605415
-2.700651e-07
0.00560546
-2.684077e-07
0.005605504
-2.665732e-07
0.005605549
-2.645532e-07
0.005605593
-2.623386e-07
0.005605637
-2.599199e-07
0.00560568
-2.57287e-07
0.005605723
-2.544293e-07
0.005605765
-2.51336e-07
0.005605807
-2.479955e-07
0.005605848
-2.443963e-07
0.005605888
-2.405265e-07
0.005605928
-2.363741e-07
0.005605967
-2.31927e-07
0.005606006
-2.271732e-07
0.005606043
-2.221012e-07
0.00560608
-2.166996e-07
0.005606116
-2.109579e-07
0.00560615
-2.04866e-07
0.005606184
-1.984152e-07
0.005606217
-1.915979e-07
0.005606248
-1.844077e-07
0.005606278
-1.768404e-07
0.005606307
-1.688934e-07
0.005606334
-1.605664e-07
0.00560636
-1.518616e-07
0.005606384
-1.42784e-07
0.005606407
-1.333413e-07
0.005606428
-1.235445e-07
0.005606448
-1.134076e-07
0.005606465
-1.02948e-07
0.005606481
-9.21865e-08
0.005606495
-8.114713e-08
0.005606507
-6.985708e-08
0.005606517
-5.834656e-08
0.005606525
-4.66482e-08
0.005606531
-3.479755e-08
0.005606535
-2.282902e-08
-1.07939e-08
0.005603245
-6.641422e-08
0.00560323
-9.007007e-08
0.005603224
-9.986077e-08
0.005603224
-1.102144e-07
0.005603227
-1.194525e-07
0.005603235
-1.274196e-07
0.005603247
-1.350616e-07
0.005603262
-1.428709e-07
0.00560328
-1.509195e-07
0.0056033
-1.591666e-07
0.005603322
-1.675563e-07
0.005603346
-1.760166e-07
0.005603371
-1.844681e-07
0.005603399
-1.928376e-07
0.005603427
-2.01063e-07
0.005603457
-2.090931e-07
0.005603488
-2.168872e-07
0.005603521
-2.244144e-07
0.005603554
-2.316518e-07
0.005603589
-2.385838e-07
0.005603624
-2.452004e-07
0.005603661
-2.514967e-07
0.005603698
-2.574713e-07
0.005603736
-2.631263e-07
0.005603775
-2.684662e-07
0.005603815
-2.734973e-07
0.005603855
-2.782275e-07
0.005603896
-2.826656e-07
0.005603938
-2.868213e-07
0.00560398
-2.907048e-07
0.005604022
-2.943265e-07
0.005604065
-2.976967e-07
0.005604108
-3.00826e-07
0.005604152
-3.037245e-07
0.005604196
-3.06402e-07
0.005604241
-3.088679e-07
0.005604286
-3.111313e-07
0.005604331
-3.132007e-07
0.005604376
-3.150839e-07
0.005604422
-3.167883e-07
0.005604468
-3.183206e-07
0.005604514
-3.196869e-07
0.00560456
-3.208925e-07
0.005604606
-3.219424e-07
0.005604653
-3.228404e-07
0.005604699
-3.235902e-07
0.005604746
-3.241944e-07
0.005604792
-3.246552e-07
0.005604839
-3.249738e-07
0.005604886
-3.251511e-07
0.005604933
-3.251869e-07
0.005604979
-3.250808e-07
0.005605026
-3.248313e-07
0.005605073
-3.244363e-07
0.005605119
-3.23893e-07
0.005605166
-3.231981e-07
0.005605212
-3.223473e-07
0.005605258
-3.213358e-07
0.005605304
-3.201579e-07
0.00560535
-3.188073e-07
0.005605396
-3.17277e-07
0.005605442
-3.155592e-07
0.005605487
-3.136453e-07
0.005605532
-3.115263e-07
0.005605576
-3.091922e-07
0.005605621
-3.066324e-07
0.005605665
-3.038358e-07
0.005605708
-3.007904e-07
0.005605751
-2.974839e-07
0.005605794
-2.939033e-07
0.005605836
-2.900351e-07
0.005605877
-2.858655e-07
0.005605918
-2.813805e-07
0.005605958
-2.765656e-07
0.005605998
-2.714066e-07
0.005606036
-2.658892e-07
0.005606074
-2.599992e-07
0.005606111
-2.537233e-07
0.005606147
-2.470484e-07
0.005606182
-2.399624e-07
0.005606216
-2.324546e-07
0.005606249
-2.245153e-07
0.005606281
-2.161368e-07
0.005606311
-2.073132e-07
0.005606341
-1.980412e-07
0.005606368
-1.883197e-07
0.005606395
-1.781508e-07
0.005606419
-1.675397e-07
0.005606443
-1.564951e-07
0.005606464
-1.450294e-07
0.005606484
-1.331588e-07
0.005606502
-1.209034e-07
0.005606518
-1.082874e-07
0.005606532
-9.533916e-08
0.005606544
-8.209054e-08
0.005606554
-6.85772e-08
0.005606563
-5.483779e-08
0.005606569
-4.091447e-08
0.005606573
-2.684823e-08
-1.269979e-08
0.005603237
-5.354156e-08
0.005603229
-8.090908e-08
0.005603226
-9.627235e-08
0.005603227
-1.108629e-07
0.005603233
-1.242264e-07
0.005603242
-1.36196e-07
0.005603254
-1.473912e-07
0.00560327
-1.582568e-07
0.005603288
-1.689584e-07
0.005603308
-1.795386e-07
0.005603331
-1.900019e-07
0.005603355
-2.003274e-07
0.005603381
-2.10477e-07
0.005603408
-2.204078e-07
0.005603437
-2.300791e-07
0.005603467
-2.394556e-07
0.005603499
-2.485082e-07
0.005603532
-2.572142e-07
0.005603566
-2.655573e-07
0.0056036
-2.735267e-07
0.005603636
-2.811167e-07
0.005603673
-2.883258e-07
0.005603711
-2.95156e-07
0.005603749
-3.016121e-07
0.005603788
-3.077013e-07
0.005603828
-3.134325e-07
0.005603869
-3.18816e-07
0.00560391
-3.238631e-07
0.005603952
-3.285856e-07
0.005603994
-3.32996e-07
0.005604037
-3.371066e-07
0.00560408
-3.4093e-07
0.005604123
-3.444783e-07
0.005604167
-3.477635e-07
0.005604212
-3.507972e-07
0.005604256
-3.535904e-07
0.005604301
-3.561534e-07
0.005604347
-3.584961e-07
0.005604392
-3.606278e-07
0.005604438
-3.625567e-07
0.005604484
-3.642908e-07
0.00560453
-3.658368e-07
0.005604576
-3.672012e-07
0.005604623
-3.683894e-07
0.005604669
-3.69406e-07
0.005604716
-3.702551e-07
0.005604763
-3.709397e-07
0.005604809
-3.714623e-07
0.005604856
-3.718245e-07
0.005604903
-3.72027e-07
0.00560495
-3.720699e-07
0.005604997
-3.719526e-07
0.005605044
-3.716733e-07
0.00560509
-3.712298e-07
0.005605137
-3.706189e-07
0.005605184
-3.698367e-07
0.00560523
-3.688784e-07
0.005605277
-3.677384e-07
0.005605323
-3.664103e-07
0.005605369
-3.64887e-07
0.005605415
-3.631602e-07
0.00560546
-3.612212e-07
0.005605506
-3.590602e-07
0.005605551
-3.566666e-07
0.005605596
-3.540291e-07
0.00560564
-3.511355e-07
0.005605684
-3.479729e-07
0.005605728
-3.445277e-07
0.005605771
-3.407854e-07
0.005605814
-3.367311e-07
0.005605856
-3.323491e-07
0.005605898
-3.276234e-07
0.005605939
-3.225376e-07
0.00560598
-3.170749e-07
0.00560602
-3.112185e-07
0.005606059
-3.049515e-07
0.005606097
-2.982575e-07
0.005606134
-2.911203e-07
0.005606171
-2.835244e-07
0.005606206
-2.754555e-07
0.005606241
-2.669002e-07
0.005606274
-2.57847e-07
0.005606306
-2.482861e-07
0.005606337
-2.382101e-07
0.005606367
-2.276142e-07
0.005606395
-2.164964e-07
0.005606422
-2.048585e-07
0.005606447
-1.927056e-07
0.00560647
-1.800471e-07
0.005606492
-1.668967e-07
0.005606512
-1.532726e-07
0.00560653
-1.391976e-07
0.005606547
-1.246996e-07
0.005606561
-1.098111e-07
0.005606574
-9.456897e-08
0.005606584
-7.901482e-08
0.005606593
-6.319382e-08
0.005606599
-4.715564e-08
0.005606603
-3.094877e-08
-1.464617e-08
0.005603232
-4.787804e-08
0.005603229
-7.73475e-08
0.005603229
-9.598971e-08
0.005603233
-1.136612e-07
0.005603239
-1.302976e-07
0.005603249
-1.455579e-07
0.005603261
-1.598375e-07
0.005603277
-1.735187e-07
0.005603295
-1.867805e-07
0.005603315
-1.996895e-07
0.005603337
-2.12274e-07
0.005603361
-2.245381e-07
0.005603387
-2.364672e-07
0.005603415
-2.480381e-07
0.005603444
-2.592267e-07
0.005603474
-2.700107e-07
0.005603506
-2.803718e-07
0.005603539
-2.902963e-07
0.005603573
-2.99775e-07
0.005603608
-3.088036e-07
0.005603645
-3.173816e-07
0.005603682
-3.255122e-07
0.00560372
-3.332016e-07
0.005603758
-3.404585e-07
0.005603798
-3.472935e-07
0.005603838
-3.537188e-07
0.005603879
-3.597479e-07
0.005603921
-3.653947e-07
0.005603963
-3.70674e-07
0.005604005
-3.756005e-07
0.005604048
-3.801891e-07
0.005604092
-3.844544e-07
0.005604136
-3.884107e-07
0.00560418
-3.920719e-07
0.005604224
-3.954514e-07
0.005604269
-3.985618e-07
0.005604315
-4.01415e-07
0.00560436
-4.040223e-07
0.005604406
-4.063942e-07
0.005604452
-4.085403e-07
0.005604498
-4.104693e-07
0.005604544
-4.121892e-07
0.005604591
-4.13707e-07
0.005604637
-4.15029e-07
0.005604684
-4.161604e-07
0.005604731
-4.171057e-07
0.005604778
-4.178685e-07
0.005604825
-4.184515e-07
0.005604872
-4.188565e-07
0.005604919
-4.190844e-07
0.005604966
-4.191353e-07
0.005605013
-4.190082e-07
0.00560506
-4.187016e-07
0.005605107
-4.182128e-07
0.005605154
-4.175382e-07
0.005605201
-4.166735e-07
0.005605247
-4.156132e-07
0.005605294
-4.143512e-07
0.00560534
-4.128802e-07
0.005605387
-4.11192e-07
0.005605433
-4.092777e-07
0.005605479
-4.071271e-07
0.005605524
-4.047293e-07
0.00560557
-4.020724e-07
0.005605615
-3.991435e-07
0.00560566
-3.959288e-07
0.005605704
-3.924138e-07
0.005605748
-3.885828e-07
0.005605792
-3.844195e-07
0.005605835
-3.799067e-07
0.005605878
-3.750268e-07
0.00560592
-3.697611e-07
0.005605961
-3.640909e-07
0.005606002
-3.579968e-07
0.005606042
-3.514594e-07
0.005606082
-3.444591e-07
0.005606121
-3.369766e-07
0.005606158
-3.289931e-07
0.005606195
-3.204903e-07
0.005606231
-3.114511e-07
0.005606266
-3.018596e-07
0.0056063
-2.917018e-07
0.005606333
-2.809655e-07
0.005606364
-2.696413e-07
0.005606394
-2.577228e-07
0.005606423
-2.452067e-07
0.00560645
-2.32094e-07
0.005606476
-2.183895e-07
0.0056065
-2.04103e-07
0.005606522
-1.892493e-07
0.005606543
-1.738484e-07
0.005606562
-1.57926e-07
0.005606578
-1.415133e-07
0.005606593
-1.246472e-07
0.005606606
-1.0737e-07
0.005606617
-8.972956e-08
0.005606625
-7.177785e-08
0.005606632
-5.357232e-08
0.005606636
-3.516918e-08
-1.665231e-08
0.005603221
-4.481855e-08
0.005603221
-7.645052e-08
0.005603223
-9.775596e-08
0.005603228
-1.180136e-07
0.005603236
-1.375618e-07
0.005603247
-1.558308e-07
0.00560326
-1.73005e-07
0.005603276
-1.893969e-07
0.005603294
-2.051677e-07
0.005603315
-2.203838e-07
0.005603338
-2.350839e-07
0.005603362
-2.492887e-07
0.005603389
-2.630012e-07
0.005603417
-2.762152e-07
0.005603447
-2.889213e-07
0.005603478
-3.0111e-07
0.00560351
-3.127737e-07
0.005603543
-3.239077e-07
0.005603578
-3.345107e-07
0.005603614
-3.445848e-07
0.005603651
-3.541354e-07
0.005603688
-3.631708e-07
0.005603727
-3.717018e-07
0.005603766
-3.79741e-07
0.005603806
-3.873031e-07
0.005603846
-3.944037e-07
0.005603888
-4.010594e-07
0.005603929
-4.072874e-07
0.005603972
-4.13105e-07
0.005604015
-4.185298e-07
0.005604058
-4.235791e-07
0.005604102
-4.282697e-07
0.005604146
-4.326182e-07
0.005604191
-4.366403e-07
0.005604235
-4.403514e-07
0.005604281
-4.437656e-07
0.005604326
-4.468966e-07
0.005604372
-4.49757e-07
0.005604418
-4.523585e-07
0.005604464
-4.54712e-07
0.00560451
-4.568272e-07
0.005604557
-4.587131e-07
0.005604603
-4.603775e-07
0.00560465
-4.618273e-07
0.005604697
-4.630685e-07
0.005604744
-4.641061e-07
0.005604791
-4.649439e-07
0.005604838
-4.655851e-07
0.005604885
-4.660316e-07
0.005604932
-4.662845e-07
0.00560498
-4.663438e-07
0.005605027
-4.662087e-07
0.005605074
-4.658771e-07
0.005605121
-4.653464e-07
0.005605168
-4.646124e-07
0.005605215
-4.636704e-07
0.005605262
-4.625144e-07
0.005605309
-4.611375e-07
0.005605355
-4.595317e-07
0.005605402
-4.576879e-07
0.005605448
-4.55596e-07
0.005605494
-4.532449e-07
0.00560554
-4.506224e-07
0.005605586
-4.477152e-07
0.005605631
-4.445088e-07
0.005605676
-4.40988e-07
0.005605721
-4.371362e-07
0.005605765
-4.329361e-07
0.005605809
-4.283691e-07
0.005605853
-4.234161e-07
0.005605896
-4.180568e-07
0.005605938
-4.122703e-07
0.00560598
-4.060353e-07
0.005606021
-3.993296e-07
0.005606062
-3.921309e-07
0.005606102
-3.844169e-07
0.005606141
-3.761652e-07
0.00560618
-3.673539e-07
0.005606217
-3.579617e-07
0.005606254
-3.479683e-07
0.005606289
-3.37355e-07
0.005606323
-3.261047e-07
0.005606357
-3.142028e-07
0.005606389
-3.016373e-07
0.005606419
-2.883996e-07
0.005606449
-2.744849e-07
0.005606476
-2.598926e-07
0.005606503
-2.446272e-07
0.005606527
-2.286984e-07
0.00560655
-2.121218e-07
0.005606571
-1.949191e-07
0.00560659
-1.771185e-07
0.005606608
-1.587549e-07
0.005606623
-1.398696e-07
0.005606636
-1.205108e-07
0.005606647
-1.007328e-07
0.005606656
-8.059524e-08
0.005606662
-6.01644e-08
0.005606667
-3.950533e-08
-1.871611e-08
0.00560321
-4.431554e-08
0.005603212
-7.80225e-08
0.005603217
-1.015304e-07
0.005603224
-1.240878e-07
0.005603233
-1.462389e-07
0.005603244
-1.672024e-07
0.005603259
-1.870096e-07
0.005603275
-2.059202e-07
0.005603294
-2.2407e-07
0.005603315
-2.415126e-07
0.005603338
-2.582852e-07
0.005603363
-2.744137e-07
0.00560339
-2.899098e-07
0.005603419
-3.047769e-07
0.005603449
-3.190151e-07
0.00560348
-3.32624e-07
0.005603513
-3.456046e-07
0.005603547
-3.579599e-07
0.005603582
-3.696955e-07
0.005603618
-3.808201e-07
0.005603655
-3.913449e-07
0.005603694
-4.012834e-07
0.005603732
-4.106513e-07
0.005603772
-4.19466e-07
0.005603812
-4.277463e-07
0.005603854
-4.355116e-07
0.005603895
-4.427823e-07
0.005603937
-4.495789e-07
0.00560398
-4.559218e-07
0.005604023
-4.618315e-07
0.005604067
-4.67328e-07
0.005604111
-4.724306e-07
0.005604156
-4.771582e-07
0.005604201
-4.815287e-07
0.005604246
-4.855592e-07
0.005604291
-4.892659e-07
0.005604337
-4.926639e-07
0.005604383
-4.957673e-07
0.005604429
-4.985892e-07
0.005604476
-5.011416e-07
0.005604522
-5.034355e-07
0.005604569
-5.054805e-07
0.005604616
-5.072856e-07
0.005604663
-5.088583e-07
0.00560471
-5.102052e-07
0.005604757
-5.113317e-07
0.005604804
-5.122422e-07
0.005604852
-5.129401e-07
0.005604899
-5.134276e-07
0.005604946
-5.137058e-07
0.005604994
-5.137749e-07
0.005605041
-5.136338e-07
0.005605089
-5.132805e-07
0.005605136
-5.127119e-07
0.005605183
-5.119236e-07
0.00560523
-5.109103e-07
0.005605278
-5.096656e-07
0.005605325
-5.081817e-07
0.005605372
-5.0645e-07
0.005605418
-5.044605e-07
0.005605465
-5.022022e-07
0.005605511
-4.996626e-07
0.005605557
-4.968285e-07
0.005605603
-4.93685e-07
0.005605649
-4.902163e-07
0.005605695
-4.864054e-07
0.00560574
-4.822339e-07
0.005605784
-4.776826e-07
0.005605829
-4.727309e-07
0.005605873
-4.673572e-07
0.005605916
-4.61539e-07
0.005605959
-4.552527e-07
0.005606002
-4.484743e-07
0.005606043
-4.411787e-07
0.005606085
-4.333407e-07
0.005606125
-4.249347e-07
0.005606165
-4.15935e-07
0.005606204
-4.063164e-07
0.005606242
-3.960542e-07
0.005606279
-3.851248e-07
0.005606315
-3.735059e-07
0.00560635
-3.611772e-07
0.005606384
-3.481208e-07
0.005606417
-3.343218e-07
0.005606448
-3.19769e-07
0.005606478
-3.044552e-07
0.005606507
-2.883783e-07
0.005606534
-2.715416e-07
0.005606559
-2.539543e-07
0.005606582
-2.356324e-07
0.005606604
-2.165992e-07
0.005606624
-1.968852e-07
0.005606641
-1.765287e-07
0.005606657
-1.555761e-07
0.005606671
-1.340811e-07
0.005606682
-1.121053e-07
0.005606691
-8.971637e-08
0.005606698
-6.698993e-08
0.005606703
-4.400034e-08
-2.085907e-08
0.005603197
-4.496796e-08
0.005603201
-8.100336e-08
0.005603207
-1.066437e-07
0.005603215
-1.31382e-07
0.005603225
-1.559911e-07
0.005603238
-1.795104e-07
0.005603253
-2.018424e-07
0.00560327
-2.231996e-07
0.00560329
-2.436867e-07
0.005603311
-2.633358e-07
0.005603335
-2.821749e-07
0.005603361
-3.002288e-07
0.005603389
-3.175129e-07
0.005603418
-3.340368e-07
0.005603448
-3.498082e-07
0.005603481
-3.648348e-07
0.005603514
-3.791258e-07
0.005603549
-3.926918e-07
0.005603585
-4.05546e-07
0.005603621
-4.177038e-07
0.005603659
-4.291827e-07
0.005603698
-4.400024e-07
0.005603737
-4.501838e-07
0.005603777
-4.597495e-07
0.005603818
-4.687227e-07
0.00560386
-4.771273e-07
0.005603902
-4.849875e-07
0.005603945
-4.923274e-07
0.005603988
-4.99171e-07
0.005604032
-5.055416e-07
0.005604076
-5.114622e-07
0.00560412
-5.169547e-07
0.005604165
-5.220403e-07
0.00560421
-5.267391e-07
0.005604256
-5.310703e-07
0.005604301