/*--------------------------------*- C++ -*----------------------------------*\
| =========                 |                                                 |
| \\      /  F ield         | OpenFOAM: The Open Source CFD Toolbox           |
|  \\    /   O peration     | Version:  2.3.0                                 |
|   \\  /    A nd           | Web:      www.OpenFOAM.org                      |
|    \\/     M anipulation  |                                                 |
\*---------------------------------------------------------------------------*/
FoamFile
{
    version     2.0;
    format      ascii;
    class       volVectorField;
    location    "9600/bottomAir";
    object      U;
}
// * * * * * * * * * * * * * * * * * * * * * * * * * * * * * * * * * * * * * //

dimensions      [0 1 -1 0 0 0 0];

internalField   nonuniform List<vector> 
4000
(
(27.96733 -0.00299929 0)
(21.18629 -0.001495121 0)
(18.45681 -0.0005881789 0)
(19.18446 -0.0004509202 0)
(19.46096 -0.0003262086 0)
(19.38328 -0.0002155347 0)
(19.3555 -0.0001595144 0)
(19.36393 -0.000128999 0)
(19.36684 -0.0001082443 0)
(19.36605 -9.442303e-05 0)
(19.36585 -8.549165e-05 0)
(19.36604 -7.956289e-05 0)
(19.36616 -7.55756e-05 0)
(19.36624 -7.293089e-05 0)
(19.36634 -7.122938e-05 0)
(19.36644 -7.019417e-05 0)
(19.36654 -6.963755e-05 0)
(19.36665 -6.942747e-05 0)
(19.36676 -6.946874e-05 0)
(19.36687 -6.96917e-05 0)
(19.36699 -7.004412e-05 0)
(19.36711 -7.048728e-05 0)
(19.36723 -7.099112e-05 0)
(19.36736 -7.153337e-05 0)
(19.36749 -7.209626e-05 0)
(19.36762 -7.266681e-05 0)
(19.36775 -7.323445e-05 0)
(19.36789 -7.379171e-05 0)
(19.36803 -7.433238e-05 0)
(19.36817 -7.485229e-05 0)
(19.36831 -7.5348e-05 0)
(19.36846 -7.581732e-05 0)
(19.3686 -7.625852e-05 0)
(19.36875 -7.667066e-05 0)
(19.3689 -7.705304e-05 0)
(19.36905 -7.740542e-05 0)
(19.3692 -7.772776e-05 0)
(19.36935 -7.802018e-05 0)
(19.3695 -7.8283e-05 0)
(19.36966 -7.851648e-05 0)
(19.36981 -7.872111e-05 0)
(19.36997 -7.889715e-05 0)
(19.37013 -7.904512e-05 0)
(19.37028 -7.916519e-05 0)
(19.37044 -7.92578e-05 0)
(19.3706 -7.932297e-05 0)
(19.37076 -7.9361e-05 0)
(19.37091 -7.93717e-05 0)
(19.37107 -7.935518e-05 0)
(19.37123 -7.931102e-05 0)
(19.37139 -7.923912e-05 0)
(19.37155 -7.913875e-05 0)
(19.37171 -7.900959e-05 0)
(19.37187 -7.885062e-05 0)
(19.37203 -7.866123e-05 0)
(19.37218 -7.844012e-05 0)
(19.37234 -7.818636e-05 0)
(19.3725 -7.789835e-05 0)
(19.37266 -7.757486e-05 0)
(19.37281 -7.721394e-05 0)
(19.37297 -7.681407e-05 0)
(19.37312 -7.637297e-05 0)
(19.37327 -7.58888e-05 0)
(19.37343 -7.535896e-05 0)
(19.37358 -7.47813e-05 0)
(19.37373 -7.415292e-05 0)
(19.37388 -7.347137e-05 0)
(19.37402 -7.27335e-05 0)
(19.37417 -7.19366e-05 0)
(19.37431 -7.107729e-05 0)
(19.37446 -7.015267e-05 0)
(19.3746 -6.915921e-05 0)
(19.37473 -6.809391e-05 0)
(19.37487 -6.695318e-05 0)
(19.375 -6.573402e-05 0)
(19.37513 -6.443293e-05 0)
(19.37526 -6.304707e-05 0)
(19.37538 -6.157318e-05 0)
(19.37551 -6.000875e-05 0)
(19.37562 -5.835097e-05 0)
(19.37574 -5.659788e-05 0)
(19.37585 -5.474736e-05 0)
(19.37595 -5.279825e-05 0)
(19.37606 -5.074933e-05 0)
(19.37615 -4.860051e-05 0)
(19.37625 -4.635176e-05 0)
(19.37633 -4.400429e-05 0)
(19.37642 -4.155952e-05 0)
(19.37649 -3.90202e-05 0)
(19.37657 -3.638944e-05 0)
(19.37663 -3.367181e-05 0)
(19.37669 -3.087241e-05 0)
(19.37675 -2.799813e-05 0)
(19.37679 -2.50572e-05 0)
(19.37684 -2.206105e-05 0)
(19.37687 -1.90266e-05 0)
(19.3769 -1.598167e-05 0)
(19.37692 -1.298764e-05 0)
(19.37694 -1.014056e-05 0)
(19.37695 -7.854472e-06 0)
(27.96207 -0.003737373 0)
(21.18377 -0.001595499 0)
(18.45228 -0.000454512 0)
(19.17933 -0.0003640959 0)
(19.45588 -0.000258738 0)
(19.37811 -0.0001523991 0)
(19.35025 -0.0001122758 0)
(19.35865 -0.0001000979 0)
(19.36156 -9.53578e-05 0)
(19.36075 -9.592025e-05 0)
(19.36056 -0.0001001133 0)
(19.36074 -0.0001060321 0)
(19.36086 -0.0001127305 0)
(19.36095 -0.0001197775 0)
(19.36105 -0.000126907 0)
(19.36115 -0.0001339507 0)
(19.36126 -0.0001408121 0)
(19.36137 -0.000147435 0)
(19.36149 -0.000153787 0)
(19.36161 -0.0001598504 0)
(19.36173 -0.0001656174 0)
(19.36185 -0.0001710864 0)
(19.36198 -0.00017626 0)
(19.36211 -0.0001811435 0)
(19.36225 -0.0001857443 0)
(19.36238 -0.000190071 0)
(19.36252 -0.000194133 0)
(19.36266 -0.0001979401 0)
(19.36281 -0.0002015025 0)
(19.36295 -0.0002048304 0)
(19.3631 -0.0002079337 0)
(19.36325 -0.0002108226 0)
(19.3634 -0.0002135065 0)
(19.36355 -0.0002159947 0)
(19.36371 -0.000218296 0)
(19.36386 -0.0002204189 0)
(19.36402 -0.0002223712 0)
(19.36417 -0.0002241604 0)
(19.36433 -0.0002257933 0)
(19.36449 -0.0002272762 0)
(19.36465 -0.000228615 0)
(19.36481 -0.0002298149 0)
(19.36497 -0.0002308806 0)
(19.36514 -0.0002318162 0)
(19.3653 -0.0002326252 0)
(19.36546 -0.0002333108 0)
(19.36562 -0.0002338752 0)
(19.36579 -0.0002343206 0)
(19.36595 -0.0002346481 0)
(19.36611 -0.0002348587 0)
(19.36628 -0.0002349525 0)
(19.36644 -0.0002349294 0)
(19.36661 -0.0002347885 0)
(19.36677 -0.0002345284 0)
(19.36693 -0.0002341473 0)
(19.3671 -0.0002336426 0)
(19.36726 -0.0002330115 0)
(19.36742 -0.0002322504 0)
(19.36758 -0.0002313553 0)
(19.36774 -0.0002303215 0)
(19.3679 -0.000229144 0)
(19.36806 -0.0002278172 0)
(19.36822 -0.0002263348 0)
(19.36838 -0.0002246903 0)
(19.36854 -0.0002228765 0)
(19.36869 -0.0002208859 0)
(19.36884 -0.0002187103 0)
(19.369 -0.0002163414 0)
(19.36915 -0.0002137703 0)
(19.3693 -0.0002109879 0)
(19.36944 -0.0002079849 0)
(19.36959 -0.0002047515 0)
(19.36973 -0.000201278 0)
(19.36987 -0.0001975548 0)
(19.37001 -0.000193572 0)
(19.37015 -0.0001893202 0)
(19.37028 -0.00018479 0)
(19.37041 -0.0001799728 0)
(19.37053 -0.0001748602 0)
(19.37066 -0.0001694448 0)
(19.37077 -0.0001637201 0)
(19.37089 -0.0001576806 0)
(19.371 -0.0001513222 0)
(19.37111 -0.0001446422 0)
(19.37121 -0.0001376397 0)
(19.37131 -0.0001303156 0)
(19.3714 -0.0001226729 0)
(19.37149 -0.0001147168 0)
(19.37157 -0.0001064551 0)
(19.37165 -9.789786e-05 0)
(19.37172 -8.905816e-05 0)
(19.37178 -7.995179e-05 0)
(19.37184 -7.059785e-05 0)
(19.3719 -6.101898e-05 0)
(19.37194 -5.124251e-05 0)
(19.37198 -4.130261e-05 0)
(19.37202 -3.124394e-05 0)
(19.37204 -2.113888e-05 0)
(19.37206 -1.108272e-05 0)
(19.37208 -1.401706e-06 0)
(27.96191 -0.001412922 0)
(21.18492 -0.0006917324 0)
(18.45282 -0.0003356249 0)
(19.1796 -0.0003379614 0)
(19.45619 -0.0003109079 0)
(19.37842 -0.0002660245 0)
(19.35055 -0.0002448064 0)
(19.35895 -0.0002367117 0)
(19.36185 -0.0002332157 0)
(19.36105 -0.0002334707 0)
(19.36085 -0.0002367454 0)
(19.36104 -0.0002419494 0)
(19.36116 -0.000248375 0)
(19.36125 -0.0002555934 0)
(19.36135 -0.0002632884 0)
(19.36145 -0.000271226 0)
(19.36156 -0.0002792377 0)
(19.36167 -0.0002872018 0)
(19.36178 -0.0002950295 0)
(19.3619 -0.0003026563 0)
(19.36202 -0.0003100361 0)
(19.36215 -0.0003171365 0)
(19.36227 -0.0003239359 0)
(19.3624 -0.0003304202 0)
(19.36254 -0.0003365822 0)
(19.36267 -0.000342419 0)
(19.36281 -0.0003479316 0)
(19.36295 -0.0003531237 0)
(19.36309 -0.0003580013 0)
(19.36324 -0.0003625717 0)
(19.36338 -0.0003668435 0)
(19.36353 -0.000370826 0)
(19.36368 -0.000374529 0)
(19.36383 -0.0003779623 0)
(19.36398 -0.0003811359 0)
(19.36414 -0.0003840596 0)
(19.36429 -0.0003867428 0)
(19.36445 -0.0003891947 0)
(19.3646 -0.0003914238 0)
(19.36476 -0.0003934382 0)
(19.36492 -0.0003952453 0)
(19.36508 -0.0003968519 0)
(19.36524 -0.0003982641 0)
(19.3654 -0.0003994872 0)
(19.36556 -0.0004005258 0)
(19.36572 -0.0004013838 0)
(19.36588 -0.0004020642 0)
(19.36604 -0.0004025693 0)
(19.36621 -0.0004029005 0)
(19.36637 -0.0004030586 0)
(19.36653 -0.0004030433 0)
(19.36669 -0.0004028536 0)
(19.36686 -0.0004024876 0)
(19.36702 -0.0004019428 0)
(19.36718 -0.0004012155 0)
(19.36734 -0.0004003014 0)
(19.3675 -0.0003991951 0)
(19.36766 -0.0003978907 0)
(19.36782 -0.000396381 0)
(19.36798 -0.0003946585 0)
(19.36814 -0.000392714 0)
(19.3683 -0.0003905385 0)
(19.36846 -0.0003881211 0)
(19.36861 -0.0003854509 0)
(19.36877 -0.0003825157 0)
(19.36892 -0.0003793028 0)
(19.36907 -0.0003757985 0)
(19.36922 -0.0003719888 0)
(19.36937 -0.0003678587 0)
(19.36952 -0.0003633929 0)
(19.36967 -0.0003585753 0)
(19.36981 -0.0003533901 0)
(19.36995 -0.0003478205 0)
(19.37009 -0.0003418502 0)
(19.37023 -0.0003354627 0)
(19.37036 -0.0003286419 0)
(19.37049 -0.0003213719 0)
(19.37062 -0.0003136381 0)
(19.37075 -0.0003054261 0)
(19.37087 -0.0002967234 0)
(19.37098 -0.0002875185 0)
(19.3711 -0.0002778023 0)
(19.37121 -0.0002675672 0)
(19.37131 -0.0002568086 0)
(19.37142 -0.0002455245 0)
(19.37151 -0.0002337161 0)
(19.3716 -0.000221388 0)
(19.37169 -0.0002085485 0)
(19.37177 -0.0001952101 0)
(19.37185 -0.0001813895 0)
(19.37192 -0.0001671076 0)
(19.37198 -0.0001523905 0)
(19.37204 -0.0001372687 0)
(19.37209 -0.000121778 0)
(19.37214 -0.000105959 0)
(19.37218 -8.985754e-05 0)
(19.37221 -7.352308e-05 0)
(19.37223 -5.700426e-05 0)
(19.37225 -4.033972e-05 0)
(19.37227 -2.348262e-05 0)
(27.96153 -0.0009630459 0)
(21.18544 -0.0007891207 0)
(18.45338 -0.0005684058 0)
(19.18006 -0.0004901098 0)
(19.45664 -0.000428066 0)
(19.37887 -0.0003688704 0)
(19.35097 -0.0003309258 0)
(19.35936 -0.0003107684 0)
(19.36225 -0.0003012591 0)
(19.36144 -0.0002991572 0)
(19.36123 -0.0003024464 0)
(19.36141 -0.000309379 0)
(19.36153 -0.000318682 0)
(19.36162 -0.0003294923 0)
(19.36171 -0.0003412029 0)
(19.36181 -0.00035338 0)
(19.36192 -0.0003657164 0)
(19.36203 -0.000377995 0)
(19.36214 -0.0003900621 0)
(19.36226 -0.0004018098 0)
(19.36238 -0.0004131633 0)
(19.36251 -0.0004240725 0)
(19.36263 -0.0004345049 0)
(19.36276 -0.0004444415 0)
(19.36289 -0.0004538732 0)
(19.36303 -0.0004627987 0)
(19.36317 -0.0004712217 0)
(19.36331 -0.0004791505 0)
(19.36345 -0.0004865962 0)
(19.36359 -0.0004935718 0)
(19.36374 -0.0005000921 0)
(19.36389 -0.0005061724 0)
(19.36404 -0.0005118287 0)
(19.36419 -0.0005170769 0)
(19.36434 -0.000521933 0)
(19.36449 -0.0005264122 0)
(19.36465 -0.0005305295 0)
(19.3648 -0.0005342989 0)
(19.36496 -0.0005377337 0)
(19.36512 -0.0005408464 0)
(19.36528 -0.0005436482 0)
(19.36544 -0.0005461496 0)
(19.3656 -0.0005483598 0)
(19.36576 -0.0005502871 0)
(19.36592 -0.0005519385 0)
(19.36608 -0.0005533198 0)
(19.36624 -0.000554436 0)
(19.3664 -0.0005552904 0)
(19.36657 -0.0005558856 0)
(19.36673 -0.0005562228 0)
(19.36689 -0.0005563019 0)
(19.36705 -0.0005561219 0)
(19.36721 -0.0005556803 0)
(19.36738 -0.0005549736 0)
(19.36754 -0.000553997 0)
(19.3677 -0.0005527445 0)
(19.36786 -0.0005512089 0)
(19.36802 -0.0005493817 0)
(19.36818 -0.0005472532 0)
(19.36834 -0.0005448126 0)
(19.3685 -0.0005420478 0)
(19.36866 -0.0005389454 0)
(19.36882 -0.0005354909 0)
(19.36897 -0.0005316687 0)
(19.36913 -0.000527462 0)
(19.36928 -0.0005228527 0)
(19.36943 -0.0005178221 0)
(19.36958 -0.00051235 0)
(19.36973 -0.0005064159 0)
(19.36988 -0.000499998 0)
(19.37003 -0.0004930741 0)
(19.37017 -0.0004856214 0)
(19.37031 -0.0004776168 0)
(19.37045 -0.0004690371 0)
(19.37059 -0.0004598592 0)
(19.37072 -0.0004500601 0)
(19.37086 -0.0004396179 0)
(19.37098 -0.0004285112 0)
(19.37111 -0.0004167202 0)
(19.37123 -0.0004042268 0)
(19.37135 -0.0003910149 0)
(19.37146 -0.000377071 0)
(19.37157 -0.0003623846 0)
(19.37168 -0.0003469489 0)
(19.37178 -0.0003307606 0)
(19.37188 -0.0003138212 0)
(19.37197 -0.000296137 0)
(19.37206 -0.0002777194 0)
(19.37214 -0.0002585856 0)
(19.37222 -0.0002387587 0)
(19.37229 -0.0002182684 0)
(19.37235 -0.0001971504 0)
(19.37241 -0.0001754474 0)
(19.37246 -0.0001532087 0)
(19.37251 -0.0001304904 0)
(19.37255 -0.0001073555 0)
(19.37258 -8.387294e-05 0)
(19.3726 -6.011833e-05 0)
(19.37262 -3.616577e-05 0)
(19.37263 -1.210615e-05 0)
(27.96142 -0.0005211923 0)
(21.1858 -0.0004616941 0)
(18.45372 -0.0003633079 0)
(19.18031 -0.0003426128 0)
(19.45687 -0.0003351963 0)
(19.37908 -0.0003269021 0)
(19.35117 -0.00032642 0)
(19.35954 -0.0003335764 0)
(19.36243 -0.0003450728 0)
(19.36161 -0.0003593022 0)
(19.36141 -0.0003754325 0)
(19.36159 -0.0003927251 0)
(19.36171 -0.0004106046 0)
(19.36179 -0.0004286755 0)
(19.36189 -0.0004466578 0)
(19.36199 -0.0004643483 0)
(19.3621 -0.0004816014 0)
(19.36221 -0.0004983147 0)
(19.36232 -0.000514417 0)
(19.36244 -0.0005298608 0)
(19.36256 -0.0005446165 0)
(19.36269 -0.0005586679 0)
(19.36282 -0.0005720094 0)
(19.36295 -0.0005846433 0)
(19.36308 -0.0005965781 0)
(19.36322 -0.000607827 0)
(19.36336 -0.0006184066 0)
(19.3635 -0.0006283361 0)
(19.36364 -0.0006376364 0)
(19.36378 -0.0006463296 0)
(19.36393 -0.0006544385 0)
(19.36408 -0.0006619861 0)
(19.36423 -0.0006689952 0)
(19.36438 -0.0006754882 0)
(19.36453 -0.0006814869 0)
(19.36469 -0.0006870122 0)
(19.36484 -0.0006920842 0)
(19.365 -0.0006967216 0)
(19.36516 -0.0007009421 0)
(19.36531 -0.000704762 0)
(19.36547 -0.0007081963 0)
(19.36563 -0.0007112587 0)
(19.36579 -0.0007139612 0)
(19.36595 -0.0007163147 0)
(19.36612 -0.0007183282 0)
(19.36628 -0.0007200097 0)
(19.36644 -0.0007213652 0)
(19.3666 -0.0007223996 0)
(19.36676 -0.0007231159 0)
(19.36693 -0.0007235159 0)
(19.36709 -0.0007235996 0)
(19.36725 -0.0007233656 0)
(19.36741 -0.000722811 0)
(19.36758 -0.0007219312 0)
(19.36774 -0.00072072 0)
(19.3679 -0.00071917 0)
(19.36806 -0.0007172716 0)
(19.36822 -0.0007150142 0)
(19.36838 -0.0007123853 0)
(19.36854 -0.000709371 0)
(19.3687 -0.0007059554 0)
(19.36886 -0.0007021217 0)
(19.36902 -0.000697851 0)
(19.36918 -0.0006931231 0)
(19.36933 -0.0006879162 0)
(19.36949 -0.0006822072 0)
(19.36964 -0.0006759716 0)
(19.36979 -0.0006691835 0)
(19.36994 -0.0006618159 0)
(19.37009 -0.0006538408 0)
(19.37024 -0.0006452291 0)
(19.37038 -0.0006359513 0)
(19.37052 -0.0006259772 0)
(19.37066 -0.0006152763 0)
(19.3708 -0.0006038184 0)
(19.37094 -0.0005915735 0)
(19.37107 -0.0005785125 0)
(19.3712 -0.0005646072 0)
(19.37132 -0.0005498315 0)
(19.37145 -0.0005341611 0)
(19.37157 -0.0005175744 0)
(19.37168 -0.0005000533 0)
(19.37179 -0.0004815833 0)
(19.3719 -0.0004621544 0)
(19.372 -0.0004417618 0)
(19.3721 -0.0004204063 0)
(19.37219 -0.000398095 0)
(19.37228 -0.000374842 0)
(19.37236 -0.0003506684 0)
(19.37244 -0.0003256034 0)
(19.37251 -0.0002996843 0)
(19.37258 -0.0002729564 0)
(19.37263 -0.0002454738 0)
(19.37269 -0.0002172987 0)
(19.37273 -0.0001885012 0)
(19.37277 -0.0001591589 0)
(19.37281 -0.0001293548 0)
(19.37283 -9.917759e-05 0)
(19.37285 -6.871054e-05 0)
(19.37286 -3.807095e-05 0)
(27.96125 -0.0003688597 0)
(21.18588 -0.0004189952 0)
(18.45382 -0.0004121418 0)
(19.1804 -0.0004235058 0)
(19.45697 -0.0004304564 0)
(19.37919 -0.0004314101 0)
(19.35128 -0.0004339048 0)
(19.35965 -0.0004403277 0)
(19.36253 -0.0004501774 0)
(19.36172 -0.0004628915 0)
(19.36151 -0.000477991 0)
(19.36169 -0.0004949078 0)
(19.36181 -0.0005130862 0)
(19.36189 -0.0005320562 0)
(19.36199 -0.0005514335 0)
(19.36209 -0.0005709087 0)
(19.3622 -0.0005902376 0)
(19.36231 -0.0006092318 0)
(19.36242 -0.0006277484 0)
(19.36254 -0.0006456813 0)
(19.36266 -0.0006629538 0)
(19.36279 -0.000679513 0)
(19.36292 -0.0006953246 0)
(19.36305 -0.0007103692 0)
(19.36318 -0.000724639 0)
(19.36332 -0.0007381353 0)
(19.36346 -0.0007508663 0)
(19.3636 -0.0007628456 0)
(19.36374 -0.0007740907 0)
(19.36389 -0.0007846221 0)
(19.36403 -0.0007944619 0)
(19.36418 -0.0008036338 0)
(19.36433 -0.0008121618 0)
(19.36449 -0.0008200701 0)
(19.36464 -0.0008273825 0)
(19.36479 -0.0008341225 0)
(19.36495 -0.0008403124 0)
(19.36511 -0.0008459735 0)
(19.36526 -0.0008511259 0)
(19.36542 -0.0008557882 0)
(19.36558 -0.0008599777 0)
(19.36574 -0.0008637099 0)
(19.3659 -0.0008669989 0)
(19.36606 -0.0008698569 0)
(19.36622 -0.0008722945 0)
(19.36639 -0.0008743206 0)
(19.36655 -0.0008759421 0)
(19.36671 -0.0008771644 0)
(19.36687 -0.0008779909 0)
(19.36704 -0.0008784231 0)
(19.3672 -0.000878461 0)
(19.36736 -0.0008781024 0)
(19.36753 -0.0008773435 0)
(19.36769 -0.0008761784 0)
(19.36785 -0.0008745995 0)
(19.36801 -0.0008725972 0)
(19.36818 -0.0008701601 0)
(19.36834 -0.0008672748 0)
(19.3685 -0.000863926 0)
(19.36866 -0.0008600964 0)
(19.36882 -0.000855767 0)
(19.36898 -0.0008509167 0)
(19.36913 -0.0008455225 0)
(19.36929 -0.0008395597 0)
(19.36945 -0.0008330014 0)
(19.3696 -0.0008258194 0)
(19.36976 -0.0008179834 0)
(19.36991 -0.0008094618 0)
(19.37006 -0.0008002214 0)
(19.37021 -0.0007902276 0)
(19.37036 -0.0007794447 0)
(19.3705 -0.0007678361 0)
(19.37064 -0.0007553645 0)
(19.37078 -0.0007419924 0)
(19.37092 -0.0007276822 0)
(19.37106 -0.0007123965 0)
(19.37119 -0.0006960991 0)
(19.37132 -0.000678755 0)
(19.37145 -0.0006603311 0)
(19.37157 -0.000640797 0)
(19.37169 -0.0006201254 0)
(19.37181 -0.000598293 0)
(19.37192 -0.0005752811 0)
(19.37203 -0.0005510765 0)
(19.37213 -0.0005256722 0)
(19.37223 -0.0004990683 0)
(19.37233 -0.0004712727 0)
(19.37241 -0.0004423015 0)
(19.3725 -0.0004121801 0)
(19.37258 -0.0003809437 0)
(19.37265 -0.0003486372 0)
(19.37271 -0.0003153162 0)
(19.37277 -0.0002810467 0)
(19.37283 -0.0002459047 0)
(19.37287 -0.0002099764 0)
(19.37291 -0.0001733575 0)
(19.37295 -0.0001361511 0)
(19.37297 -9.846943e-05 0)
(19.37299 -6.042102e-05 0)
(19.37301 -2.216514e-05 0)
(27.96117 -0.0002523851 0)
(21.18594 -0.0003184216 0)
(18.45392 -0.0003364483 0)
(19.18049 -0.0003608018 0)
(19.45706 -0.0003831576 0)
(19.37928 -0.0004028722 0)
(19.35136 -0.000423584 0)
(19.35972 -0.0004466021 0)
(19.3626 -0.0004715983 0)
(19.36178 -0.000498035 0)
(19.36157 -0.0005254492 0)
(19.36175 -0.0005533942 0)
(19.36187 -0.0005814627 0)
(19.36195 -0.0006093208 0)
(19.36204 -0.0006367074 0)
(19.36215 -0.0006634222 0)
(19.36226 -0.0006893155 0)
(19.36237 -0.0007142793 0)
(19.36248 -0.000738239 0)
(19.3626 -0.0007611466 0)
(19.36273 -0.0007829748 0)
(19.36285 -0.0008037132 0)
(19.36298 -0.0008233638 0)
(19.36312 -0.0008419389 0)
(19.36325 -0.0008594584 0)
(19.36339 -0.0008759476 0)
(19.36353 -0.0008914365 0)
(19.36367 -0.0009059577 0)
(19.36381 -0.0009195459 0)
(19.36396 -0.000932237 0)
(19.36411 -0.0009440673 0)
(19.36426 -0.0009550728 0)
(19.36441 -0.0009652892 0)
(19.36456 -0.0009747512 0)
(19.36472 -0.0009834922 0)
(19.36487 -0.0009915442 0)
(19.36503 -0.0009989375 0)
(19.36519 -0.0010057 0)
(19.36534 -0.00101186 0)
(19.3655 -0.00101744 0)
(19.36566 -0.001022464 0)
(19.36582 -0.001026951 0)
(19.36598 -0.001030921 0)
(19.36615 -0.001034388 0)
(19.36631 -0.001037368 0)
(19.36647 -0.00103987 0)
(19.36663 -0.001041905 0)
(19.3668 -0.00104348 0)
(19.36696 -0.001044599 0)
(19.36712 -0.001045266 0)
(19.36729 -0.00104548 0)
(19.36745 -0.00104524 0)
(19.36761 -0.001044542 0)
(19.36778 -0.001043378 0)
(19.36794 -0.001041741 0)
(19.3681 -0.00103962 0)
(19.36826 -0.001037001 0)
(19.36843 -0.001033869 0)
(19.36859 -0.001030205 0)
(19.36875 -0.001025989 0)
(19.36891 -0.0010212 0)
(19.36907 -0.001015812 0)
(19.36923 -0.001009797 0)
(19.36939 -0.001003128 0)
(19.36954 -0.0009957704 0)
(19.3697 -0.0009876923 0)
(19.36985 -0.0009788573 0)
(19.37001 -0.0009692274 0)
(19.37016 -0.0009587631 0)
(19.37031 -0.0009474229 0)
(19.37045 -0.0009351639 0)
(19.3706 -0.0009219423 0)
(19.37074 -0.0009077129 0)
(19.37089 -0.0008924305 0)
(19.37103 -0.0008760493 0)
(19.37116 -0.0008585242 0)
(19.3713 -0.0008398108 0)
(19.37143 -0.0008198662 0)
(19.37156 -0.0007986498 0)
(19.37168 -0.0007761239 0)
(19.3718 -0.0007522542 0)
(19.37192 -0.0007270114 0)
(19.37204 -0.0007003714 0)
(19.37214 -0.0006723167 0)
(19.37225 -0.000642837 0)
(19.37235 -0.0006119304 0)
(19.37244 -0.0005796044 0)
(19.37254 -0.0005458764 0)
(19.37262 -0.0005107752 0)
(19.3727 -0.0004743407 0)
(19.37277 -0.0004366255 0)
(19.37284 -0.0003976944 0)
(19.3729 -0.0003576249 0)
(19.37295 -0.000316507 0)
(19.373 -0.0002744427 0)
(19.37304 -0.0002315451 0)
(19.37308 -0.0001879368 0)
(19.3731 -0.000143751 0)
(19.37312 -9.911688e-05 0)
(19.37314 -5.422638e-05 0)
(27.96107 -0.0002048206 0)
(21.18593 -0.0002951241 0)
(18.45393 -0.0003435683 0)
(19.1805 -0.000391049 0)
(19.45707 -0.0004333627 0)
(19.3793 -0.0004700365 0)
(19.35138 -0.0005037942 0)
(19.35975 -0.0005363806 0)
(19.36263 -0.000568439 0)
(19.36181 -0.0006001941 0)
(19.3616 -0.0006317275 0)
(19.36178 -0.0006630059 0)
(19.3619 -0.0006939178 0)
(19.36198 -0.0007243237 0)
(19.36208 -0.0007540845 0)
(19.36218 -0.0007830727 0)
(19.36229 -0.0008111787 0)
(19.36241 -0.0008383133 0)
(19.36252 -0.0008644076 0)
(19.36264 -0.0008894115 0)
(19.36277 -0.0009132923 0)
(19.3629 -0.0009360319 0)
(19.36303 -0.000957625 0)
(19.36316 -0.0009780765 0)
(19.36329 -0.0009974003 0)
(19.36343 -0.001015617 0)
(19.36357 -0.001032752 0)
(19.36372 -0.001048836 0)
(19.36386 -0.001063901 0)
(19.36401 -0.001077982 0)
(19.36416 -0.001091116 0)
(19.36431 -0.001103338 0)
(19.36446 -0.001114685 0)
(19.36461 -0.001125192 0)
(19.36477 -0.001134894 0)
(19.36492 -0.001143825 0)
(19.36508 -0.001152015 0)
(19.36524 -0.001159496 0)
(19.3654 -0.001166295 0)
(19.36556 -0.001172438 0)
(19.36572 -0.001177949 0)
(19.36588 -0.001182849 0)
(19.36604 -0.001187158 0)
(19.3662 -0.001190892 0)
(19.36637 -0.001194067 0)
(19.36653 -0.001196693 0)
(19.36669 -0.001198781 0)
(19.36685 -0.001200339 0)
(19.36702 -0.001201369 0)
(19.36718 -0.001201876 0)
(19.36735 -0.001201858 0)
(19.36751 -0.001201313 0)
(19.36767 -0.001200235 0)
(19.36784 -0.001198617 0)
(19.368 -0.001196448 0)
(19.36816 -0.001193715 0)
(19.36833 -0.001190403 0)
(19.36849 -0.001186494 0)
(19.36865 -0.001181966 0)
(19.36881 -0.001176796 0)
(19.36897 -0.001170959 0)
(19.36913 -0.001164424 0)
(19.36929 -0.001157161 0)
(19.36945 -0.001149136 0)
(19.36961 -0.001140312 0)
(19.36977 -0.00113065 0)
(19.36992 -0.001120107 0)
(19.37007 -0.001108641 0)
(19.37023 -0.001096205 0)
(19.37038 -0.00108275 0)
(19.37053 -0.001068227 0)
(19.37067 -0.001052584 0)
(19.37082 -0.00103577 0)
(19.37096 -0.001017729 0)
(19.3711 -0.0009984089 0)
(19.37124 -0.0009777561 0)
(19.37138 -0.0009557179 0)
(19.37151 -0.0009322433 0)
(19.37164 -0.0009072837 0)
(19.37176 -0.0008807936 0)
(19.37189 -0.0008527317 0)
(19.37201 -0.0008230619 0)
(19.37212 -0.0007917542 0)
(19.37223 -0.0007587862 0)
(19.37234 -0.000724144 0)
(19.37244 -0.0006878231 0)
(19.37254 -0.0006498303 0)
(19.37263 -0.0006101839 0)
(19.37271 -0.0005689156 0)
(19.3728 -0.0005260704 0)
(19.37287 -0.0004817083 0)
(19.37294 -0.0004359037 0)
(19.373 -0.0003887467 0)
(19.37305 -0.000340342 0)
(19.3731 -0.0002908088 0)
(19.37314 -0.0002402803 0)
(19.37318 -0.0001889012 0)
(19.37321 -0.0001368301 0)
(19.37323 -8.422133e-05 0)
(19.37324 -3.130616e-05 0)
(27.96101 -0.0001717189 0)
(21.18592 -0.0002676202 0)
(18.45394 -0.0003254539 0)
(19.18052 -0.0003800688 0)
(19.45709 -0.0004306008 0)
(19.37932 -0.0004765148 0)
(19.35141 -0.0005196855 0)
(19.35977 -0.0005615579 0)
(19.36265 -0.0006027223 0)
(19.36183 -0.0006433378 0)
(19.36163 -0.0006834117 0)
(19.3618 -0.000722862 0)
(19.36192 -0.0007615484 0)
(19.362 -0.0007993149 0)
(19.3621 -0.0008360154 0)
(19.36221 -0.0008715243 0)
(19.36232 -0.0009057401 0)
(19.36243 -0.0009385864 0)
(19.36255 -0.0009700099 0)
(19.36267 -0.000999979 0)
(19.3628 -0.00102848 0)
(19.36292 -0.001055514 0)
(19.36306 -0.001081097 0)
(19.36319 -0.001105252 0)
(19.36333 -0.001128011 0)
(19.36347 -0.001149415 0)
(19.36361 -0.001169504 0)
(19.36375 -0.001188327 0)
(19.3639 -0.001205931 0)
(19.36405 -0.001222366 0)
(19.3642 -0.001237681 0)
(19.36435 -0.001251924 0)
(19.3645 -0.001265144 0)
(19.36466 -0.001277387 0)
(19.36481 -0.001288698 0)
(19.36497 -0.00129912 0)
(19.36513 -0.001308693 0)
(19.36529 -0.001317454 0)
(19.36544 -0.001325438 0)
(19.36561 -0.001332679 0)
(19.36577 -0.001339205 0)
(19.36593 -0.001345044 0)
(19.36609 -0.001350219 0)
(19.36625 -0.001354751 0)
(19.36642 -0.001358658 0)
(19.36658 -0.001361955 0)
(19.36674 -0.001364655 0)
(19.36691 -0.001366766 0)
(19.36707 -0.001368296 0)
(19.36724 -0.001369247 0)
(19.3674 -0.001369619 0)
(19.36757 -0.001369412 0)
(19.36773 -0.001368618 0)
(19.36789 -0.00136723 0)
(19.36806 -0.001365236 0)
(19.36822 -0.001362622 0)
(19.36839 -0.00135937 0)
(19.36855 -0.001355461 0)
(19.36871 -0.00135087 0)
(19.36887 -0.001345572 0)
(19.36904 -0.001339535 0)
(19.3692 -0.001332729 0)
(19.36936 -0.001325116 0)
(19.36952 -0.001316659 0)
(19.36967 -0.001307314 0)
(19.36983 -0.001297038 0)
(19.36999 -0.001285783 0)
(19.37014 -0.001273498 0)
(19.3703 -0.001260129 0)
(19.37045 -0.001245622 0)
(19.3706 -0.001229918 0)
(19.37075 -0.001212959 0)
(19.37089 -0.001194682 0)
(19.37104 -0.001175025 0)
(19.37118 -0.001153927 0)
(19.37132 -0.001131323 0)
(19.37146 -0.001107153 0)
(19.37159 -0.001081355 0)
(19.37172 -0.001053873 0)
(19.37185 -0.00102465 0)
(19.37197 -0.0009936375 0)
(19.3721 -0.0009607908 0)
(19.37221 -0.0009260726 0)
(19.37233 -0.0008894538 0)
(19.37243 -0.0008509149 0)
(19.37254 -0.0008104478 0)
(19.37264 -0.0007680565 0)
(19.37273 -0.0007237592 0)
(19.37282 -0.0006775887 0)
(19.3729 -0.0006295944 0)
(19.37297 -0.0005798424 0)
(19.37304 -0.0005284167 0)
(19.37311 -0.0004754189 0)
(19.37316 -0.0004209687 0)
(19.37321 -0.0003652031 0)
(19.37326 -0.0003082755 0)
(19.37329 -0.0002503534 0)
(19.37332 -0.0001916213 0)
(19.37334 -0.0001322591 0)
(19.37335 -7.253658e-05 0)
(27.96093 -0.0001591452 0)
(21.18589 -0.0002648483 0)
(18.45392 -0.0003350187 0)
(19.1805 -0.0004019895 0)
(19.45708 -0.0004660003 0)
(19.37931 -0.0005253588 0)
(19.3514 -0.0005809475 0)
(19.35977 -0.0006338892 0)
(19.36265 -0.000684753 0)
(19.36183 -0.0007337862 0)
(19.36163 -0.0007811373 0)
(19.36181 -0.000826888 0)
(19.36192 -0.0008710585 0)
(19.36201 -0.000913635 0)
(19.36211 -0.0009545911 0)
(19.36222 -0.0009938987 0)
(19.36233 -0.001031534 0)
(19.36244 -0.001067482 0)
(19.36256 -0.001101736 0)
(19.36269 -0.001134303 0)
(19.36282 -0.001165196 0)
(19.36295 -0.001194439 0)
(19.36308 -0.001222065 0)
(19.36322 -0.001248112 0)
(19.36335 -0.001272623 0)
(19.3635 -0.001295647 0)
(19.36364 -0.001317234 0)
(19.36378 -0.001337438 0)
(19.36393 -0.001356312 0)
(19.36408 -0.001373911 0)
(19.36423 -0.001390288 0)
(19.36438 -0.001405498 0)
(19.36454 -0.001419591 0)
(19.36469 -0.001432617 0)
(19.36485 -0.001444625 0)
(19.36501 -0.001455659 0)
(19.36517 -0.001465763 0)
(19.36533 -0.001474976 0)
(19.36549 -0.001483337 0)
(19.36565 -0.001490878 0)
(19.36581 -0.001497633 0)
(19.36597 -0.001503628 0)
(19.36613 -0.001508888 0)
(19.3663 -0.001513437 0)
(19.36646 -0.001517293 0)
(19.36662 -0.001520471 0)
(19.36679 -0.001522984 0)
(19.36695 -0.001524842 0)
(19.36712 -0.00152605 0)
(19.36728 -0.001526613 0)
(19.36745 -0.001526529 0)
(19.36761 -0.001525796 0)
(19.36778 -0.001524408 0)
(19.36794 -0.001522354 0)
(19.36811 -0.001519622 0)
(19.36827 -0.001516196 0)
(19.36844 -0.001512055 0)
(19.3686 -0.001507178 0)
(19.36876 -0.001501538 0)
(19.36893 -0.001495105 0)
(19.36909 -0.001487847 0)
(19.36925 -0.001479726 0)
(19.36941 -0.001470703 0)
(19.36957 -0.001460735 0)
(19.36973 -0.001449774 0)
(19.36989 -0.001437771 0)
(19.37005 -0.001424671 0)
(19.3702 -0.001410418 0)
(19.37036 -0.001394952 0)
(19.37051 -0.00137821 0)
(19.37066 -0.001360127 0)
(19.37081 -0.001340636 0)
(19.37096 -0.001319667 0)
(19.3711 -0.001297148 0)
(19.37125 -0.001273008 0)
(19.37139 -0.001247175 0)
(19.37153 -0.001219577 0)
(19.37166 -0.001190145 0)
(19.3718 -0.00115881 0)
(19.37193 -0.001125508 0)
(19.37205 -0.001090179 0)
(19.37217 -0.001052772 0)
(19.37229 -0.001013239 0)
(19.37241 -0.0009715454 0)
(19.37252 -0.0009276644 0)
(19.37262 -0.0008815832 0)
(19.37272 -0.0008333028 0)
(19.37282 -0.0007828401 0)
(19.37291 -0.0007302291 0)
(19.37299 -0.0006755227 0)
(19.37307 -0.0006187933 0)
(19.37314 -0.0005601343 0)
(19.37321 -0.00049966 0)
(19.37327 -0.0004375059 0)
(19.37332 -0.000373828 0)
(19.37336 -0.0003088021 0)
(19.3734 -0.0002426213 0)
(19.37342 -0.0001754988 0)
(19.37344 -0.0001076434 0)
(19.37346 -3.936892e-05 0)
(27.96087 -0.0001527883 0)
(21.18585 -0.0002647462 0)
(18.4539 -0.0003416957 0)
(19.18049 -0.0004152258 0)
(19.45707 -0.0004867308 0)
(19.3793 -0.0005539153 0)
(19.3514 -0.0006171985 0)
(19.35977 -0.000677607 0)
(19.36265 -0.0007356894 0)
(19.36183 -0.0007916805 0)
(19.36163 -0.0008457261 0)
(19.36181 -0.00089791 0)
(19.36193 -0.000948254 0)
(19.36202 -0.0009967436 0)
(19.36212 -0.001043351 0)
(19.36223 -0.001088045 0)
(19.36234 -0.001130803 0)
(19.36246 -0.00117161 0)
(19.36258 -0.001210462 0)
(19.3627 -0.00124737 0)
(19.36283 -0.001282355 0)
(19.36296 -0.001315447 0)
(19.3631 -0.00134669 0)
(19.36324 -0.00137613 0)
(19.36338 -0.001403823 0)
(19.36352 -0.001429828 0)
(19.36366 -0.001454206 0)
(19.36381 -0.001477023 0)
(19.36396 -0.001498344 0)
(19.36411 -0.001518234 0)
(19.36426 -0.001536757 0)
(19.36442 -0.001553978 0)
(19.36457 -0.001569956 0)
(19.36473 -0.001584752 0)
(19.36488 -0.001598421 0)
(19.36504 -0.001611017 0)
(19.3652 -0.001622591 0)
(19.36536 -0.001633189 0)
(19.36552 -0.001642854 0)
(19.36569 -0.001651626 0)
(19.36585 -0.001659543 0)
(19.36601 -0.001666637 0)
(19.36618 -0.001672936 0)
(19.36634 -0.001678467 0)
(19.3665 -0.001683251 0)
(19.36667 -0.001687307 0)
(19.36683 -0.00169065 0)
(19.367 -0.00169329 0)
(19.36717 -0.001695235 0)
(19.36733 -0.00169649 0)
(19.3675 -0.001697054 0)
(19.36766 -0.001696924 0)
(19.36783 -0.001696093 0)
(19.36799 -0.001694551 0)
(19.36816 -0.001692284 0)
(19.36833 -0.001689273 0)
(19.36849 -0.001685499 0)
(19.36865 -0.001680934 0)
(19.36882 -0.00167555 0)
(19.36898 -0.001669314 0)
(19.36915 -0.001662189 0)
(19.36931 -0.001654135 0)
(19.36947 -0.001645107 0)
(19.36963 -0.001635057 0)
(19.36979 -0.001623932 0)
(19.36995 -0.001611675 0)
(19.37011 -0.001598227 0)
(19.37027 -0.001583524 0)
(19.37042 -0.001567498 0)
(19.37058 -0.001550079 0)
(19.37073 -0.001531193 0)
(19.37088 -0.001510762 0)
(19.37103 -0.001488709 0)
(19.37118 -0.001464951 0)
(19.37132 -0.001439406 0)
(19.37147 -0.001411992 0)
(19.37161 -0.001382626 0)
(19.37175 -0.001351226 0)
(19.37188 -0.001317713 0)
(19.37201 -0.00128201 0)
(19.37214 -0.001244049 0)
(19.37227 -0.001203763 0)
(19.37239 -0.001161098 0)
(19.3725 -0.001116007 0)
(19.37262 -0.001068456 0)
(19.37273 -0.001018425 0)
(19.37283 -0.0009659092 0)
(19.37293 -0.0009109226 0)
(19.37302 -0.0008534984 0)
(19.3731 -0.0007936913 0)
(19.37318 -0.0007315789 0)
(19.37326 -0.0006672631 0)
(19.37332 -0.0006008702 0)
(19.37338 -0.0005325515 0)
(19.37344 -0.0004624828 0)
(19.37348 -0.0003908635 0)
(19.37352 -0.0003179135 0)
(19.37355 -0.0002438768 0)
(19.37357 -0.0001689935 0)