/*--------------------------------*- C++ -*----------------------------------*\
| =========                 |                                                 |
| \\      /  F ield         | OpenFOAM: The Open Source CFD Toolbox           |
|  \\    /   O peration     | Version:  2.3.0                                 |
|   \\  /    A nd           | Web:      www.OpenFOAM.org                      |
|    \\/     M anipulation  |                                                 |
\*---------------------------------------------------------------------------*/
FoamFile
{
    version     2.0;
    format      ascii;
    class       volScalarField;
    location    "10000/wall";
    object      T;
}
// * * * * * * * * * * * * * * * * * * * * * * * * * * * * * * * * * * * * * //

dimensions      [0 0 0 1 0 0 0];

internalField   nonuniform List<scalar> 
2000
(
1177.022
1177.141
1177.204
1177.213
1177.213
1177.216
1177.217
1177.218
1177.219
1177.219
1177.22
1177.22
1177.22
1177.221
1177.221
1177.221
1177.222
1177.222
1177.222
1177.222
1177.223
1177.223
1177.223
1177.223
1177.224
1177.224
1177.224
1177.224
1177.225
1177.225
1177.225
1177.225
1177.226
1177.226
1177.226
1177.226
1177.227
1177.227
1177.227
1177.227
1177.228
1177.228
1177.228
1177.228
1177.229
1177.229
1177.229
1177.229
1177.23
1177.23
1177.23
1177.23
1177.231
1177.231
1177.231
1177.231
1177.231
1177.232
1177.232
1177.232
1177.232
1177.233
1177.233
1177.233
1177.233
1177.234
1177.234
1177.234
1177.234
1177.235
1177.235
1177.235
1177.235
1177.236
1177.236
1177.236
1177.236
1177.236
1177.237
1177.237
1177.237
1177.237
1177.238
1177.238
1177.238
1177.238
1177.238
1177.239
1177.239
1177.239
1177.239
1177.24
1177.24
1177.24
1177.24
1177.24
1177.24
1177.241
1177.241
1177.241
1132.128
1132.171
1132.207
1132.223
1132.23
1132.235
1132.238
1132.239
1132.241
1132.242
1132.242
1132.243
1132.244
1132.244
1132.244
1132.245
1132.245
1132.246
1132.246
1132.246
1132.246
1132.247
1132.247
1132.247
1132.247
1132.248
1132.248
1132.248
1132.248
1132.249
1132.249
1132.249
1132.249
1132.25
1132.25
1132.25
1132.25
1132.25
1132.251
1132.251
1132.251
1132.251
1132.252
1132.252
1132.252
1132.252
1132.253
1132.253
1132.253
1132.253
1132.253
1132.254
1132.254
1132.254
1132.254
1132.255
1132.255
1132.255
1132.255
1132.255
1132.256
1132.256
1132.256
1132.256
1132.257
1132.257
1132.257
1132.257
1132.257
1132.258
1132.258
1132.258
1132.258
1132.258
1132.259
1132.259
1132.259
1132.259
1132.26
1132.26
1132.26
1132.26
1132.26
1132.261
1132.261
1132.261
1132.261
1132.261
1132.262
1132.262
1132.262
1132.262
1132.262
1132.262
1132.263
1132.263
1132.263
1132.263
1132.263
1132.263
1087.19
1087.208
1087.227
1087.24
1087.248
1087.254
1087.257
1087.26
1087.262
1087.263
1087.264
1087.265
1087.266
1087.266
1087.267
1087.267
1087.267
1087.268
1087.268
1087.268
1087.269
1087.269
1087.269
1087.27
1087.27
1087.27
1087.27
1087.27
1087.271
1087.271
1087.271
1087.271
1087.272
1087.272
1087.272
1087.272
1087.272
1087.273
1087.273
1087.273
1087.273
1087.274
1087.274
1087.274
1087.274
1087.274
1087.275
1087.275
1087.275
1087.275
1087.275
1087.276
1087.276
1087.276
1087.276
1087.276
1087.277
1087.277
1087.277
1087.277
1087.278
1087.278
1087.278
1087.278
1087.278
1087.279
1087.279
1087.279
1087.279
1087.279
1087.28
1087.28
1087.28
1087.28
1087.28
1087.281
1087.281
1087.281
1087.281
1087.281
1087.282
1087.282
1087.282
1087.282
1087.282
1087.282
1087.283
1087.283
1087.283
1087.283
1087.283
1087.283
1087.284
1087.284
1087.284
1087.284
1087.284
1087.284
1087.284
1087.283
1042.233
1042.241
1042.252
1042.261
1042.268
1042.273
1042.277
1042.28
1042.282
1042.283
1042.285
1042.286
1042.286
1042.287
1042.288
1042.288
1042.288
1042.289
1042.289
1042.29
1042.29
1042.29
1042.29
1042.291
1042.291
1042.291
1042.291
1042.291
1042.292
1042.292
1042.292
1042.292
1042.293
1042.293
1042.293
1042.293
1042.293
1042.294
1042.294
1042.294
1042.294
1042.294
1042.295
1042.295
1042.295
1042.295
1042.295
1042.296
1042.296
1042.296
1042.296
1042.296
1042.296
1042.297
1042.297
1042.297
1042.297
1042.297
1042.298
1042.298
1042.298
1042.298
1042.298
1042.299
1042.299
1042.299
1042.299
1042.299
1042.3
1042.3
1042.3
1042.3
1042.3
1042.3
1042.301
1042.301
1042.301
1042.301
1042.301
1042.302
1042.302
1042.302
1042.302
1042.302
1042.302
1042.303
1042.303
1042.303
1042.303
1042.303
1042.303
1042.303
1042.303
1042.304
1042.304
1042.304
1042.304
1042.303
1042.303
1042.303
997.2656
997.27
997.2765
997.2829
997.2884
997.2928
997.2963
997.2989
997.301
997.3027
997.304
997.305
997.3059
997.3066
997.3072
997.3077
997.3082
997.3086
997.309
997.3093
997.3096
997.3098
997.3101
997.3104
997.3106
997.3108
997.311
997.3112
997.3114
997.3116
997.3118
997.312
997.3122
997.3124
997.3126
997.3128
997.313
997.3132
997.3133
997.3135
997.3137
997.3139
997.3141
997.3142
997.3144
997.3146
997.3148
997.315
997.3152
997.3153
997.3155
997.3157
997.3159
997.3161
997.3162
997.3164
997.3166
997.3168
997.3169
997.3171
997.3173
997.3175
997.3177
997.3178
997.318
997.3182
997.3184
997.3185
997.3187
997.3189
997.3191
997.3192
997.3194
997.3196
997.3197
997.3199
997.3201
997.3202
997.3204
997.3206
997.3207
997.3209
997.3211
997.3212
997.3213
997.3215
997.3216
997.3218
997.3219
997.322
997.3221
997.3222
997.3222
997.3223
997.3223
997.3222
997.3222
997.322
997.3218
997.3216
952.293
952.2956
952.2997
952.3041
952.3083
952.3119
952.3149
952.3174
952.3194
952.321
952.3223
952.3234
952.3243
952.3251
952.3257
952.3262
952.3267
952.3271
952.3275
952.3278
952.3281
952.3284
952.3286
952.3289
952.3291
952.3293
952.3295
952.3297
952.3299
952.3301
952.3303
952.3305
952.3307
952.3308
952.331
952.3312
952.3314
952.3315
952.3317
952.3319
952.332
952.3322
952.3324
952.3325
952.3327
952.3329
952.333
952.3332
952.3334
952.3335
952.3337
952.3339
952.334
952.3342
952.3344
952.3345
952.3347
952.3349
952.335
952.3352
952.3354
952.3355
952.3357
952.3359
952.336
952.3362
952.3363
952.3365
952.3367
952.3368
952.337
952.3371
952.3373
952.3375
952.3376
952.3378
952.3379
952.3381
952.3382
952.3384
952.3385
952.3387
952.3388
952.3389
952.3391
952.3392
952.3393
952.3394
952.3395
952.3396
952.3397
952.3398
952.3398
952.3398
952.3398
952.3397
952.3396
952.3395
952.3393
952.339
907.3167
907.3184
907.3211
907.3242
907.3274
907.3303
907.3328
907.335
907.3369
907.3384
907.3397
907.3408
907.3417
907.3424
907.3431
907.3436
907.3441
907.3445
907.3449
907.3452
907.3455
907.3458
907.346
907.3462
907.3465
907.3467
907.3469
907.3471
907.3472
907.3474
907.3476
907.3478
907.3479
907.3481
907.3482
907.3484
907.3486
907.3487
907.3489
907.349
907.3492
907.3494
907.3495
907.3497
907.3498
907.35
907.3501
907.3503
907.3504
907.3506
907.3507
907.3509
907.3511
907.3512
907.3514
907.3515
907.3517
907.3518
907.352
907.3521
907.3523
907.3524
907.3526
907.3527
907.3529
907.353
907.3532
907.3533
907.3535
907.3536
907.3538
907.3539
907.3541
907.3542
907.3544
907.3545
907.3546
907.3548
907.3549
907.3551
907.3552
907.3553
907.3554
907.3556
907.3557
907.3558
907.3559
907.356
907.3561
907.3561
907.3562
907.3562
907.3563
907.3563
907.3562
907.3561
907.356
907.3559
907.3557
907.3554
862.3377
862.3389
862.3408
862.3431
862.3455
862.3478
862.3499
862.3518
862.3535
862.3549
862.3561
862.3571
862.358
862.3587
862.3594
862.3599
862.3604
862.3608
862.3612
862.3615
862.3618
862.362
862.3623
862.3625
862.3627
862.3629
862.3631
862.3633
862.3634
862.3636
862.3638
862.3639
862.3641
862.3642
862.3644
862.3645
862.3647
862.3648
862.365
862.3651
862.3653
862.3654
862.3655
862.3657
862.3658
862.366
862.3661
862.3663
862.3664
862.3665
862.3667
862.3668
862.367
862.3671
862.3673
862.3674
862.3675
862.3677
862.3678
862.368
862.3681
862.3682
862.3684
862.3685
862.3686
862.3688
862.3689
862.3691
862.3692
862.3693
862.3695
862.3696
862.3697
862.3699
862.37
862.3701
862.3703
862.3704
862.3705
862.3707
862.3708
862.3709
862.371
862.3711
862.3712
862.3713
862.3714
862.3715
862.3716
862.3716
862.3717
862.3717
862.3717
862.3717
862.3716
862.3715
862.3714
862.3713
862.3711
862.3708
817.3566
817.3575
817.3589
817.3606
817.3625
817.3643
817.3661
817.3677
817.3692
817.3704
817.3716
817.3725
817.3733
817.374
817.3747
817.3752
817.3756
817.376
817.3764
817.3767
817.377
817.3773
817.3775
817.3777
817.3779
817.3781
817.3783
817.3784
817.3786
817.3787
817.3789
817.379
817.3792
817.3793
817.3795
817.3796
817.3797
817.3799
817.38
817.3801
817.3803
817.3804
817.3805
817.3807
817.3808
817.3809
817.3811
817.3812
817.3813
817.3815
817.3816
817.3817
817.3819
817.382
817.3821
817.3822
817.3824
817.3825
817.3826
817.3828
817.3829
817.383
817.3831
817.3833
817.3834
817.3835
817.3837
817.3838
817.3839
817.384
817.3842
817.3843
817.3844
817.3845
817.3846
817.3848
817.3849
817.385
817.3851
817.3852
817.3853
817.3855
817.3856
817.3857
817.3857
817.3858
817.3859
817.386
817.386
817.3861
817.3861
817.3861
817.3861
817.3861
817.386
817.3859
817.3858
817.3857
817.3855
817.3852
772.3738
772.3745
772.3755
772.3769
772.3783
772.3798
772.3813
772.3827
772.384
772.3851
772.3861
772.387
772.3878
772.3884
772.389
772.3895
772.39
772.3903
772.3907
772.391
772.3913
772.3915
772.3917
772.3919
772.3921
772.3923
772.3925
772.3926
772.3928
772.3929
772.393
772.3932
772.3933
772.3934
772.3936
772.3937
772.3938
772.3939
772.3941
772.3942
772.3943
772.3944
772.3946
772.3947
772.3948
772.3949
772.395
772.3952
772.3953
772.3954
772.3955
772.3956
772.3958
772.3959
772.396
772.3961
772.3962
772.3964
772.3965
772.3966
772.3967
772.3968
772.3969
772.3971
772.3972
772.3973
772.3974
772.3975
772.3976
772.3978
772.3979
772.398
772.3981
772.3982
772.3983
772.3984
772.3985
772.3987
772.3988
772.3989
772.399
772.3991
772.3992
772.3992
772.3993
772.3994
772.3995
772.3995
772.3996
772.3996
772.3996
772.3996
772.3996
772.3996
772.3995
772.3994
772.3993
772.3992
772.399
772.3987
727.3894
727.39
727.3908
727.3919
727.3931
727.3944
727.3956
727.3968
727.3979
727.3989
727.3998
727.4006
727.4013
727.4019
727.4025
727.4029
727.4034
727.4037
727.404
727.4043
727.4046
727.4048
727.405
727.4052
727.4054
727.4056
727.4057
727.4059
727.406
727.4061
727.4063
727.4064
727.4065
727.4066
727.4067
727.4069
727.407
727.4071
727.4072
727.4073
727.4074
727.4075
727.4077
727.4078
727.4079
727.408
727.4081
727.4082
727.4083
727.4084
727.4085
727.4086
727.4088
727.4089
727.409
727.4091
727.4092
727.4093
727.4094
727.4095
727.4096
727.4097
727.4098
727.4099
727.4101
727.4102
727.4103
727.4104
727.4105
727.4106
727.4107
727.4108
727.4109
727.411
727.4111
727.4112
727.4113
727.4114
727.4115
727.4116
727.4117
727.4118
727.4119
727.4119
727.412
727.4121
727.4121
727.4122
727.4122
727.4123
727.4123
727.4123
727.4123
727.4122
727.4122
727.4121
727.4119
727.4118
727.4116
727.4114
682.4037
682.4042
682.4049
682.4058
682.4069
682.4079
682.409
682.41
682.411
682.4119
682.4127
682.4134
682.414
682.4146
682.4151
682.4155
682.4159
682.4163
682.4166
682.4168
682.4171
682.4173
682.4175
682.4176
682.4178
682.418
682.4181
682.4182
682.4184
682.4185
682.4186
682.4187
682.4188
682.419
682.4191
682.4192
682.4193
682.4194
682.4195
682.4196
682.4197
682.4198
682.4199
682.42
682.4201
682.4202
682.4203
682.4204
682.4205
682.4206
682.4207
682.4208
682.4209
682.421
682.4211
682.4212
682.4213
682.4214
682.4215
682.4216
682.4217
682.4218
682.4219
682.422
682.4221
682.4222
682.4223
682.4224
682.4225
682.4226
682.4227
682.4228
682.4229
682.423
682.4231
682.4231
682.4232
682.4233
682.4234
682.4235
682.4236
682.4237
682.4237
682.4238
682.4239
682.4239
682.424
682.424
682.4241
682.4241
682.4241
682.4241
682.4241
682.424
682.424
682.4239
682.4238
682.4236
682.4235
682.4233
637.4168
637.4173
637.4179
637.4187
637.4197
637.4206
637.4215
637.4224
637.4233
637.4241
637.4248
637.4254
637.426
637.4265
637.4269
637.4273
637.4277
637.428
637.4283
637.4285
637.4287
637.4289
637.4291
637.4293
637.4294
637.4296
637.4297
637.4298
637.4299
637.4301
637.4302
637.4303
637.4304
637.4305
637.4306
637.4307
637.4308
637.4309
637.431
637.4311
637.4311
637.4312
637.4313
637.4314
637.4315
637.4316
637.4317
637.4318
637.4319
637.432
637.4321
637.4322
637.4323
637.4323
637.4324
637.4325
637.4326
637.4327
637.4328
637.4329
637.433
637.4331
637.4332
637.4333
637.4333
637.4334
637.4335
637.4336
637.4337
637.4338
637.4339
637.434
637.4341
637.4341
637.4342
637.4343
637.4344
637.4345
637.4346
637.4346
637.4347
637.4348
637.4348
637.4349
637.435
637.435
637.4351
637.4351
637.4351
637.4352
637.4352
637.4352
637.4351
637.4351
637.435
637.435
637.4349
637.4347
637.4346
637.4344
592.4288
592.4293
592.4299
592.4307
592.4316
592.4325
592.4333
592.4341
592.4349
592.4355
592.4362
592.4367
592.4372
592.4377
592.4381
592.4384
592.4387
592.439
592.4393
592.4395
592.4397
592.4399
592.44
592.4402
592.4403
592.4404
592.4406
592.4407
592.4408
592.4409
592.441
592.4411
592.4412
592.4413
592.4414
592.4414
592.4415
592.4416
592.4417
592.4418
592.4419
592.442
592.442
592.4421
592.4422
592.4423
592.4424
592.4425
592.4425
592.4426
592.4427
592.4428
592.4429
592.443
592.443
592.4431
592.4432
592.4433
592.4434
592.4435
592.4435
592.4436
592.4437
592.4438
592.4439
592.444
592.444
592.4441
592.4442
592.4443
592.4444
592.4444
592.4445
592.4446
592.4447
592.4448
592.4448
592.4449
592.445
592.445
592.4451
592.4452
592.4452
592.4453
592.4454
592.4454
592.4454
592.4455
592.4455
592.4455
592.4455
592.4455
592.4455
592.4455
592.4454
592.4454
592.4453
592.4452
592.445
592.4448
547.4398
547.4403
547.441
547.4419
547.4427
547.4436
547.4444
547.4451
547.4457
547.4463
547.4469
547.4474
547.4478
547.4482
547.4485
547.4488
547.4491
547.4494
547.4496
547.4498
547.4499
547.4501
547.4503
547.4504
547.4505
547.4506
547.4507
547.4508
547.4509
547.451
547.4511
547.4512
547.4513
547.4514
547.4515
547.4515
547.4516
547.4517
547.4518
547.4518
547.4519
547.452
547.4521
547.4522
547.4522
547.4523
547.4524
547.4525
547.4525
547.4526
547.4527
547.4528
547.4528
547.4529
547.453
547.4531
547.4531
547.4532
547.4533
547.4534
547.4534
547.4535
547.4536
547.4537
547.4537
547.4538
547.4539
547.454
547.454
547.4541
547.4542
547.4543
547.4543
547.4544
547.4545
547.4545
547.4546
547.4547
547.4547
547.4548
547.4549
547.4549
547.455
547.455
547.4551
547.4551
547.4552
547.4552
547.4552
547.4553
547.4553
547.4553
547.4553
547.4552
547.4552
547.4551
547.455
547.4549
547.4548
547.4547
502.4496
502.4503
502.4513
502.4523
502.4532
502.4541
502.4548
502.4554
502.456
502.4565
502.457
502.4574
502.4578
502.4581
502.4584
502.4587
502.4589
502.4591
502.4593
502.4595
502.4596
502.4597
502.4599
502.46
502.4601
502.4602
502.4603
502.4604
502.4605
502.4606
502.4606
502.4607
502.4608
502.4609
502.4609
502.461
502.4611
502.4611
502.4612
502.4613
502.4614
502.4614
502.4615
502.4616
502.4616
502.4617
502.4618
502.4618
502.4619
502.462
502.462
502.4621
502.4622
502.4623
502.4623
502.4624
502.4625
502.4625
502.4626
502.4627
502.4627
502.4628
502.4629
502.4629
502.463
502.4631
502.4631
502.4632
502.4633
502.4633
502.4634
502.4635
502.4635
502.4636
502.4637
502.4637
502.4638
502.4638
502.4639
502.464
502.464
502.4641
502.4641
502.4642
502.4642
502.4643
502.4643
502.4643
502.4644
502.4644
502.4644
502.4644
502.4644
502.4644
502.4643
502.4643
502.4642
502.4641
502.464
502.4639
457.4583
457.4595
457.4609
457.4622
457.4632
457.464
457.4647
457.4653
457.4658
457.4662
457.4666
457.4669
457.4672
457.4675
457.4677
457.4679
457.4681
457.4683
457.4684
457.4686
457.4687
457.4688
457.4689
457.469
457.4691
457.4692
457.4693
457.4694
457.4694
457.4695
457.4696
457.4697
457.4697
457.4698
457.4699
457.4699
457.47
457.4701
457.4701
457.4702
457.4702
457.4703
457.4704
457.4704
457.4705
457.4705
457.4706
457.4707
457.4707
457.4708
457.4709
457.4709
457.471
457.471
457.4711
457.4712
457.4712
457.4713
457.4713
457.4714
457.4715
457.4715
457.4716
457.4717
457.4717
457.4718
457.4718
457.4719
457.472
457.472
457.4721
457.4721
457.4722
457.4722
457.4723
457.4724
457.4724
457.4725
457.4725
457.4726
457.4726
457.4727
457.4727
457.4728
457.4728
457.4729
457.4729
457.4729
457.473
457.473
457.473
457.473
457.473
457.473
457.473
457.473
457.4729
457.4728
457.4727
457.4726
412.4655
412.4677
412.47
412.4717
412.4728
412.4736
412.4742
412.4746
412.475
412.4754
412.4756
412.4759
412.4761
412.4763
412.4765
412.4767
412.4768
412.477
412.4771
412.4772
412.4773
412.4774
412.4775
412.4776
412.4776
412.4777
412.4778
412.4779
412.4779
412.478
412.478
412.4781
412.4782
412.4782
412.4783
412.4783
412.4784
412.4785
412.4785
412.4786
412.4786
412.4787
412.4787
412.4788
412.4788
412.4789
412.479
412.479
412.4791
412.4791
412.4792
412.4792
412.4793
412.4793
412.4794
412.4794
412.4795
412.4796
412.4796
412.4797
412.4797
412.4798
412.4798
412.4799
412.4799
412.48
412.48
412.4801
412.4802
412.4802
412.4803
412.4803
412.4804
412.4804
412.4805
412.4805
412.4806
412.4806
412.4807
412.4807
412.4808
412.4808
412.4809
412.4809
412.4809
412.481
412.481
412.4811
412.4811
412.4811
412.4811
412.4812
412.4812
412.4812
412.4812
412.4811
412.4811
412.4811
412.481
412.4809
367.47
367.4751
367.4794
367.4813
367.4822
367.4829
367.4833
367.4836
367.4839
367.4841
367.4843
367.4845
367.4846
367.4848
367.4849
367.485
367.4851
367.4852
367.4853
367.4854
367.4855
367.4855
367.4856
367.4857
367.4857
367.4858
367.4858
367.4859
367.486
367.486
367.4861
367.4861
367.4862
367.4862
367.4863
367.4863
367.4864
367.4864
367.4865
367.4865
367.4866
367.4866
367.4867
367.4867
367.4868
367.4868
367.4869
367.4869
367.4869
367.487
367.487
367.4871
367.4871
367.4872
367.4872
367.4873
367.4873
367.4874
367.4874
367.4875
367.4875
367.4876
367.4876
367.4877
367.4877
367.4878
367.4878
367.4879
367.4879
367.488
367.488
367.4881
367.4881
367.4881
367.4882
367.4882
367.4883
367.4883
367.4884
367.4884
367.4885
367.4885
367.4885
367.4886
367.4886
367.4887
367.4887
367.4887
367.4888
367.4888
367.4888
367.4889
367.4889
367.4889
367.4889
367.4889
367.4889
367.4889
367.4888
367.4888
322.469
322.483
322.4905
322.4915
322.4916
322.4919
322.4921
322.4923
322.4924
322.4925
322.4926
322.4927
322.4927
322.4928
322.4929
322.4929
322.493
322.4931
322.4931
322.4932
322.4932
322.4933
322.4933
322.4934
322.4934
322.4935
322.4935
322.4936
322.4936
322.4936
322.4937
322.4937
322.4938
322.4938
322.4939
322.4939
322.4939
322.494
322.494
322.4941
322.4941
322.4942
322.4942
322.4942
322.4943
322.4943
322.4944
322.4944
322.4945
322.4945
322.4945
322.4946
322.4946
322.4947
322.4947
322.4947
322.4948
322.4948
322.4949
322.4949
322.495
322.495
322.495
322.4951
322.4951
322.4952
322.4952
322.4952
322.4953
322.4953
322.4954
322.4954
322.4955
322.4955
322.4955
322.4956
322.4956
322.4957
322.4957
322.4957
322.4958
322.4958
322.4959
322.4959
322.4959
322.496
322.496
322.496
322.4961
322.4961
322.4962
322.4962
322.4962
322.4962
322.4963
322.4963
322.4963
322.4963
322.4963
322.4963
)
;

boundaryField
{
    leftLet
    {
        type            zeroGradient;
    }
    rightLet
    {
        type            zeroGradient;
    }
    frontAndBack
    {
        type            empty;
    }
    wall_to_bottomAir
    {
        type            compressible::turbulentTemperatureCoupledBaffleMixed;
        refValue        nonuniform List<scalar> 
100
(
1199.434
1199.677
1199.756
1199.736
1199.729
1199.731
1199.732
1199.732
1199.732
1199.733
1199.733
1199.733
1199.733
1199.734
1199.734
1199.734
1199.734
1199.735
1199.735
1199.735
1199.735
1199.736
1199.736
1199.736
1199.737
1199.737
1199.737
1199.737
1199.738
1199.738
1199.738
1199.738
1199.739
1199.739
1199.739
1199.739
1199.74
1199.74
1199.74
1199.74
1199.741
1199.741
1199.741
1199.741
1199.742
1199.742
1199.742
1199.742
1199.743
1199.743
1199.743
1199.743
1199.744
1199.744
1199.744
1199.744
1199.745
1199.745
1199.745
1199.745
1199.746
1199.746
1199.746
1199.746
1199.747
1199.747
1199.747
1199.747
1199.748
1199.748
1199.748
1199.748
1199.749
1199.749
1199.749
1199.749
1199.75
1199.75
1199.75
1199.75
1199.75
1199.751
1199.751
1199.751
1199.751
1199.752
1199.752
1199.752
1199.752
1199.753
1199.753
1199.753
1199.753
1199.753
1199.754
1199.754
1199.754
1199.754
1199.754
1199.755
)
;
        refGradient     uniform 0;
        valueFraction   uniform 0.9988347;
        value           nonuniform List<scalar> 
100
(
1199.408
1199.65
1199.73
1199.71
1199.702
1199.705
1199.706
1199.706
1199.706
1199.706
1199.707
1199.707
1199.707
1199.707
1199.708
1199.708
1199.708
1199.708
1199.709
1199.709
1199.709
1199.71
1199.71
1199.71
1199.71
1199.711
1199.711
1199.711
1199.711
1199.712
1199.712
1199.712
1199.712
1199.713
1199.713
1199.713
1199.713
1199.714
1199.714
1199.714
1199.714
1199.715
1199.715
1199.715
1199.715
1199.716
1199.716
1199.716
1199.716
1199.717
1199.717
1199.717
1199.717
1199.718
1199.718
1199.718
1199.718
1199.719
1199.719
1199.719
1199.719
1199.72
1199.72
1199.72
1199.72
1199.721
1199.721
1199.721
1199.721
1199.722
1199.722
1199.722
1199.722
1199.723
1199.723
1199.723
1199.723
1199.724
1199.724
1199.724
1199.724
1199.724
1199.725
1199.725
1199.725
1199.725
1199.726
1199.726
1199.726
1199.726
1199.727
1199.727
1199.727
1199.727
1199.727
1199.728
1199.728
1199.728
1199.728
1199.728
)
;
        Tnbr            T;
        thicknessLayers 0();
        kappaLayers     0();
        kappa           solidThermo;
        kappaName       none;
    }
    wall_to_topAir
    {
        type            compressible::turbulentTemperatureCoupledBaffleMixed;
        refValue        nonuniform List<scalar> 
100
(
299.9348
299.9635
299.9727
299.9705
299.9696
299.9699
299.97
299.97
299.97
299.9701
299.9701
299.9702
299.9702
299.9702
299.9703
299.9703
299.9704
299.9704
299.9704
299.9705
299.9705
299.9706
299.9706
299.9706
299.9707
299.9707
299.9708
299.9708
299.9708
299.9709
299.9709
299.971
299.971
299.971
299.9711
299.9711
299.9712
299.9712
299.9712
299.9713
299.9713
299.9714
299.9714
299.9714
299.9715
299.9715
299.9715
299.9716
299.9716
299.9717
299.9717
299.9717
299.9718
299.9718
299.9719
299.9719
299.9719
299.972
299.972
299.9721
299.9721
299.9721
299.9722
299.9722
299.9722
299.9723
299.9723
299.9724
299.9724
299.9724
299.9725
299.9725
299.9726
299.9726
299.9726
299.9727
299.9727
299.9727
299.9728
299.9728
299.9729
299.9729
299.9729
299.973
299.973
299.9731
299.9731
299.9731
299.9732
299.9732
299.9732
299.9733
299.9733
299.9733
299.9734
299.9734
299.9735
299.9735
299.9735
299.9735
)
;
        refGradient     uniform 0;
        valueFraction   nonuniform List<scalar> 
100
(
0.9988347
0.9988347
0.9988347
0.9988347
0.9988347
0.9988347
0.9988347
0.9988347
0.9988347
0.9988347
0.9988347
0.9988347
0.9988347
0.9988347
0.9988347
0.9988347
0.9988347
0.9988347
0.9988347
0.9988347
0.9988347
0.9988347
0.9988347
0.9988347
0.9988347
0.9988347
0.9988347
0.9988347
0.9988347
0.9988347
0.9988347
0.9988347
0.9988347
0.9988347
0.9988347
0.9988347
0.9988347
0.9988347
0.9988347
0.9988347
0.9988347
0.9988347
0.9988347
0.9988347
0.9988347
0.9988347
0.9988347
0.9988347
0.9988347
0.9988347
0.9988347
0.9988347
0.9988347
0.9988347
0.9988347
0.9988347
0.9988347
0.9988347
0.9988347
0.9988347
0.9988347
0.9988347
0.9988347
0.9988347
0.9988347
0.9988347
0.9988347
0.9988347
0.9988347
0.9988347
0.9988347
0.9988347
0.9988347
0.9988347
0.9988347
0.9988347
0.9988347
0.9988347
0.9988347
0.9988347
0.9988347
0.9988347
0.9988347
0.9988347
0.9988347
0.9988347
0.9988347
0.9988347
0.9988347
0.9988347
0.9988347
0.9988347
0.9988347
0.9988347
0.9988347
0.9988347
0.9988347
0.9988347
0.9988347
0.9988347
)
;
        value           nonuniform List<scalar> 
100
(
299.961
299.9897
299.999
299.9967
299.9958
299.9961
299.9963
299.9963
299.9963
299.9963
299.9964
299.9964
299.9965
299.9965
299.9965
299.9966
299.9966
299.9967
299.9967
299.9967
299.9968
299.9968
299.9968
299.9969
299.9969
299.997
299.997
299.997
299.9971
299.9971
299.9972
299.9972
299.9972
299.9973
299.9973
299.9974
299.9974
299.9974
299.9975
299.9975
299.9976
299.9976
299.9976
299.9977
299.9977
299.9978
299.9978
299.9978
299.9979
299.9979
299.9979
299.998
299.998
299.9981
299.9981
299.9981
299.9982
299.9982
299.9983
299.9983
299.9983
299.9984
299.9984
299.9985
299.9985
299.9985
299.9986
299.9986
299.9986
299.9987
299.9987
299.9988
299.9988
299.9988
299.9989
299.9989
299.999
299.999
299.999
299.9991
299.9991
299.9991
299.9992
299.9992
299.9993
299.9993
299.9993
299.9994
299.9994
299.9994
299.9995
299.9995
299.9996
299.9996
299.9996
299.9997
299.9997
299.9997
299.9998
299.9998
)
;
        Tnbr            T;
        thicknessLayers 0();
        kappaLayers     0();
        kappa           solidThermo;
        kappaName       none;
    }
}


// ************************************************************************* //
