/*--------------------------------*- C++ -*----------------------------------*\
| =========                 |                                                 |
| \\      /  F ield         | OpenFOAM: The Open Source CFD Toolbox           |
|  \\    /   O peration     | Version:  2.3.0                                 |
|   \\  /    A nd           | Web:      www.OpenFOAM.org                      |
|    \\/     M anipulation  |                                                 |
\*---------------------------------------------------------------------------*/
FoamFile
{
    version     2.0;
    format      ascii;
    class       volScalarField;
    location    "9700/wall";
    object      T;
}
// * * * * * * * * * * * * * * * * * * * * * * * * * * * * * * * * * * * * * //

dimensions      [0 0 0 1 0 0 0];

internalField   nonuniform List<scalar> 
2000
(
1177.032
1177.148
1177.211
1177.219
1177.219
1177.221
1177.223
1177.224
1177.224
1177.225
1177.225
1177.226
1177.226
1177.226
1177.227
1177.227
1177.227
1177.228
1177.228
1177.228
1177.228
1177.229
1177.229
1177.229
1177.229
1177.23
1177.23
1177.23
1177.23
1177.231
1177.231
1177.231
1177.231
1177.232
1177.232
1177.232
1177.232
1177.233
1177.233
1177.233
1177.233
1177.234
1177.234
1177.234
1177.234
1177.234
1177.235
1177.235
1177.235
1177.235
1177.236
1177.236
1177.236
1177.236
1177.237
1177.237
1177.237
1177.237
1177.238
1177.238
1177.238
1177.238
1177.239
1177.239
1177.239
1177.239
1177.239
1177.24
1177.24
1177.24
1177.24
1177.241
1177.241
1177.241
1177.241
1177.242
1177.242
1177.242
1177.242
1177.242
1177.243
1177.243
1177.243
1177.243
1177.244
1177.244
1177.244
1177.244
1177.244
1177.245
1177.245
1177.245
1177.245
1177.245
1177.246
1177.246
1177.246
1177.246
1177.246
1177.246
1132.137
1132.179
1132.213
1132.229
1132.236
1132.24
1132.243
1132.245
1132.246
1132.247
1132.248
1132.249
1132.249
1132.25
1132.25
1132.25
1132.251
1132.251
1132.251
1132.252
1132.252
1132.252
1132.252
1132.253
1132.253
1132.253
1132.253
1132.254
1132.254
1132.254
1132.254
1132.255
1132.255
1132.255
1132.255
1132.255
1132.256
1132.256
1132.256
1132.256
1132.257
1132.257
1132.257
1132.257
1132.258
1132.258
1132.258
1132.258
1132.258
1132.259
1132.259
1132.259
1132.259
1132.26
1132.26
1132.26
1132.26
1132.26
1132.261
1132.261
1132.261
1132.261
1132.261
1132.262
1132.262
1132.262
1132.262
1132.263
1132.263
1132.263
1132.263
1132.263
1132.264
1132.264
1132.264
1132.264
1132.264
1132.265
1132.265
1132.265
1132.265
1132.266
1132.266
1132.266
1132.266
1132.266
1132.267
1132.267
1132.267
1132.267
1132.267
1132.267
1132.268
1132.268
1132.268
1132.268
1132.268
1132.268
1132.268
1132.268
1087.197
1087.214
1087.233
1087.246
1087.254
1087.26
1087.263
1087.265
1087.267
1087.269
1087.27
1087.27
1087.271
1087.272
1087.272
1087.272
1087.273
1087.273
1087.274
1087.274
1087.274
1087.274
1087.275
1087.275
1087.275
1087.275
1087.276
1087.276
1087.276
1087.276
1087.276
1087.277
1087.277
1087.277
1087.277
1087.278
1087.278
1087.278
1087.278
1087.278
1087.279
1087.279
1087.279
1087.279
1087.279
1087.28
1087.28
1087.28
1087.28
1087.28
1087.281
1087.281
1087.281
1087.281
1087.281
1087.282
1087.282
1087.282
1087.282
1087.282
1087.283
1087.283
1087.283
1087.283
1087.284
1087.284
1087.284
1087.284
1087.284
1087.285
1087.285
1087.285
1087.285
1087.285
1087.285
1087.286
1087.286
1087.286
1087.286
1087.286
1087.287
1087.287
1087.287
1087.287
1087.287
1087.288
1087.288
1087.288
1087.288
1087.288
1087.288
1087.288
1087.289
1087.289
1087.289
1087.289
1087.289
1087.289
1087.289
1087.288
1042.239
1042.247
1042.258
1042.267
1042.274
1042.279
1042.282
1042.285
1042.287
1042.289
1042.29
1042.291
1042.292
1042.292
1042.293
1042.293
1042.294
1042.294
1042.294
1042.295
1042.295
1042.295
1042.295
1042.296
1042.296
1042.296
1042.296
1042.297
1042.297
1042.297
1042.297
1042.297
1042.298
1042.298
1042.298
1042.298
1042.298
1042.299
1042.299
1042.299
1042.299
1042.299
1042.3
1042.3
1042.3
1042.3
1042.3
1042.301
1042.301
1042.301
1042.301
1042.301
1042.301
1042.302
1042.302
1042.302
1042.302
1042.302
1042.303
1042.303
1042.303
1042.303
1042.303
1042.304
1042.304
1042.304
1042.304
1042.304
1042.304
1042.305
1042.305
1042.305
1042.305
1042.305
1042.306
1042.306
1042.306
1042.306
1042.306
1042.306
1042.307
1042.307
1042.307
1042.307
1042.307
1042.307
1042.308
1042.308
1042.308
1042.308
1042.308
1042.308
1042.308
1042.308
1042.308
1042.308
1042.308
1042.308
1042.308
1042.308
997.2715
997.2759
997.2821
997.2884
997.2938
997.2981
997.3015
997.3041
997.3062
997.3078
997.309
997.3101
997.3109
997.3116
997.3122
997.3127
997.3131
997.3135
997.3139
997.3142
997.3145
997.3147
997.315
997.3152
997.3155
997.3157
997.3159
997.3161
997.3163
997.3165
997.3167
997.3169
997.317
997.3172
997.3174
997.3176
997.3178
997.318
997.3181
997.3183
997.3185
997.3187
997.3189
997.319
997.3192
997.3194
997.3196
997.3198
997.3199
997.3201
997.3203
997.3205
997.3206
997.3208
997.321
997.3212
997.3213
997.3215
997.3217
997.3219
997.322
997.3222
997.3224
997.3226
997.3227
997.3229
997.3231
997.3233
997.3234
997.3236
997.3238
997.3239
997.3241
997.3243
997.3244
997.3246
997.3248
997.3249
997.3251
997.3253
997.3254
997.3256
997.3257
997.3259
997.326
997.3262
997.3263
997.3264
997.3265
997.3266
997.3267
997.3268
997.3269
997.3269
997.3269
997.3269
997.3268
997.3267
997.3265
997.3262
952.2985
952.3011
952.305
952.3094
952.3134
952.317
952.3199
952.3223
952.3243
952.3259
952.3272
952.3282
952.3291
952.3298
952.3304
952.331
952.3314
952.3318
952.3322
952.3325
952.3328
952.3331
952.3333
952.3335
952.3337
952.334
952.3342
952.3343
952.3345
952.3347
952.3349
952.3351
952.3353
952.3354
952.3356
952.3358
952.3359
952.3361
952.3363
952.3364
952.3366
952.3368
952.3369
952.3371
952.3373
952.3374
952.3376
952.3378
952.3379
952.3381
952.3382
952.3384
952.3386
952.3387
952.3389
952.3391
952.3392
952.3394
952.3395
952.3397
952.3399
952.34
952.3402
952.3404
952.3405
952.3407
952.3408
952.341
952.3412
952.3413
952.3415
952.3416
952.3418
952.3419
952.3421
952.3422
952.3424
952.3425
952.3427
952.3428
952.343
952.3431
952.3433
952.3434
952.3435
952.3437
952.3438
952.3439
952.344
952.3441
952.3441
952.3442
952.3442
952.3442
952.3442
952.3442
952.3441
952.3439
952.3437
952.3435
907.3219
907.3236
907.3262
907.3292
907.3323
907.3351
907.3376
907.3398
907.3416
907.3431
907.3443
907.3453
907.3462
907.3469
907.3476
907.3481
907.3486
907.349
907.3493
907.3496
907.3499
907.3502
907.3504
907.3507
907.3509
907.3511
907.3513
907.3514
907.3516
907.3518
907.352
907.3521
907.3523
907.3524
907.3526
907.3528
907.3529
907.3531
907.3532
907.3534
907.3535
907.3537
907.3538
907.354
907.3541
907.3543
907.3544
907.3546
907.3547
907.3549
907.3551
907.3552
907.3554
907.3555
907.3557
907.3558
907.3559
907.3561
907.3562
907.3564
907.3565
907.3567
907.3568
907.357
907.3571
907.3573
907.3574
907.3576
907.3577
907.3579
907.358
907.3582
907.3583
907.3584
907.3586
907.3587
907.3589
907.359
907.3591
907.3593
907.3594
907.3595
907.3597
907.3598
907.3599
907.36
907.3601
907.3602
907.3603
907.3603
907.3604
907.3604
907.3605
907.3605
907.3604
907.3603
907.3602
907.3601
907.3599
907.3596
862.3425
862.3437
862.3456
862.3478
862.3501
862.3524
862.3545
862.3563
862.3579
862.3593
862.3605
862.3615
862.3623
862.363
862.3636
862.3642
862.3646
862.365
862.3654
862.3657
862.366
862.3662
862.3665
862.3667
862.3669
862.3671
862.3672
862.3674
862.3676
862.3677
862.3679
862.3681
862.3682
862.3684
862.3685
862.3686
862.3688
862.3689
862.3691
862.3692
862.3694
862.3695
862.3696
862.3698
862.3699
862.3701
862.3702
862.3703
862.3705
862.3706
862.3708
862.3709
862.371
862.3712
862.3713
862.3714
862.3716
862.3717
862.3719
862.372
862.3721
862.3723
862.3724
862.3725
862.3727
862.3728
862.3729
862.3731
862.3732
862.3733
862.3735
862.3736
862.3737
862.3739
862.374
862.3741
862.3743
862.3744
862.3745
862.3746
862.3748
862.3749
862.375
862.3751
862.3752
862.3753
862.3754
862.3755
862.3755
862.3756
862.3756
862.3756
862.3756
862.3756
862.3756
862.3755
862.3754
862.3752
862.375
862.3748
817.3611
817.362
817.3634
817.365
817.3668
817.3686
817.3704
817.372
817.3734
817.3746
817.3757
817.3766
817.3774
817.3781
817.3787
817.3792
817.3796
817.38
817.3804
817.3807
817.381
817.3812
817.3814
817.3816
817.3818
817.382
817.3822
817.3823
817.3825
817.3826
817.3828
817.3829
817.3831
817.3832
817.3833
817.3835
817.3836
817.3837
817.3839
817.384
817.3841
817.3843
817.3844
817.3845
817.3846
817.3848
817.3849
817.385
817.3852
817.3853
817.3854
817.3855
817.3857
817.3858
817.3859
817.386
817.3862
817.3863
817.3864
817.3866
817.3867
817.3868
817.3869
817.3871
817.3872
817.3873
817.3874
817.3876
817.3877
817.3878
817.3879
817.388
817.3882
817.3883
817.3884
817.3885
817.3886
817.3888
817.3889
817.389
817.3891
817.3892
817.3893
817.3894
817.3895
817.3896
817.3896
817.3897
817.3898
817.3898
817.3898
817.3899
817.3898
817.3898
817.3898
817.3897
817.3895
817.3894
817.3892
817.3889
772.378
772.3787
772.3797
772.381
772.3824
772.3839
772.3853
772.3867
772.3879
772.389
772.39
772.3908
772.3916
772.3922
772.3928
772.3933
772.3937
772.3941
772.3944
772.3947
772.395
772.3952
772.3954
772.3956
772.3958
772.396
772.3961
772.3963
772.3964
772.3966
772.3967
772.3968
772.3969
772.3971
772.3972
772.3973
772.3974
772.3976
772.3977
772.3978
772.3979
772.398
772.3982
772.3983
772.3984
772.3985
772.3986
772.3987
772.3989
772.399
772.3991
772.3992
772.3993
772.3994
772.3996
772.3997
772.3998
772.3999
772.4
772.4001
772.4003
772.4004
772.4005
772.4006
772.4007
772.4008
772.4009
772.4011
772.4012
772.4013
772.4014
772.4015
772.4016
772.4017
772.4018
772.402
772.4021
772.4022
772.4023
772.4024
772.4025
772.4026
772.4027
772.4027
772.4028
772.4029
772.403
772.403
772.4031
772.4031
772.4031
772.4031
772.4031
772.4031
772.403
772.4029
772.4028
772.4026
772.4025
772.4022
727.3933
727.3939
727.3947
727.3957
727.3969
727.3981
727.3994
727.4005
727.4016
727.4026
727.4034
727.4042
727.4049
727.4055
727.406
727.4065
727.4069
727.4072
727.4075
727.4078
727.408
727.4083
727.4085
727.4087
727.4088
727.409
727.4091
727.4093
727.4094
727.4095
727.4097
727.4098
727.4099
727.41
727.4101
727.4102
727.4104
727.4105
727.4106
727.4107
727.4108
727.4109
727.411
727.4111
727.4112
727.4113
727.4114
727.4115
727.4117
727.4118
727.4119
727.412
727.4121
727.4122
727.4123
727.4124
727.4125
727.4126
727.4127
727.4128
727.4129
727.413
727.4131
727.4133
727.4134
727.4135
727.4136
727.4137
727.4138
727.4139
727.414
727.4141
727.4142
727.4143
727.4144
727.4145
727.4146
727.4147
727.4148
727.4149
727.415
727.415
727.4151
727.4152
727.4153
727.4153
727.4154
727.4154
727.4155
727.4155
727.4155
727.4155
727.4155
727.4155
727.4154
727.4153
727.4152
727.4151
727.4149
727.4147
682.4073
682.4078
682.4085
682.4094
682.4104
682.4114
682.4125
682.4135
682.4144
682.4153
682.416
682.4167
682.4174
682.4179
682.4184
682.4188
682.4192
682.4195
682.4198
682.42
682.4203
682.4205
682.4207
682.4208
682.421
682.4211
682.4213
682.4214
682.4215
682.4217
682.4218
682.4219
682.422
682.4221
682.4222
682.4223
682.4224
682.4225
682.4226
682.4227
682.4228
682.4229
682.423
682.4231
682.4232
682.4233
682.4234
682.4235
682.4236
682.4237
682.4238
682.4239
682.424
682.4241
682.4242
682.4243
682.4244
682.4245
682.4246
682.4247
682.4248
682.4249
682.425
682.4251
682.4252
682.4252
682.4253
682.4254
682.4255
682.4256
682.4257
682.4258
682.4259
682.426
682.4261
682.4262
682.4263
682.4264
682.4265
682.4265
682.4266
682.4267
682.4268
682.4268
682.4269
682.427
682.427
682.4271
682.4271
682.4271
682.4271
682.4271
682.4271
682.4271
682.427
682.4269
682.4268
682.4267
682.4265
682.4263
637.4201
637.4206
637.4212
637.422
637.4229
637.4238
637.4247
637.4256
637.4264
637.4272
637.4279
637.4285
637.4291
637.4295
637.43
637.4304
637.4307
637.431
637.4313
637.4315
637.4317
637.4319
637.4321
637.4322
637.4324
637.4325
637.4326
637.4327
637.4329
637.433
637.4331
637.4332
637.4333
637.4334
637.4335
637.4336
637.4337
637.4338
637.4338
637.4339
637.434
637.4341
637.4342
637.4343
637.4344
637.4345
637.4346
637.4347
637.4347
637.4348
637.4349
637.435
637.4351
637.4352
637.4353
637.4354
637.4355
637.4355
637.4356
637.4357
637.4358
637.4359
637.436
637.4361
637.4362
637.4363
637.4363
637.4364
637.4365
637.4366
637.4367
637.4368
637.4369
637.4369
637.437
637.4371
637.4372
637.4373
637.4374
637.4374
637.4375
637.4376
637.4376
637.4377
637.4378
637.4378
637.4379
637.4379
637.4379
637.438
637.438
637.438
637.4379
637.4379
637.4378
637.4378
637.4377
637.4375
637.4374
637.4372
592.4319
592.4323
592.433
592.4337
592.4346
592.4354
592.4362
592.437
592.4377
592.4384
592.439
592.4395
592.44
592.4405
592.4408
592.4412
592.4415
592.4418
592.442
592.4422
592.4424
592.4426
592.4427
592.4429
592.443
592.4431
592.4432
592.4433
592.4434
592.4435
592.4436
592.4437
592.4438
592.4439
592.444
592.4441
592.4442
592.4443
592.4443
592.4444
592.4445
592.4446
592.4447
592.4448
592.4448
592.4449
592.445
592.4451
592.4452
592.4452
592.4453
592.4454
592.4455
592.4456
592.4457
592.4457
592.4458
592.4459
592.446
592.4461
592.4461
592.4462
592.4463
592.4464
592.4465
592.4465
592.4466
592.4467
592.4468
592.4469
592.4469
592.447
592.4471
592.4472
592.4472
592.4473
592.4474
592.4475
592.4475
592.4476
592.4477
592.4477
592.4478
592.4479
592.4479
592.448
592.448
592.448
592.4481
592.4481
592.4481
592.4481
592.4481
592.448
592.448
592.4479
592.4478
592.4477
592.4476
592.4474
547.4426
547.4431
547.4438
547.4446
547.4455
547.4463
547.447
547.4477
547.4484
547.4489
547.4495
547.4499
547.4504
547.4507
547.4511
547.4514
547.4516
547.4519
547.4521
547.4522
547.4524
547.4526
547.4527
547.4528
547.453
547.4531
547.4532
547.4533
547.4534
547.4535
547.4535
547.4536
547.4537
547.4538
547.4539
547.4539
547.454
547.4541
547.4542
547.4542
547.4543
547.4544
547.4545
547.4545
547.4546
547.4547
547.4548
547.4548
547.4549
547.455
547.4551
547.4551
547.4552
547.4553
547.4554
547.4554
547.4555
547.4556
547.4557
547.4557
547.4558
547.4559
547.4559
547.456
547.4561
547.4562
547.4562
547.4563
547.4564
547.4565
547.4565
547.4566
547.4567
547.4567
547.4568
547.4569
547.4569
547.457
547.4571
547.4571
547.4572
547.4573
547.4573
547.4574
547.4574
547.4575
547.4575
547.4575
547.4576
547.4576
547.4576
547.4576
547.4576
547.4576
547.4575
547.4575
547.4574
547.4573
547.4571
547.457
502.4522
502.4529
502.4538
502.4548
502.4557
502.4565
502.4572
502.4578
502.4584
502.4589
502.4593
502.4597
502.4601
502.4604
502.4607
502.4609
502.4611
502.4613
502.4615
502.4617
502.4618
502.462
502.4621
502.4622
502.4623
502.4624
502.4625
502.4626
502.4627
502.4627
502.4628
502.4629
502.463
502.463
502.4631
502.4632
502.4633
502.4633
502.4634
502.4635
502.4635
502.4636
502.4637
502.4637
502.4638
502.4639
502.4639
502.464
502.4641
502.4641
502.4642
502.4643
502.4643
502.4644
502.4645
502.4645
502.4646
502.4647
502.4647
502.4648
502.4649
502.4649
502.465
502.4651
502.4651
502.4652
502.4653
502.4653
502.4654
502.4655
502.4655
502.4656
502.4657
502.4657
502.4658
502.4658
502.4659
502.466
502.466
502.4661
502.4661
502.4662
502.4662
502.4663
502.4663
502.4664
502.4664
502.4665
502.4665
502.4665
502.4665
502.4665
502.4665
502.4665
502.4665
502.4664
502.4663
502.4663
502.4662
502.466
457.4607
457.4618
457.4632
457.4644
457.4654
457.4662
457.4668
457.4674
457.4679
457.4683
457.4686
457.469
457.4692
457.4695
457.4697
457.4699
457.4701
457.4703
457.4704
457.4706
457.4707
457.4708
457.4709
457.471
457.4711
457.4712
457.4713
457.4713
457.4714
457.4715
457.4715
457.4716
457.4717
457.4717
457.4718
457.4719
457.4719
457.472
457.4721
457.4721
457.4722
457.4722
457.4723
457.4724
457.4724
457.4725
457.4725
457.4726
457.4727
457.4727
457.4728
457.4728
457.4729
457.473
457.473
457.4731
457.4731
457.4732
457.4733
457.4733
457.4734
457.4734
457.4735
457.4736
457.4736
457.4737
457.4737
457.4738
457.4739
457.4739
457.474
457.474
457.4741
457.4742
457.4742
457.4743
457.4743
457.4744
457.4744
457.4745
457.4745
457.4746
457.4746
457.4747
457.4747
457.4748
457.4748
457.4748
457.4749
457.4749
457.4749
457.4749
457.4749
457.4749
457.4749
457.4749
457.4748
457.4747
457.4746
457.4745
412.4677
412.4698
412.472
412.4737
412.4747
412.4755
412.476
412.4765
412.4769
412.4772
412.4775
412.4777
412.4779
412.4781
412.4783
412.4785
412.4786
412.4787
412.4788
412.479
412.4791
412.4791
412.4792
412.4793
412.4794
412.4795
412.4795
412.4796
412.4797
412.4797
412.4798
412.4798
412.4799
412.48
412.48
412.4801
412.4801
412.4802
412.4802
412.4803
412.4803
412.4804
412.4805
412.4805
412.4806
412.4806
412.4807
412.4807
412.4808
412.4808
412.4809
412.4809
412.481
412.481
412.4811
412.4812
412.4812
412.4813
412.4813
412.4814
412.4814
412.4815
412.4815
412.4816
412.4816
412.4817
412.4817
412.4818
412.4818
412.4819
412.482
412.482
412.4821
412.4821
412.4822
412.4822
412.4823
412.4823
412.4824
412.4824
412.4825
412.4825
412.4825
412.4826
412.4826
412.4827
412.4827
412.4827
412.4828
412.4828
412.4828
412.4828
412.4828
412.4829
412.4828
412.4828
412.4828
412.4828
412.4827
412.4826
367.4721
367.477
367.4811
367.483
367.4839
367.4845
367.4849
367.4852
367.4855
367.4857
367.4859
367.486
367.4862
367.4863
367.4864
367.4865
367.4866
367.4867
367.4868
367.4869
367.487
367.487
367.4871
367.4872
367.4872
367.4873
367.4874
367.4874
367.4875
367.4875
367.4876
367.4876
367.4877
367.4877
367.4878
367.4878
367.4879
367.4879
367.488
367.488
367.4881
367.4881
367.4882
367.4882
367.4883
367.4883
367.4884
367.4884
367.4885
367.4885
367.4885
367.4886
367.4886
367.4887
367.4887
367.4888
367.4888
367.4889
367.4889
367.489
367.489
367.4891
367.4891
367.4892
367.4892
367.4893
367.4893
367.4894
367.4894
367.4894
367.4895
367.4895
367.4896
367.4896
367.4897
367.4897
367.4898
367.4898
367.4899
367.4899
367.49
367.49
367.49
367.4901
367.4901
367.4902
367.4902
367.4902
367.4903
367.4903
367.4903
367.4903
367.4904
367.4904
367.4904
367.4904
367.4904
367.4904
367.4903
367.4903
322.4713
322.4847
322.4919
322.4928
322.4929
322.4932
322.4935
322.4936
322.4937
322.4938
322.4939
322.494
322.494
322.4941
322.4942
322.4942
322.4943
322.4944
322.4944
322.4945
322.4945
322.4946
322.4946
322.4947
322.4947
322.4948
322.4948
322.4949
322.4949
322.4949
322.495
322.495
322.4951
322.4951
322.4952
322.4952
322.4952
322.4953
322.4953
322.4954
322.4954
322.4955
322.4955
322.4955
322.4956
322.4956
322.4957
322.4957
322.4957
322.4958
322.4958
322.4959
322.4959
322.496
322.496
322.496
322.4961
322.4961
322.4962
322.4962
322.4962
322.4963
322.4963
322.4964
322.4964
322.4965
322.4965
322.4965
322.4966
322.4966
322.4967
322.4967
322.4967
322.4968
322.4968
322.4969
322.4969
322.4969
322.497
322.497
322.4971
322.4971
322.4971
322.4972
322.4972
322.4973
322.4973
322.4973
322.4974
322.4974
322.4974
322.4975
322.4975
322.4975
322.4976
322.4976
322.4976
322.4976
322.4976
322.4976
)
;

boundaryField
{
    leftLet
    {
        type            zeroGradient;
    }
    rightLet
    {
        type            zeroGradient;
    }
    frontAndBack
    {
        type            empty;
    }
    wall_to_bottomAir
    {
        type            compressible::turbulentTemperatureCoupledBaffleMixed;
        refValue        nonuniform List<scalar> 
100
(
1199.446
1199.684
1199.761
1199.742
1199.735
1199.737
1199.738
1199.738
1199.738
1199.738
1199.739
1199.739
1199.739
1199.74
1199.74
1199.74
1199.74
1199.741
1199.741
1199.741
1199.741
1199.742
1199.742
1199.742
1199.742
1199.743
1199.743
1199.743
1199.743
1199.744
1199.744
1199.744
1199.744
1199.745
1199.745
1199.745
1199.745
1199.746
1199.746
1199.746
1199.746
1199.747
1199.747
1199.747
1199.747
1199.748
1199.748
1199.748
1199.748
1199.749
1199.749
1199.749
1199.749
1199.75
1199.75
1199.75
1199.75
1199.751
1199.751
1199.751
1199.751
1199.752
1199.752
1199.752
1199.752
1199.753
1199.753
1199.753
1199.753
1199.754
1199.754
1199.754
1199.754
1199.755
1199.755
1199.755
1199.755
1199.755
1199.756
1199.756
1199.756
1199.756
1199.757
1199.757
1199.757
1199.757
1199.758
1199.758
1199.758
1199.758
1199.758
1199.759
1199.759
1199.759
1199.759
1199.76
1199.76
1199.76
1199.76
1199.76
)
;
        refGradient     uniform 0;
        valueFraction   uniform 0.9988347;
        value           nonuniform List<scalar> 
100
(
1199.42
1199.658
1199.735
1199.716
1199.708
1199.711
1199.712
1199.712
1199.712
1199.712
1199.713
1199.713
1199.713
1199.713
1199.714
1199.714
1199.714
1199.714
1199.715
1199.715
1199.715
1199.715
1199.716
1199.716
1199.716
1199.716
1199.717
1199.717
1199.717
1199.717
1199.718
1199.718
1199.718
1199.718
1199.719
1199.719
1199.719
1199.719
1199.72
1199.72
1199.72
1199.72
1199.721
1199.721
1199.721
1199.721
1199.722
1199.722
1199.722
1199.722
1199.723
1199.723
1199.723
1199.723
1199.724
1199.724
1199.724
1199.724
1199.725
1199.725
1199.725
1199.725
1199.726
1199.726
1199.726
1199.726
1199.727
1199.727
1199.727
1199.727
1199.728
1199.728
1199.728
1199.728
1199.729
1199.729
1199.729
1199.729
1199.729
1199.73
1199.73
1199.73
1199.73
1199.731
1199.731
1199.731
1199.731
1199.732
1199.732
1199.732
1199.732
1199.732
1199.733
1199.733
1199.733
1199.733
1199.733
1199.734
1199.734
1199.734
)
;
        Tnbr            T;
        thicknessLayers 0();
        kappaLayers     0();
        kappa           solidThermo;
        kappaName       none;
    }
    wall_to_topAir
    {
        type            compressible::turbulentTemperatureCoupledBaffleMixed;
        refValue        nonuniform List<scalar> 
100
(
299.9374
299.9649
299.9738
299.9716
299.9708
299.9711
299.9712
299.9712
299.9713
299.9713
299.9713
299.9714
299.9714
299.9715
299.9715
299.9715
299.9716
299.9716
299.9717
299.9717
299.9717
299.9718
299.9718
299.9718
299.9719
299.9719
299.972
299.972
299.972
299.9721
299.9721
299.9722
299.9722
299.9722
299.9723
299.9723
299.9724
299.9724
299.9724
299.9725
299.9725
299.9726
299.9726
299.9726
299.9727
299.9727
299.9728
299.9728
299.9728
299.9729
299.9729
299.9729
299.973
299.973
299.9731
299.9731
299.9731
299.9732
299.9732
299.9733
299.9733
299.9733
299.9734
299.9734
299.9734
299.9735
299.9735
299.9736
299.9736
299.9736
299.9737
299.9737
299.9738
299.9738
299.9738
299.9739
299.9739
299.9739
299.974
299.974
299.9741
299.9741
299.9741
299.9742
299.9742
299.9743
299.9743
299.9743
299.9744
299.9744
299.9744
299.9745
299.9745
299.9745
299.9746
299.9746
299.9747
299.9747
299.9747
299.9747
)
;
        refGradient     uniform 0;
        valueFraction   nonuniform List<scalar> 
100
(
0.9988347
0.9988347
0.9988347
0.9988347
0.9988347
0.9988347
0.9988347
0.9988347
0.9988347
0.9988347
0.9988347
0.9988347
0.9988347
0.9988347
0.9988347
0.9988347
0.9988347
0.9988347
0.9988347
0.9988347
0.9988347
0.9988347
0.9988347
0.9988347
0.9988347
0.9988347
0.9988347
0.9988347
0.9988347
0.9988347
0.9988347
0.9988347
0.9988347
0.9988347
0.9988347
0.9988347
0.9988347
0.9988347
0.9988347
0.9988347
0.9988347
0.9988347
0.9988347
0.9988347
0.9988347
0.9988347
0.9988347
0.9988347
0.9988347
0.9988347
0.9988347
0.9988347
0.9988347
0.9988347
0.9988347
0.9988347
0.9988347
0.9988347
0.9988347
0.9988347
0.9988347
0.9988347
0.9988347
0.9988347
0.9988347
0.9988347
0.9988347
0.9988347
0.9988347
0.9988347
0.9988347
0.9988347
0.9988347
0.9988347
0.9988347
0.9988347
0.9988347
0.9988347
0.9988347
0.9988347
0.9988347
0.9988347
0.9988347
0.9988347
0.9988347
0.9988347
0.9988347
0.9988347
0.9988347
0.9988347
0.9988347
0.9988347
0.9988347
0.9988347
0.9988347
0.9988347
0.9988347
0.9988347
0.9988347
0.9988347
)
;
        value           nonuniform List<scalar> 
100
(
299.9636
299.9912
300.0001
299.9979
299.997
299.9973
299.9975
299.9975
299.9975
299.9975
299.9976
299.9976
299.9977
299.9977
299.9977
299.9978
299.9978
299.9979
299.9979
299.9979
299.998
299.998
299.9981
299.9981
299.9981
299.9982
299.9982
299.9983
299.9983
299.9983
299.9984
299.9984
299.9984
299.9985
299.9985
299.9986
299.9986
299.9986
299.9987
299.9987
299.9988
299.9988
299.9988
299.9989
299.9989
299.999
299.999
299.999
299.9991
299.9991
299.9992
299.9992
299.9992
299.9993
299.9993
299.9993
299.9994
299.9994
299.9995
299.9995
299.9995
299.9996
299.9996
299.9997
299.9997
299.9997
299.9998
299.9998
299.9998
299.9999
299.9999
300
300
300
300.0001
300.0001
300.0002
300.0002
300.0002
300.0003
300.0003
300.0003
300.0004
300.0004
300.0005
300.0005
300.0005
300.0006
300.0006
300.0006
300.0007
300.0007
300.0008
300.0008
300.0008
300.0009
300.0009
300.0009
300.001
300.001
)
;
        Tnbr            T;
        thicknessLayers 0();
        kappaLayers     0();
        kappa           solidThermo;
        kappaName       none;
    }
}


// ************************************************************************* //
