/*--------------------------------*- C++ -*----------------------------------*\
| =========                 |                                                 |
| \\      /  F ield         | OpenFOAM: The Open Source CFD Toolbox           |
|  \\    /   O peration     | Version:  2.3.0                                 |
|   \\  /    A nd           | Web:      www.OpenFOAM.org                      |
|    \\/     M anipulation  |                                                 |
\*---------------------------------------------------------------------------*/
FoamFile
{
    version     2.0;
    format      ascii;
    class       volVectorField;
    location    "10000/topAir";
    object      U;
}
// * * * * * * * * * * * * * * * * * * * * * * * * * * * * * * * * * * * * * //

dimensions      [0 1 -1 0 0 0 0];

internalField   nonuniform List<vector> 
4000
(
(18.25934 0.008448804 0)
(13.68136 0.00891209 0)
(11.82489 0.00763674 0)
(12.31361 0.007417807 0)
(12.49977 0.007467236 0)
(12.44497 0.007479214 0)
(12.42356 0.007495707 0)
(12.42677 0.007527829 0)
(12.42623 0.007562705 0)
(12.42311 0.007595381 0)
(12.42035 0.007625428 0)
(12.4178 0.007652681 0)
(12.41519 0.007677047 0)
(12.41251 0.007698664 0)
(12.40982 0.007717758 0)
(12.40711 0.00773457 0)
(12.40438 0.007749326 0)
(12.40164 0.007762236 0)
(12.39888 0.00777349 0)
(12.39611 0.007783255 0)
(12.39334 0.007791682 0)
(12.39055 0.007798901 0)
(12.38775 0.007805027 0)
(12.38494 0.007810162 0)
(12.38213 0.007814396 0)
(12.37932 0.007817809 0)
(12.37649 0.007820472 0)
(12.37366 0.007822447 0)
(12.37083 0.007823791 0)
(12.368 0.007824553 0)
(12.36516 0.00782478 0)
(12.36231 0.007824512 0)
(12.35947 0.007823785 0)
(12.35662 0.007822633 0)
(12.35377 0.007821084 0)
(12.35091 0.007819167 0)
(12.34806 0.007816906 0)
(12.3452 0.007814323 0)
(12.34234 0.007811438 0)
(12.33948 0.007808271 0)
(12.33662 0.007804838 0)
(12.33376 0.007801154 0)
(12.3309 0.007797233 0)
(12.32804 0.007793089 0)
(12.32517 0.007788733 0)
(12.32231 0.007784176 0)
(12.31944 0.007779427 0)
(12.31658 0.007774495 0)
(12.31371 0.007769387 0)
(12.31085 0.007764112 0)
(12.30798 0.007758674 0)
(12.30512 0.00775308 0)
(12.30225 0.007747335 0)
(12.29939 0.007741442 0)
(12.29653 0.007735404 0)
(12.29367 0.007729226 0)
(12.2908 0.007722907 0)
(12.28794 0.00771645 0)
(12.28508 0.007709855 0)
(12.28223 0.007703122 0)
(12.27937 0.007696249 0)
(12.27651 0.007689236 0)
(12.27366 0.007682078 0)
(12.27081 0.007674772 0)
(12.26796 0.007667313 0)
(12.26511 0.007659695 0)
(12.26227 0.00765191 0)
(12.25943 0.007643949 0)
(12.25659 0.007635801 0)
(12.25376 0.007627453 0)
(12.25093 0.007618891 0)
(12.2481 0.007610097 0)
(12.24528 0.007601048 0)
(12.24246 0.007591722 0)
(12.23965 0.007582089 0)
(12.23685 0.007572115 0)
(12.23405 0.007561759 0)
(12.23127 0.007550973 0)
(12.22849 0.007539701 0)
(12.22572 0.007527871 0)
(12.22296 0.007515401 0)
(12.22021 0.007502187 0)
(12.21748 0.007488102 0)
(12.21477 0.007472989 0)
(12.21207 0.007456645 0)
(12.2094 0.007438815 0)
(12.20675 0.007419162 0)
(12.20413 0.007397241 0)
(12.20154 0.00737244 0)
(12.199 0.007343902 0)
(12.1965 0.007310376 0)
(12.19407 0.007269947 0)
(12.19171 0.007219531 0)
(12.18946 0.007153801 0)
(12.18734 0.007063059 0)
(12.18541 0.00692764 0)
(12.18378 0.0067091 0)
(12.18258 0.006308524 0)
(12.18236 0.005568145 0)
(12.18287 0.00376003 0)
(18.27241 0.00699505 0)
(13.69542 0.008790674 0)
(11.84562 0.00802076 0)
(12.337 0.00799548 0)
(12.52578 0.00825268 0)
(12.4743 0.008404121 0)
(12.45608 0.0085009 0)
(12.46235 0.008585056 0)
(12.46488 0.008653836 0)
(12.46482 0.00870688 0)
(12.46512 0.008748114 0)
(12.46564 0.008780461 0)
(12.46608 0.008805775 0)
(12.46646 0.008825515 0)
(12.46683 0.00884084 0)
(12.46717 0.008852642 0)
(12.46749 0.008861605 0)
(12.4678 0.008868262 0)
(12.46809 0.008873034 0)
(12.46836 0.008876253 0)
(12.46862 0.008878185 0)
(12.46887 0.008879044 0)
(12.46911 0.008879004 0)
(12.46934 0.008878206 0)
(12.46957 0.008876768 0)
(12.46978 0.008874786 0)
(12.46998 0.008872342 0)
(12.47018 0.008869501 0)
(12.47037 0.008866322 0)
(12.47056 0.008862851 0)
(12.47074 0.00885913 0)
(12.47091 0.008855192 0)
(12.47108 0.008851068 0)
(12.47124 0.008846781 0)
(12.4714 0.008842354 0)
(12.47156 0.008837803 0)
(12.47171 0.008833145 0)
(12.47185 0.008828391 0)
(12.472 0.008823554 0)
(12.47213 0.008818641 0)
(12.47227 0.00881366 0)
(12.4724 0.008808617 0)
(12.47253 0.008803515 0)
(12.47266 0.00879836 0)
(12.47278 0.008793151 0)
(12.4729 0.008787891 0)
(12.47302 0.008782579 0)
(12.47313 0.008777214 0)
(12.47324 0.008771794 0)
(12.47335 0.008766316 0)
(12.47346 0.008760777 0)
(12.47357 0.00875517 0)
(12.47367 0.008749491 0)
(12.47377 0.008743732 0)
(12.47387 0.008737885 0)
(12.47397 0.00873194 0)
(12.47407 0.008725888 0)
(12.47417 0.008719716 0)
(12.47426 0.008713411 0)
(12.47435 0.008706957 0)
(12.47445 0.008700337 0)
(12.47454 0.008693534 0)
(12.47463 0.008686524 0)
(12.47472 0.008679285 0)
(12.47481 0.00867179 0)
(12.4749 0.008664008 0)
(12.475 0.008655906 0)
(12.47509 0.008647446 0)
(12.47518 0.008638584 0)
(12.47528 0.008629272 0)
(12.47537 0.008619454 0)
(12.47547 0.008609066 0)
(12.47557 0.008598036 0)
(12.47567 0.00858628 0)
(12.47578 0.008573701 0)
(12.47589 0.008560186 0)
(12.476 0.008545603 0)
(12.47612 0.008529798 0)
(12.47625 0.008512585 0)
(12.47638 0.008493745 0)
(12.47653 0.008473014 0)
(12.47668 0.008450071 0)
(12.47684 0.00842452 0)
(12.47702 0.008395872 0)
(12.47721 0.008363512 0)
(12.47742 0.008326654 0)
(12.47766 0.008284282 0)
(12.47791 0.008235054 0)
(12.4782 0.008177163 0)
(12.47852 0.008108114 0)
(12.47888 0.008024373 0)
(12.4793 0.007920762 0)
(12.47978 0.007789435 0)
(12.48034 0.007617973 0)
(12.48101 0.007386 0)
(12.4818 0.007057634 0)
(12.48275 0.006570602 0)
(12.48387 0.00579203 0)
(12.4851 0.004524793 0)
(12.4864 0.002029393 0)
(18.26647 0.0002216643 0)
(13.6894 0.002928278 0)
(11.83778 0.004151141 0)
(12.32928 0.004811482 0)
(12.51811 0.005387338 0)
(12.46649 0.005808142 0)
(12.4482 0.006107333 0)
(12.45447 0.006340273 0)
(12.457 0.006527977 0)
(12.45697 0.006680858 0)
(12.4573 0.006807817 0)
(12.45785 0.006915233 0)
(12.45833 0.007007363 0)
(12.45876 0.00708727 0)
(12.45917 0.007157257 0)
(12.45956 0.00721907 0)
(12.45994 0.007274057 0)
(12.46031 0.007323275 0)
(12.46066 0.00736757 0)
(12.461 0.007407624 0)
(12.46133 0.007443998 0)
(12.46165 0.007477155 0)
(12.46196 0.007507481 0)
(12.46226 0.007535305 0)
(12.46256 0.007560901 0)
(12.46285 0.007584509 0)
(12.46314 0.007606331 0)
(12.46342 0.007626543 0)
(12.4637 0.007645301 0)
(12.46397 0.007662737 0)
(12.46424 0.007678969 0)
(12.46451 0.007694102 0)
(12.46477 0.007708226 0)
(12.46503 0.007721422 0)
(12.46529 0.007733763 0)
(12.46555 0.007745311 0)
(12.4658 0.007756125 0)
(12.46606 0.007766254 0)
(12.46631 0.007775743 0)
(12.46655 0.007784633 0)
(12.4668 0.007792959 0)
(12.46705 0.007800753 0)
(12.46729 0.007808042 0)
(12.46754 0.007814851 0)
(12.46778 0.007821202 0)
(12.46802 0.007827112 0)
(12.46827 0.007832597 0)
(12.46851 0.00783767 0)
(12.46875 0.007842342 0)
(12.46899 0.00784662 0)
(12.46923 0.007850511 0)
(12.46947 0.007854017 0)
(12.46972 0.00785714 0)
(12.46996 0.007859878 0)
(12.4702 0.007862227 0)
(12.47044 0.007864182 0)
(12.47068 0.007865732 0)
(12.47093 0.007866866 0)
(12.47117 0.007867571 0)
(12.47142 0.007867827 0)
(12.47166 0.007867614 0)
(12.47191 0.007866907 0)
(12.47216 0.007865678 0)
(12.47241 0.007863891 0)
(12.47266 0.00786151 0)
(12.47291 0.007858489 0)
(12.47317 0.007854778 0)
(12.47343 0.00785032 0)
(12.47369 0.007845046 0)
(12.47395 0.007838883 0)
(12.47422 0.007831742 0)
(12.47449 0.007823522 0)
(12.47477 0.007814109 0)
(12.47505 0.007803369 0)
(12.47533 0.007791146 0)
(12.47562 0.00777726 0)
(12.47592 0.0077615 0)
(12.47622 0.007743614 0)
(12.47653 0.007723308 0)
(12.47685 0.007700229 0)
(12.47718 0.007673953 0)
(12.47752 0.007643966 0)
(12.47787 0.007609638 0)
(12.47824 0.007570192 0)
(12.47862 0.007524655 0)
(12.47902 0.007471798 0)
(12.47944 0.007410041 0)
(12.47989 0.007337323 0)
(12.48036 0.007250914 0)
(12.48086 0.007147124 0)
(12.48141 0.007020869 0)
(12.48199 0.006864992 0)
(12.48263 0.006669211 0)
(12.48333 0.006418447 0)
(12.4841 0.00609029 0)
(12.48495 0.005650941 0)
(12.48588 0.005050638 0)
(12.48689 0.004215608 0)
(12.48787 0.003056082 0)
(12.48879 0.001478149 0)
(18.26889 0.002248628 0)
(13.69143 0.004426947 0)
(11.83864 0.005406582 0)
(12.32966 0.005906161 0)
(12.51834 0.006355866 0)
(12.46657 0.006718376 0)
(12.44818 0.006988264 0)
(12.45437 0.007201741 0)
(12.45685 0.007376806 0)
(12.45677 0.007520904 0)
(12.45707 0.007640383 0)
(12.45759 0.007740451 0)
(12.45804 0.007824877 0)
(12.45845 0.007896502 0)
(12.45884 0.007957568 0)
(12.45922 0.008009854 0)
(12.45958 0.008054779 0)
(12.45993 0.008093491 0)
(12.46027 0.008126923 0)
(12.46059 0.008155844 0)
(12.46091 0.008180886 0)
(12.46122 0.008202579 0)
(12.46152 0.008221365 0)
(12.46181 0.008237616 0)
(12.4621 0.008251648 0)
(12.46239 0.00826373 0)
(12.46266 0.008274093 0)
(12.46294 0.008282933 0)
(12.46321 0.008290421 0)
(12.46347 0.008296705 0)
(12.46373 0.008301913 0)
(12.46399 0.008306156 0)
(12.46425 0.008309531 0)
(12.4645 0.008312123 0)
(12.46476 0.008314006 0)
(12.46501 0.008315246 0)
(12.46525 0.0083159 0)
(12.4655 0.008316016 0)
(12.46574 0.00831564 0)
(12.46599 0.008314807 0)
(12.46623 0.008313552 0)
(12.46647 0.008311902 0)
(12.46671 0.008309881 0)
(12.46695 0.00830751 0)
(12.46719 0.008304804 0)
(12.46743 0.008301777 0)
(12.46767 0.00829844 0)
(12.4679 0.0082948 0)
(12.46814 0.00829086 0)
(12.46838 0.008286622 0)
(12.46862 0.008282086 0)
(12.46885 0.008277247 0)
(12.46909 0.008272099 0)
(12.46933 0.008266631 0)
(12.46957 0.008260832 0)
(12.46981 0.008254686 0)
(12.47005 0.008248175 0)
(12.47029 0.008241275 0)
(12.47053 0.008233963 0)
(12.47077 0.008226206 0)
(12.47101 0.008217972 0)
(12.47126 0.008209222 0)
(12.47151 0.008199912 0)
(12.47175 0.00818999 0)
(12.472 0.008179402 0)
(12.47226 0.008168082 0)
(12.47251 0.008155958 0)
(12.47277 0.008142949 0)
(12.47302 0.008128959 0)
(12.47329 0.008113885 0)
(12.47355 0.008097605 0)
(12.47382 0.008079982 0)
(12.4741 0.008060857 0)
(12.47437 0.008040049 0)
(12.47466 0.008017349 0)
(12.47494 0.007992513 0)
(12.47524 0.007965258 0)
(12.47554 0.007935252 0)
(12.47585 0.007902103 0)
(12.47617 0.007865347 0)
(12.47649 0.007824428 0)
(12.47683 0.007778677 0)
(12.47718 0.007727282 0)
(12.47754 0.007669248 0)
(12.47791 0.007603342 0)
(12.47831 0.007528023 0)
(12.47872 0.00744134 0)
(12.47915 0.007340794 0)
(12.47961 0.00722314 0)
(12.48009 0.007084113 0)
(12.48061 0.006918021 0)
(12.48116 0.006717178 0)
(12.48175 0.006471073 0)
(12.48238 0.006165203 0)
(12.48306 0.005779511 0)
(12.48377 0.005286329 0)
(12.48452 0.004648631 0)
(12.48526 0.003818999 0)
(12.4859 0.002745755 0)
(12.48645 0.001403841 0)
(18.26884 0.001191063 0)
(13.6912 0.002453369 0)
(11.838 0.003238764 0)
(12.32897 0.003793636 0)
(12.51765 0.004307722 0)
(12.46585 0.004747099 0)
(12.44741 0.005100161 0)
(12.45357 0.005390706 0)
(12.45603 0.005634653 0)
(12.45594 0.005840301 0)
(12.45622 0.006014762 0)
(12.45673 0.006164119 0)
(12.45717 0.006293041 0)
(12.45757 0.006405133 0)
(12.45796 0.006503255 0)
(12.45834 0.006589689 0)
(12.4587 0.006666261 0)
(12.45905 0.006734446 0)
(12.45938 0.006795446 0)
(12.45971 0.006850248 0)
(12.46003 0.00689967 0)
(12.46034 0.006944393 0)
(12.46064 0.006984991 0)
(12.46093 0.007021946 0)
(12.46122 0.007055671 0)
(12.46151 0.007086518 0)
(12.46178 0.007114791 0)
(12.46206 0.007140753 0)
(12.46233 0.007164631 0)
(12.4626 0.007186624 0)
(12.46286 0.007206906 0)
(12.46312 0.007225629 0)
(12.46338 0.007242928 0)
(12.46363 0.007258921 0)
(12.46389 0.007273715 0)
(12.46414 0.0072874 0)
(12.46439 0.007300059 0)
(12.46463 0.007311766 0)
(12.46488 0.007322584 0)
(12.46512 0.00733257 0)
(12.46537 0.007341774 0)
(12.46561 0.007350241 0)
(12.46585 0.007358008 0)
(12.46609 0.007365109 0)
(12.46633 0.007371572 0)
(12.46657 0.00737742 0)
(12.46681 0.007382675 0)
(12.46705 0.00738735 0)
(12.46729 0.007391457 0)
(12.46753 0.007395005 0)
(12.46776 0.007397998 0)
(12.468 0.007400435 0)
(12.46824 0.007402314 0)
(12.46848 0.007403627 0)
(12.46872 0.007404364 0)
(12.46896 0.007404508 0)
(12.4692 0.007404042 0)
(12.46944 0.007402941 0)
(12.46968 0.007401177 0)
(12.46992 0.007398715 0)
(12.47017 0.007395516 0)
(12.47041 0.007391535 0)
(12.47066 0.00738672 0)
(12.4709 0.007381011 0)
(12.47115 0.007374338 0)
(12.47141 0.007366626 0)
(12.47166 0.007357785 0)
(12.47192 0.007347716 0)
(12.47217 0.007336304 0)
(12.47244 0.007323419 0)
(12.4727 0.007308914 0)
(12.47297 0.007292618 0)
(12.47324 0.007274339 0)
(12.47352 0.007253854 0)
(12.4738 0.007230904 0)
(12.47408 0.007205194 0)
(12.47438 0.007176375 0)
(12.47468 0.007144045 0)
(12.47498 0.007107727 0)
(12.47529 0.007066861 0)
(12.47562 0.007020779 0)
(12.47595 0.006968682 0)
(12.47629 0.006909609 0)
(12.47664 0.006842389 0)
(12.47701 0.006765591 0)
(12.47739 0.006677447 0)
(12.47779 0.006575754 0)
(12.4782 0.006457743 0)
(12.47864 0.0063199 0)
(12.4791 0.00615773 0)
(12.47958 0.005965442 0)
(12.48009 0.005735536 0)
(12.48063 0.005458287 0)
(12.48119 0.00512114 0)
(12.48178 0.004708125 0)
(12.48238 0.004199583 0)
(12.48298 0.003572728 0)
(12.48355 0.002805264 0)
(12.48402 0.00187965 0)
(12.48441 0.0008168868 0)
(18.26984 0.001321325 0)
(13.69224 0.002620405 0)
(11.83879 0.003494233 0)
(12.32954 0.004143224 0)
(12.5181 0.004706849 0)
(12.46617 0.005179493 0)
(12.44763 0.005561834 0)
(12.45372 0.005876285 0)
(12.45611 0.006139409 0)
(12.45596 0.006360907 0)
(12.4562 0.006548491 0)
(12.45668 0.006708547 0)
(12.45709 0.006846014 0)
(12.45747 0.006964734 0)
(12.45783 0.007067767 0)
(12.45819 0.00715758 0)
(12.45853 0.007236167 0)
(12.45887 0.00730516 0)
(12.45919 0.007365905 0)
(12.45951 0.007419517 0)
(12.45981 0.007466931 0)
(12.46011 0.007508934 0)
(12.46041 0.00754619 0)
(12.46069 0.007579268 0)
(12.46098 0.007608651 0)
(12.46125 0.007634758 0)
(12.46153 0.007657949 0)
(12.4618 0.007678536 0)
(12.46206 0.00769679 0)
(12.46232 0.007712949 0)
(12.46258 0.00772722 0)
(12.46284 0.007739785 0)
(12.46309 0.007750804 0)
(12.46335 0.007760419 0)
(12.46359 0.007768753 0)
(12.46384 0.007775916 0)
(12.46409 0.007782005 0)
(12.46433 0.007787104 0)
(12.46458 0.007791289 0)
(12.46482 0.007794626 0)
(12.46506 0.007797172 0)
(12.4653 0.007798978 0)
(12.46554 0.007800086 0)
(12.46578 0.007800534 0)
(12.46601 0.007800354 0)
(12.46625 0.007799571 0)
(12.46649 0.007798206 0)
(12.46672 0.007796275 0)
(12.46696 0.007793789 0)
(12.4672 0.007790755 0)
(12.46743 0.007787176 0)
(12.46767 0.007783049 0)
(12.46791 0.007778367 0)
(12.46814 0.007773121 0)
(12.46838 0.007767293 0)
(12.46862 0.007760865 0)
(12.46886 0.00775381 0)
(12.4691 0.007746098 0)
(12.46934 0.007737692 0)
(12.46958 0.00772855 0)
(12.46982 0.007718624 0)
(12.47006 0.007707857 0)
(12.47031 0.007696184 0)
(12.47055 0.007683534 0)
(12.4708 0.007669823 0)
(12.47105 0.007654958 0)
(12.4713 0.007638833 0)
(12.47156 0.007621329 0)
(12.47181 0.007602308 0)
(12.47207 0.007581618 0)
(12.47233 0.007559082 0)
(12.4726 0.007534503 0)
(12.47287 0.007507652 0)
(12.47314 0.007478269 0)
(12.47342 0.007446054 0)
(12.4737 0.007410663 0)
(12.47399 0.007371698 0)
(12.47428 0.007328693 0)
(12.47458 0.007281108 0)
(12.47489 0.007228306 0)
(12.47521 0.007169537 0)
(12.47553 0.007103912 0)
(12.47586 0.007030365 0)
(12.47621 0.006947622 0)
(12.47656 0.006854137 0)
(12.47693 0.006748033 0)
(12.47731 0.00662701 0)
(12.47771 0.006488235 0)
(12.47812 0.006328203 0)
(12.47855 0.006142556 0)
(12.479 0.005925871 0)
(12.47947 0.005671404 0)
(12.47995 0.005370826 0)
(12.48045 0.005013992 0)
(12.48095 0.004588865 0)
(12.48145 0.004081889 0)
(12.48194 0.003479014 0)
(12.48238 0.002769209 0)
(12.48272 0.001946579 0)
(12.483 0.001034319 0)
(18.27007 0.0009945781 0)
(13.69235 0.001967952 0)
(11.83862 0.002623494 0)
(12.32926 0.003140159 0)
(12.51776 0.003612895 0)
(12.46578 0.004027922 0)
(12.44718 0.004379607 0)
(12.45323 0.004680441 0)
(12.45559 0.004940403 0)
(12.45542 0.005165479 0)
(12.45564 0.005360856 0)
(12.4561 0.005531204 0)
(12.45651 0.005680385 0)
(12.45687 0.005811569 0)
(12.45723 0.005927391 0)
(12.45758 0.006030053 0)
(12.45792 0.006121388 0)
(12.45825 0.006202931 0)
(12.45857 0.006275971 0)
(12.45888 0.006341594 0)
(12.45919 0.00640072 0)
(12.45949 0.006454131 0)
(12.45978 0.006502495 0)
(12.46007 0.006546382 0)
(12.46035 0.006586287 0)
(12.46063 0.006622635 0)
(12.4609 0.006655795 0)
(12.46117 0.006686089 0)
(12.46144 0.006713797 0)
(12.4617 0.006739166 0)
(12.46196 0.006762411 0)
(12.46222 0.006783722 0)
(12.46247 0.006803268 0)
(12.46273 0.006821196 0)
(12.46298 0.006837637 0)
(12.46322 0.006852708 0)
(12.46347 0.00686651 0)
(12.46372 0.006879136 0)
(12.46396 0.006890663 0)
(12.4642 0.006901165 0)
(12.46445 0.006910701 0)
(12.46469 0.006919326 0)
(12.46493 0.006927087 0)
(12.46517 0.006934024 0)
(12.4654 0.006940171 0)
(12.46564 0.006945556 0)
(12.46588 0.006950202 0)
(12.46612 0.006954125 0)
(12.46635 0.006957337 0)
(12.46659 0.006959847 0)
(12.46683 0.006961656 0)
(12.46707 0.006962761 0)
(12.4673 0.006963154 0)
(12.46754 0.006962824 0)
(12.46778 0.006961751 0)
(12.46802 0.006959913 0)
(12.46825 0.006957281 0)
(12.46849 0.00695382 0)
(12.46873 0.006949488 0)
(12.46898 0.006944237 0)
(12.46922 0.006938011 0)
(12.46946 0.006930746 0)
(12.4697 0.00692237 0)
(12.46995 0.006912799 0)
(12.4702 0.00690194 0)
(12.47045 0.006889686 0)
(12.4707 0.006875916 0)
(12.47095 0.006860496 0)
(12.47121 0.006843271 0)
(12.47146 0.006824067 0)
(12.47173 0.006802686 0)
(12.47199 0.006778905 0)
(12.47226 0.006752467 0)
(12.47253 0.006723082 0)
(12.4728 0.006690416 0)
(12.47308 0.006654085 0)
(12.47337 0.006613649 0)
(12.47366 0.006568596 0)
(12.47395 0.006518336 0)
(12.47425 0.006462175 0)
(12.47456 0.006399307 0)
(12.47488 0.006328777 0)
(12.4752 0.006249463 0)
(12.47554 0.006160026 0)
(12.47588 0.006058875 0)
(12.47624 0.005944099 0)
(12.4766 0.005813405 0)
(12.47698 0.005664024 0)
(12.47737 0.005492616 0)
(12.47777 0.005295147 0)
(12.47818 0.005066768 0)
(12.47861 0.004801697 0)
(12.47904 0.004493137 0)
(12.47948 0.00413331 0)
(12.47992 0.003713692 0)
(12.48034 0.003225691 0)
(12.48074 0.002661804 0)
(12.48109 0.002018539 0)
(12.48136 0.001297267 0)
(12.48157 0.0005197466 0)
(18.27064 0.0009727228 0)
(13.69293 0.001882632 0)
(11.83909 0.002530082 0)
(12.32964 0.003082154 0)
(12.5181 0.003596483 0)
(12.46605 0.004053617 0)
(12.44739 0.004447803 0)
(12.45339 0.004788958 0)
(12.45571 0.005085658 0)
(12.45549 0.005343753 0)
(12.45568 0.005568569 0)
(12.45611 0.005764983 0)
(12.45648 0.00593713 0)
(12.45683 0.006088469 0)
(12.45716 0.006221915 0)
(12.4575 0.006339927 0)
(12.45782 0.006444572 0)
(12.45813 0.006537599 0)
(12.45844 0.006620484 0)
(12.45874 0.006694484 0)
(12.45904 0.00676067 0)
(12.45933 0.006819961 0)
(12.45961 0.006873145 0)
(12.45989 0.006920903 0)
(12.46017 0.006963825 0)
(12.46044 0.007002423 0)
(12.4607 0.007037146 0)
(12.46097 0.007068384 0)
(12.46123 0.00709648 0)
(12.46149 0.007121737 0)
(12.46174 0.00714442 0)
(12.462 0.007164766 0)
(12.46225 0.007182981 0)
(12.46249 0.007199251 0)
(12.46274 0.007213739 0)
(12.46299 0.00722659 0)
(12.46323 0.007237933 0)
(12.46347 0.007247881 0)
(12.46371 0.007256536 0)
(12.46395 0.007263987 0)
(12.46419 0.007270312 0)
(12.46443 0.007275581 0)
(12.46467 0.007279852 0)
(12.46491 0.007283178 0)
(12.46514 0.007285603 0)
(12.46538 0.007287163 0)
(12.46561 0.007287888 0)
(12.46585 0.007287802 0)
(12.46608 0.007286923 0)
(12.46632 0.007285262 0)
(12.46655 0.007282824 0)
(12.46679 0.007279609 0)
(12.46702 0.007275611 0)
(12.46726 0.007270817 0)
(12.4675 0.007265211 0)
(12.46773 0.007258767 0)
(12.46797 0.007251454 0)
(12.46821 0.007243234 0)
(12.46845 0.007234063 0)
(12.46868 0.007223888 0)
(12.46892 0.007212647 0)
(12.46917 0.00720027 0)
(12.46941 0.007186676 0)
(12.46965 0.007171774 0)
(12.4699 0.00715546 0)
(12.47014 0.007137616 0)
(12.47039 0.007118111 0)
(12.47064 0.007096793 0)
(12.4709 0.007073495 0)
(12.47115 0.007048025 0)
(12.47141 0.007020166 0)
(12.47167 0.006989675 0)
(12.47193 0.006956272 0)
(12.4722 0.006919643 0)
(12.47247 0.006879426 0)
(12.47275 0.006835211 0)
(12.47303 0.006786525 0)
(12.47331 0.006732826 0)
(12.4736 0.006673489 0)
(12.47389 0.006607788 0)
(12.47419 0.006534885 0)
(12.4745 0.006453798 0)
(12.47482 0.006363383 0)
(12.47514 0.006262296 0)
(12.47547 0.006148958 0)
(12.47581 0.006021508 0)
(12.47616 0.00587775 0)
(12.47651 0.005715093 0)
(12.47688 0.005530489 0)
(12.47725 0.005320361 0)
(12.47763 0.005080557 0)
(12.47802 0.004806321 0)
(12.4784 0.004492326 0)
(12.47879 0.00413283 0)
(12.47917 0.003722004 0)
(12.47953 0.003254599 0)
(12.47986 0.002726891 0)
(12.48014 0.002138739 0)
(12.48035 0.001493699 0)
(12.48052 0.000809356 0)
(18.27095 0.0008193908 0)
(13.69317 0.001584578 0)
(11.83917 0.002124009 0)
(12.32966 0.002589596 0)
(12.51806 0.003027832 0)
(12.46596 0.003421343 0)
(12.44724 0.003765359 0)
(12.45319 0.004067473 0)
(12.45548 0.004333914 0)
(12.45523 0.004568806 0)
(12.45539 0.00477602 0)
(12.4558 0.004959202 0)
(12.45616 0.005121514 0)
(12.45648 0.005265664 0)
(12.45681 0.005393989 0)
(12.45713 0.005508501 0)
(12.45745 0.005610928 0)
(12.45775 0.005702754 0)
(12.45806 0.005785257 0)
(12.45835 0.005859535 0)
(12.45864 0.005926538 0)
(12.45893 0.005987088 0)
(12.45921 0.006041897 0)
(12.45949 0.006091585 0)
(12.45976 0.006136691 0)
(12.46003 0.006177687 0)
(12.4603 0.006214986 0)
(12.46056 0.006248952 0)
(12.46082 0.006279904 0)
(12.46108 0.006308122 0)
(12.46133 0.006333857 0)
(12.46159 0.006357327 0)
(12.46184 0.006378728 0)
(12.46208 0.006398232 0)
(12.46233 0.006415993 0)
(12.46258 0.006432145 0)
(12.46282 0.006446811 0)
(12.46306 0.006460095 0)
(12.46331 0.006472092 0)
(12.46355 0.006482885 0)
(12.46379 0.006492546 0)
(12.46402 0.006501139 0)
(12.46426 0.006508719 0)
(12.4645 0.006515331 0)
(12.46474 0.006521015 0)
(12.46497 0.006525803 0)
(12.46521 0.006529721 0)
(12.46544 0.006532788 0)
(12.46568 0.006535016 0)
(12.46592 0.006536413 0)
(12.46615 0.006536978 0)
(12.46639 0.006536708 0)
(12.46662 0.00653559 0)
(12.46686 0.006533608 0)
(12.46709 0.006530738 0)
(12.46733 0.00652695 0)
(12.46757 0.006522206 0)
(12.4678 0.006516463 0)
(12.46804 0.006509669 0)
(12.46828 0.006501763 0)
(12.46852 0.006492676 0)
(12.46876 0.006482329 0)
(12.469 0.006470633 0)
(12.46925 0.006457486 0)
(12.46949 0.006442774 0)
(12.46974 0.006426368 0)
(12.46999 0.006408122 0)
(12.47023 0.006387875 0)
(12.47049 0.006365442 0)
(12.47074 0.006340617 0)
(12.471 0.006313167 0)
(12.47125 0.00628283 0)
(12.47151 0.006249309 0)
(12.47178 0.006212269 0)
(12.47205 0.006171327 0)
(12.47232 0.006126053 0)
(12.47259 0.006075951 0)
(12.47287 0.006020459 0)
(12.47316 0.005958932 0)
(12.47344 0.005890629 0)
(12.47374 0.005814697 0)
(12.47404 0.005730153 0)
(12.47434 0.005635862 0)
(12.47465 0.005530508 0)
(12.47497 0.005412566 0)
(12.47529 0.005280271 0)
(12.47562 0.005131579 0)
(12.47596 0.00496413 0)
(12.4763 0.004775214 0)
(12.47665 0.004561751 0)
(12.477 0.00432028 0)
(12.47735 0.004046997 0)
(12.4777 0.003737854 0)
(12.47804 0.00338876 0)
(12.47837 0.002995929 0)
(12.47868 0.002556462 0)
(12.47895 0.002069063 0)
(12.47919 0.001535454 0)
(12.47936 0.0009601006 0)
(12.47949 0.0003570805 0)
(18.27134 0.0007682434 0)
(13.69354 0.001470171 0)
(11.83946 0.001976132 0)
(12.32991 0.00243223 0)
(12.51829 0.002872656 0)
(12.46615 0.003277602 0)
(12.4474 0.003640519 0)
(12.45331 0.003966005 0)
(12.45557 0.004257991 0)
(12.45529 0.004519181 0)
(12.45542 0.004752491 0)
(12.45581 0.004960925 0)
(12.45615 0.00514725 0)
(12.45646 0.005313958 0)
(12.45677 0.005463285 0)
(12.45707 0.005597218 0)
(12.45737 0.005717509 0)
(12.45767 0.005825699 0)
(12.45796 0.005923136 0)
(12.45824 0.006011002 0)
(12.45853 0.006090332 0)
(12.4588 0.006162033 0)
(12.45908 0.0062269 0)
(12.45935 0.006285635 0)
(12.45961 0.006338851 0)
(12.45988 0.006387092 0)
(12.46014 0.006430839 0)
(12.46039 0.006470515 0)
(12.46065 0.006506497 0)
(12.4609 0.006539119 0)
(12.46115 0.006568679 0)
(12.4614 0.006595442 0)
(12.46165 0.006619643 0)
(12.46189 0.006641492 0)
(12.46214 0.006661178 0)
(12.46238 0.006678869 0)
(12.46262 0.006694712 0)
(12.46286 0.006708843 0)
(12.4631 0.006721379 0)
(12.46334 0.006732424 0)
(12.46357 0.006742073 0)
(12.46381 0.006750407 0)
(12.46404 0.006757497 0)
(12.46428 0.006763404 0)
(12.46451 0.006768183 0)
(12.46475 0.006771877 0)
(12.46498 0.006774523 0)
(12.46522 0.006776151 0)
(12.46545 0.006776781 0)
(12.46568 0.006776428 0)
(12.46592 0.006775101 0)
(12.46615 0.006772798 0)
(12.46638 0.006769515 0)
(12.46662 0.006765238 0)
(12.46685 0.006759947 0)
(12.46709 0.006753612 0)
(12.46732 0.0067462 0)
(12.46756 0.006737666 0)
(12.46779 0.006727957 0)
(12.46803 0.006717014 0)
(12.46827 0.006704763 0)
(12.46851 0.006691125 0)
(12.46875 0.006676006 0)
(12.46899 0.006659299 0)
(12.46923 0.006640886 0)
(12.46947 0.006620631 0)
(12.46972 0.006598383 0)
(12.46996 0.00657397 0)
(12.47021 0.006547201 0)
(12.47046 0.00651786 0)
(12.47072 0.006485705 0)
(12.47097 0.006450461 0)
(12.47123 0.006411821 0)
(12.47149 0.006369438 0)
(12.47175 0.00632292 0)
(12.47202 0.006271824 0)
(12.47229 0.006215646 0)
(12.47256 0.006153818 0)
(12.47284 0.00608569 0)
(12.47312 0.006010524 0)
(12.4734 0.005927478 0)
(12.47369 0.005835591 0)
(12.47398 0.005733766 0)
(12.47428 0.005620747 0)
(12.47459 0.005495104 0)
(12.47489 0.005355204 0)
(12.47521 0.005199195 0)
(12.47552 0.005024987 0)
(12.47584 0.004830238 0)
(12.47616 0.004612363 0)
(12.47648 0.004368557 0)
(12.4768 0.004095864 0)
(12.47712 0.003791297 0)
(12.47742 0.003452044 0)
(12.47771 0.003075775 0)
(12.47797 0.002661094 0)
(12.4782 0.002208045 0)
(12.4784 0.001719045 0)
(12.47854 0.001198453 0)
(12.47865 0.000657385 0)
(18.27163 0.0006813631 0)
(13.69379 0.001300851 0)
(11.83962 0.001745798 0)
(12.33002 0.002150002 0)
(12.51837 0.002541742 0)
(12.46618 0.002902794 0)
(12.44739 0.003227537 0)
(12.45327 0.003519924 0)
(12.45549 0.003783202 0)
(12.45519 0.004019575 0)
(12.45529 0.004231466 0)
(12.45565 0.004421397 0)
(12.45597 0.004591707 0)
(12.45626 0.004744521 0)
(12.45655 0.004881758 0)
(12.45685 0.00500514 0)
(12.45714 0.005116195 0)
(12.45742 0.005216278 0)
(12.4577 0.005306583 0)
(12.45798 0.005388162 0)
(12.45826 0.005461945 0)
(12.45853 0.005528747 0)
(12.4588 0.00558929 0)
(12.45906 0.00564421 0)
(12.45933 0.005694067 0)
(12.45959 0.00573936 0)
(12.45984 0.005780527 0)
(12.4601 0.005817957 0)
(12.46035 0.005851998 0)
(12.4606 0.005882956 0)
(12.46085 0.005911104 0)
(12.4611 0.005936686 0)
(12.46134 0.005959919 0)
(12.46159 0.005980995 0)
(12.46183 0.006000086 0)
(12.46207 0.006017345 0)
(12.46231 0.006032908 0)
(12.46255 0.006046895 0)
(12.46279 0.006059414 0)
(12.46303 0.006070559 0)
(12.46327 0.006080412 0)
(12.4635 0.006089045 0)
(12.46374 0.006096521 0)
(12.46397 0.006102893 0)
(12.46421 0.006108205 0)
(12.46444 0.006112495 0)
(12.46468 0.006115791 0)
(12.46491 0.006118114 0)
(12.46514 0.006119479 0)
(12.46538 0.006119894 0)
(12.46561 0.006119359 0)
(12.46584 0.006117867 0)
(12.46608 0.006115406 0)
(12.46631 0.006111955 0)
(12.46655 0.006107486 0)
(12.46678 0.006101965 0)
(12.46701 0.006095349 0)
(12.46725 0.006087586 0)
(12.46749 0.006078618 0)
(12.46772 0.006068375 0)
(12.46796 0.006056778 0)
(12.4682 0.006043737 0)
(12.46844 0.006029151 0)
(12.46868 0.006012905 0)
(12.46892 0.00599487 0)
(12.46916 0.005974902 0)
(12.4694 0.005952841 0)
(12.46965 0.005928504 0)
(12.46989 0.00590169 0)
(12.47014 0.005872172 0)
(12.47039 0.005839698 0)
(12.47064 0.005803984 0)
(12.4709 0.005764713 0)
(12.47115 0.005721528 0)
(12.47141 0.00567403 0)
(12.47167 0.005621769 0)
(12.47194 0.005564239 0)
(12.47221 0.00550087 0)
(12.47248 0.005431019 0)
(12.47275 0.005353961 0)
(12.47303 0.005268878 0)
(12.47331 0.005174843 0)
(12.47359 0.005070815 0)
(12.47388 0.004955615 0)
(12.47417 0.004827922 0)
(12.47446 0.004686255 0)
(12.47476 0.004528965 0)
(12.47506 0.00435423 0)
(12.47535 0.004160064 0)
(12.47565 0.003944335 0)
(12.47595 0.003704815 0)
(12.47624 0.003439252 0)
(12.47652 0.003145501 0)
(12.47679 0.002821709 0)
(12.47704 0.002466564 0)
(12.47727 0.002079642 0)
(12.47748 0.001661754 0)
(12.47764 0.001215548 0)
(12.47776 0.0007450462 0)
(12.47786 0.0002591 0)
(18.27193 0.0006310946 0)
(13.69406 0.001198454 0)
(11.83983 0.001609978 0)
(12.3302 0.001992259 0)
(12.51854 0.002368791 0)
(12.46633 0.002721897 0)
(12.44751 0.003045721 0)
(12.45337 0.003342743 0)
(12.45557 0.003614825 0)
(12.45524 0.003863077 0)
(12.45533 0.004088995 0)
(12.45567 0.004294327 0)
(12.45597 0.004480806 0)
(12.45625 0.004650093 0)
(12.45653 0.00480376 0)
(12.45681 0.004943275 0)
(12.45708 0.005069988 0)
(12.45736 0.005185129 0)
(12.45763 0.005289813 0)
(12.4579 0.005385046 0)
(12.45817 0.005471731 0)
(12.45843 0.005550682 0)
(12.45869 0.005622625 0)
(12.45895 0.005688213 0)
(12.45921 0.005748029 0)
(12.45946 0.005802596 0)
(12.45972 0.005852382 0)
(12.45997 0.005897808 0)
(12.46021 0.00593925 0)
(12.46046 0.005977045 0)
(12.46071 0.006011498 0)
(12.46095 0.00604288 0)
(12.46119 0.006071437 0)
(12.46143 0.006097387 0)
(12.46167 0.006120929 0)
(12.46191 0.006142239 0)
(12.46215 0.006161477 0)
(12.46239 0.006178784 0)
(12.46262 0.006194287 0)
(12.46286 0.006208101 0)
(12.46309 0.006220324 0)
(12.46333 0.006231046 0)
(12.46356 0.006240344 0)
(12.46379 0.006248286 0)
(12.46403 0.00625493 0)
(12.46426 0.006260323 0)
(12.46449 0.006264507 0)
(12.46472 0.006267513 0)
(12.46495 0.006269365 0)
(12.46519 0.006270078 0)
(12.46542 0.006269661 0)
(12.46565 0.006268115 0)
(12.46588 0.006265431 0)
(12.46611 0.006261596 0)
(12.46635 0.006256586 0)
(12.46658 0.00625037 0)
(12.46681 0.00624291 0)
(12.46704 0.006234155 0)
(12.46728 0.00622405 0)
(12.46751 0.006212525 0)
(12.46775 0.006199503 0)
(12.46798 0.006184895 0)
(12.46822 0.006168598 0)
(12.46846 0.006150496 0)
(12.4687 0.00613046 0)
(12.46894 0.006108345 0)
(12.46918 0.006083985 0)
(12.46942 0.006057199 0)
(12.46966 0.006027781 0)
(12.46991 0.005995502 0)
(12.47015 0.005960109 0)
(12.4704 0.005921314 0)
(12.47065 0.0058788 0)
(12.4709 0.00583221 0)
(12.47116 0.005781147 0)