/*--------------------------------*- C++ -*----------------------------------*\
| =========                 |                                                 |
| \\      /  F ield         | OpenFOAM: The Open Source CFD Toolbox           |
|  \\    /   O peration     | Version:  2.3.0                                 |
|   \\  /    A nd           | Web:      www.OpenFOAM.org                      |
|    \\/     M anipulation  |                                                 |
\*---------------------------------------------------------------------------*/
FoamFile
{
    version     2.0;
    format      ascii;
    class       surfaceScalarField;
    location    "9700/topAir";
    object      phi;
}
// * * * * * * * * * * * * * * * * * * * * * * * * * * * * * * * * * * * * * //

dimensions      [1 0 -1 0 0 0 0];

internalField   nonuniform List<scalar> 
7860
(
0.009381135
4.801551e-06
0.009376905
4.232335e-06
0.009373533
3.37459e-06
0.009370078
3.456796e-06
0.00936648
3.599945e-06
0.009362838
3.643073e-06
0.009359166
3.671692e-06
0.009355463
3.703696e-06
0.009351732
3.730788e-06
0.00934798
3.752173e-06
0.00934421
3.76974e-06
0.009340425
3.784402e-06
0.009336629
3.796625e-06
0.009332822
3.806848e-06
0.009329006
3.815441e-06
0.009325183
3.822689e-06
0.009321354
3.828815e-06
0.00931752
3.833996e-06
0.009313681
3.838379e-06
0.009309839
3.84208e-06
0.009305993
3.845194e-06
0.009302145
3.847802e-06
0.009298295
3.84997e-06
0.009294443
3.851752e-06
0.00929059
3.853195e-06
0.009286735
3.854339e-06
0.00928288
3.855218e-06
0.009279024
3.855861e-06
0.009275167
3.856292e-06
0.009271311
3.856535e-06
0.009267454
3.856606e-06
0.009263597
3.856523e-06
0.009259741
3.856301e-06
0.009255885
3.855951e-06
0.009252029
3.855485e-06
0.009248174
3.854913e-06
0.00924432
3.854243e-06
0.009240466
3.853482e-06
0.009236614
3.852637e-06
0.009232762
3.851715e-06
0.009228911
3.850719e-06
0.009225061
3.849655e-06
0.009221213
3.848526e-06
0.009217365
3.847335e-06
0.009213519
3.846085e-06
0.009209674
3.844778e-06
0.009205831
3.843417e-06
0.009201989
3.842001e-06
0.009198148
3.840533e-06
0.009194309
3.839013e-06
0.009190472
3.837441e-06
0.009186636
3.835817e-06
0.009182802
3.834139e-06
0.009178969
3.832407e-06
0.009175138
3.83062e-06
0.00917131
3.828776e-06
0.009167483
3.826871e-06
0.009163658
3.824905e-06
0.009159835
3.822871e-06
0.009156014
3.820768e-06
0.009152195
3.818591e-06
0.009148379
3.816334e-06
0.009144565
3.81399e-06
0.009140753
3.811555e-06
0.009136944
3.809019e-06
0.009133138
3.806374e-06
0.009129334
3.80361e-06
0.009125534
3.800715e-06
0.009121736
3.797677e-06
0.009117941
3.794481e-06
0.00911415
3.79111e-06
0.009110363
3.787544e-06
0.009106579
3.783762e-06
0.009102799
3.779738e-06
0.009099024
3.775442e-06
0.009095253
3.770839e-06
0.009091487
3.765888e-06
0.009087726
3.760543e-06
0.009083972
3.754746e-06
0.009080223
3.748428e-06
0.009076482
3.741509e-06
0.009072748
3.733889e-06
0.009069022
3.725445e-06
0.009065306
3.716024e-06
0.009061601
3.705437e-06
0.009057907
3.693437e-06
0.009054228
3.679706e-06
0.009050564
3.663824e-06
0.009046918
3.645219e-06
0.009043295
3.623097e-06
0.009039699
3.596315e-06
0.009036136
3.563172e-06
0.009032615
3.521014e-06
0.009029149
3.465473e-06
0.00902576
3.389035e-06
0.009022483
3.277522e-06
0.009019378
3.10497e-06
0.009016568
2.809422e-06
0.009014269
2.299466e-06
1.158665e-06
0.009391007
6.638145e-07
0.009392559
2.682371e-06
0.009393043
2.893174e-06
0.009393544
2.95815e-06
0.009394008
3.138187e-06
0.009394384
3.267179e-06
0.009394703
3.353522e-06
0.009394983
3.424265e-06
0.009395231
3.482746e-06
0.009395453
3.530201e-06
0.009395653
3.569397e-06
0.009395835
3.602356e-06
0.009396001
3.630358e-06
0.009396153
3.654362e-06
0.009396293
3.675127e-06
0.009396422
3.69323e-06
0.009396542
3.709121e-06
0.009396652
3.723158e-06
0.009396755
3.735624e-06
0.00939685
3.74675e-06
0.009396938
3.756723e-06
0.00939702
3.765701e-06
0.009397096
3.77381e-06
0.009397166
3.781161e-06
0.009397232
3.787842e-06
0.009397292
3.793933e-06
0.009397347
3.799499e-06
0.009397399
3.804598e-06
0.009397445
3.809277e-06
0.009397488
3.81358e-06
0.009397527
3.817544e-06
0.009397562
3.8212e-06
0.009397594
3.824577e-06
0.009397622
3.8277e-06
0.009397647
3.830591e-06
0.009397668
3.833267e-06
0.009397687
3.835747e-06
0.009397702
3.838045e-06
0.009397714
3.840173e-06
0.009397724
3.842144e-06
0.009397731
3.843967e-06
0.009397735
3.845651e-06
0.009397736
3.847203e-06
0.009397734
3.848629e-06
0.009397731
3.849935e-06
0.009397724
3.851125e-06
0.009397715
3.852203e-06
0.009397704
3.853171e-06
0.00939769
3.854031e-06
0.009397675
3.854783e-06
0.009397657
3.855429e-06
0.009397636
3.855968e-06
0.009397614
3.856398e-06
0.00939759
3.856717e-06
0.009397563
3.856922e-06
0.009397535
3.85701e-06
0.009397505
3.856975e-06
0.009397473
3.856812e-06
0.009397439
3.856514e-06
0.009397404
3.856073e-06
0.009397367
3.855481e-06
0.009397329
3.854726e-06
0.009397289
3.853796e-06
0.009397248
3.852679e-06
0.009397205
3.851359e-06
0.009397162
3.849818e-06
0.009397117
3.848036e-06
0.009397072
3.845991e-06
0.009397026
3.843656e-06
0.009396979
3.841003e-06
0.009396933
3.837999e-06
0.009396885
3.834603e-06
0.009396838
3.830774e-06
0.009396792
3.826459e-06
0.009396746
3.8216e-06
0.0093967
3.816127e-06
0.009396656
3.809962e-06
0.009396614
3.803009e-06
0.009396573
3.795156e-06
0.009396535
3.786269e-06
0.009396501
3.776189e-06
0.00939647
3.764719e-06
0.009396444
3.75162e-06
0.009396423
3.736598e-06
0.009396409
3.71928e-06
0.009396403
3.699196e-06
0.009396407
3.675737e-06
0.009396423
3.648107e-06
0.009396453
3.615243e-06
0.0093965
3.575691e-06
0.009396569
3.527428e-06
0.009396665
3.467555e-06
0.009396794
3.391811e-06
0.009396966
3.293748e-06
0.009397191
3.163375e-06
0.009397484
2.984565e-06
0.009397858
2.731642e-06
0.009398308
2.358681e-06
0.009398806
1.801528e-06
8.962749e-07
0.009388131
9.681209e-07
0.009388942
1.873435e-06
0.009389561
2.276511e-06
0.009390024
2.498088e-06
0.009390437
2.726419e-06
0.009390801
2.90421e-06
0.009391124
3.031338e-06
0.009391416
3.131825e-06
0.009391685
3.214303e-06
0.009391933
3.281983e-06
0.009392164
3.338201e-06
0.009392381
3.385612e-06
0.009392585
3.426023e-06
0.009392778
3.460764e-06
0.009392962
3.490871e-06
0.009393138
3.517148e-06
0.009393307
3.540225e-06
0.009393469
3.560606e-06
0.009393626
3.578695e-06
0.009393777
3.594822e-06
0.009393925
3.609258e-06
0.009394068
3.622228e-06
0.009394208
3.633919e-06
0.009394344
3.644488e-06
0.009394478
3.65407e-06
0.009394609
3.662778e-06
0.009394737
3.670709e-06
0.009394864
3.677948e-06
0.009394988
3.684567e-06
0.009395111
3.690628e-06
0.009395232
3.696187e-06
0.009395352
3.701291e-06
0.009395471
3.705983e-06
0.009395588
3.710298e-06
0.009395704
3.71427e-06
0.009395819
3.717926e-06
0.009395934
3.721293e-06
0.009396047
3.724391e-06
0.00939616
3.72724e-06
0.009396272
3.729857e-06
0.009396384
3.732257e-06
0.009396495
3.734453e-06
0.009396606
3.736455e-06
0.009396716
3.738274e-06
0.009396826
3.739917e-06
0.009396936
3.741391e-06
0.009397045
3.742702e-06
0.009397154
3.743852e-06
0.009397263
3.744845e-06
0.009397372
3.745683e-06
0.009397481
3.746365e-06
0.00939759
3.746892e-06
0.0093977
3.747261e-06
0.009397809
3.747469e-06
0.009397918
3.747512e-06
0.009398028
3.747384e-06
0.009398138
3.747078e-06
0.009398248
3.746587e-06
0.009398358
3.745899e-06
0.009398469
3.745004e-06
0.009398581
3.743889e-06
0.009398693
3.742538e-06
0.009398806
3.740933e-06
0.009398919
3.739056e-06
0.009399034
3.736883e-06
0.009399149
3.734388e-06
0.009399266
3.731543e-06
0.009399383
3.728315e-06
0.009399502
3.724666e-06
0.009399623
3.720553e-06
0.009399745
3.715929e-06
0.009399869
3.710736e-06
0.009399995
3.704912e-06
0.009400123
3.698382e-06
0.009400253
3.691062e-06
0.009400386
3.682852e-06
0.009400523
3.673636e-06
0.009400662
3.663281e-06
0.009400806
3.651624e-06
0.009400954
3.638475e-06
0.009401106
3.623607e-06
0.009401264
3.606744e-06
0.009401428
3.587549e-06
0.009401599
3.56561e-06
0.009401778
3.540412e-06
0.009401966
3.51131e-06
0.009402164
3.477479e-06
0.009402374
3.437856e-06
0.009402598
3.391044e-06
0.009402839
3.335184e-06
0.009403099
3.267753e-06
0.009403381
3.185272e-06
0.00940369
3.082856e-06
0.00940403
2.953546e-06
0.009404406
2.787328e-06
0.009404821
2.569661e-06
0.009405273
2.279984e-06
0.009405742
1.889398e-06
0.009406179
1.364366e-06
6.756074e-07
0.009389189
6.260016e-07
0.009389601
1.464185e-06
0.00938996
1.92016e-06
0.009390281
2.179189e-06
0.009390597
2.411494e-06
0.009390898
2.604077e-06
0.009391178
2.752378e-06
0.009391438
2.871919e-06
0.009391681
2.971273e-06
0.009391909
3.054183e-06
0.009392123
3.12391e-06
0.009392325
3.183191e-06
0.009392517
3.234034e-06
0.009392699
3.277956e-06
0.009392874
3.316156e-06
0.009393041
3.349584e-06
0.009393202
3.378997e-06
0.009393357
3.405005e-06
0.009393508
3.428105e-06
0.009393654
3.448707e-06
0.009393796
3.467147e-06
0.009393934
3.483707e-06
0.009394069
3.498624e-06
0.009394201
3.512096e-06
0.009394331
3.524294e-06
0.009394458
3.535362e-06
0.009394583
3.545425e-06
0.009394706
3.55459e-06
0.009394828
3.562951e-06
0.009394948
3.570588e-06
0.009395066
3.577572e-06
0.009395183
3.583965e-06
0.009395299
3.58982e-06
0.009395414
3.595185e-06
0.009395529
3.600103e-06
0.009395642
3.60461e-06
0.009395754
3.608738e-06
0.009395866
3.612517e-06
0.009395977
3.615971e-06
0.009396088
3.619122e-06
0.009396198
3.621989e-06
0.009396308
3.624591e-06
0.009396417
3.62694e-06
0.009396526
3.629049e-06
0.009396635
3.630929e-06
0.009396744
3.632588e-06
0.009396853
3.634033e-06
0.009396961
3.635269e-06
0.00939707
3.6363e-06
0.009397178
3.637128e-06
0.009397287
3.637754e-06
0.009397395
3.638176e-06
0.009397504
3.638391e-06
0.009397613
3.638397e-06
0.009397722
3.638187e-06
0.009397832
3.637754e-06
0.009397942
3.637089e-06
0.009398052
3.636181e-06
0.009398163
3.635018e-06
0.009398275
3.633583e-06
0.009398387
3.63186e-06
0.009398499
3.62983e-06
0.009398613
3.627469e-06
0.009398727
3.624751e-06
0.009398842
3.621647e-06
0.009398958
3.618125e-06
0.009399076
3.614145e-06
0.009399194
3.609666e-06
0.009399314
3.60464e-06
0.009399436
3.59901e-06
0.009399559
3.592713e-06
0.009399684
3.58568e-06
0.009399811
3.577825e-06
0.00939994
3.569057e-06
0.009400072
3.559264e-06
0.009400207
3.548322e-06
0.009400344
3.536082e-06
0.009400485
3.522373e-06
0.00940063
3.506992e-06
0.009400779
3.4897e-06
0.009400932
3.470211e-06
0.00940109
3.448182e-06
0.009401255
3.423199e-06
0.009401426
3.394754e-06
0.009401604
3.362227e-06
0.00940179
3.324842e-06
0.009401986
3.281628e-06
0.009402192
3.231351e-06
0.009402411
3.172429e-06
0.009402643
3.102811e-06
0.009402891
3.019806e-06
0.009403157
2.919857e-06
0.009403441
2.798228e-06
0.009403746
2.648597e-06
0.009404071
2.462566e-06
0.009404412
2.229154e-06
0.009404757
1.934566e-06
0.009405083
1.562922e-06
0.009405349
1.098501e-06
5.412658e-07
0.009389051
6.6126e-07
0.009389284
1.233314e-06
0.0093896
1.606956e-06
0.009389905
1.876404e-06
0.009390202
2.116469e-06
0.009390486
2.320644e-06
0.009390754
2.485311e-06
0.009391005
2.620901e-06
0.009391241
2.734882e-06
0.009391464
2.831152e-06
0.009391675
2.912929e-06
0.009391875
2.982967e-06
0.009392065
3.043391e-06
0.009392247
3.09585e-06
0.009392422
3.141658e-06
0.009392589
3.181874e-06
0.00939275
3.217354e-06
0.009392906
3.248793e-06
0.009393057
3.276764e-06
0.009393204
3.30174e-06
0.009393347
3.324115e-06
0.009393486
3.344221e-06
0.009393622
3.362336e-06
0.009393756
3.378698e-06
0.009393886
3.393508e-06
0.009394014
3.406941e-06
0.009394141
3.419146e-06
0.009394265
3.430252e-06
0.009394387
3.440372e-06
0.009394508
3.449604e-06
0.009394627
3.458033e-06
0.009394745
3.465736e-06
0.009394862
3.472777e-06
0.009394978
3.479215e-06
0.009395093
3.485102e-06
0.009395207
3.490481e-06
0.00939532
3.495394e-06
0.009395433
3.499876e-06
0.009395545
3.503956e-06
0.009395656
3.507663e-06
0.009395767
3.51102e-06
0.009395878
3.514047e-06
0.009395988
3.516764e-06
0.009396097
3.519184e-06
0.009396207
3.521321e-06
0.009396316
3.523185e-06
0.009396426
3.524785e-06
0.009396535
3.526128e-06
0.009396644
3.527217e-06
0.009396753
3.528056e-06
0.009396862
3.528646e-06
0.009396971
3.528984e-06
0.00939708
3.529068e-06
0.00939719
3.528894e-06
0.009397299
3.528454e-06
0.009397409
3.52774e-06
0.00939752
3.52674e-06
0.00939763
3.525442e-06
0.009397741
3.523829e-06
0.009397853
3.521884e-06
0.009397965
3.519585e-06
0.009398078
3.516909e-06
0.009398192
3.513827e-06
0.009398306
3.510307e-06
0.009398422
3.506316e-06
0.009398538
3.501812e-06
0.009398655
3.496749e-06
0.009398774
3.491076e-06
0.009398894
3.484734e-06
0.009399015
3.477657e-06
0.009399138
3.469768e-06
0.009399263
3.460982e-06
0.009399389
3.451199e-06
0.009399518
3.440307e-06
0.009399649
3.428176e-06
0.009399783
3.414655e-06
0.009399919
3.399571e-06
0.009400059
3.382719e-06
0.009400202
3.363863e-06
0.009400349
3.342723e-06
0.0094005
3.318968e-06
0.009400656
3.292203e-06
0.009400817
3.261954e-06
0.009400984
3.22765e-06
0.009401158
3.188596e-06
0.009401339
3.143939e-06
0.009401528
3.092625e-06
0.009401726
3.033345e-06
0.009401934
2.964455e-06
0.009402152
2.883885e-06
0.009402383
2.789006e-06
0.009402627
2.676483e-06
0.009402883
2.542084e-06
0.009403151
2.380485e-06
0.009403428
2.185118e-06
0.009403709
1.948182e-06
0.009403983
1.661017e-06
0.00940423
1.315764e-06
0.009404422
9.068493e-07
4.446178e-07
0.0093895
4.870143e-07
0.009389712
1.023239e-06
0.009389944
1.377407e-06
0.009390179
1.643537e-06
0.009390415
1.882503e-06
0.009390648
2.088819e-06
0.009390874
2.259979e-06
0.009391091
2.403739e-06
0.0093913
2.526219e-06
0.0093915
2.630986e-06
0.009391692
2.720985e-06
0.009391876
2.798773e-06
0.009392052
2.866393e-06
0.009392222
2.925474e-06
0.009392387
2.977339e-06
0.009392545
3.023073e-06
0.009392699
3.063567e-06
0.009392848
3.099557e-06
0.009392992
3.131655e-06
0.009393134
3.160372e-06
0.009393271
3.186139e-06
0.009393406
3.209321e-06
0.009393538
3.230226e-06
0.009393667
3.249119e-06
0.009393794
3.266228e-06
0.009393919
3.281747e-06
0.009394043
3.295847e-06
0.009394164
3.308674e-06
0.009394284
3.320356e-06
0.009394402
3.331007e-06
0.00939452
3.340723e-06
0.009394636
3.349592e-06
0.009394751
3.35769e-06
0.009394865
3.365084e-06
0.009394978
3.371832e-06
0.00939509
3.377988e-06
0.009395202
3.383597e-06
0.009395313
3.388701e-06
0.009395423
3.393334e-06
0.009395533
3.39753e-06
0.009395643
3.401315e-06
0.009395752
3.404713e-06
0.009395861
3.407746e-06
0.00939597
3.410431e-06
0.009396078
3.412784e-06
0.009396187
3.414815e-06
0.009396295
3.416537e-06
0.009396403
3.417955e-06
0.009396511
3.419076e-06
0.009396619
3.419901e-06
0.009396727
3.420433e-06
0.009396836
3.42067e-06
0.009396944
3.420609e-06
0.009397053
3.420242e-06
0.009397161
3.419564e-06
0.009397271
3.418562e-06
0.00939738
3.417225e-06
0.00939749
3.415537e-06
0.0093976
3.413479e-06
0.009397711
3.41103e-06
0.009397822
3.408166e-06
0.009397934
3.404858e-06
0.009398047
3.401075e-06
0.009398161
3.396778e-06
0.009398275
3.391928e-06
0.00939839
3.386477e-06
0.009398507
3.380373e-06
0.009398624
3.373554e-06
0.009398743
3.365955e-06
0.009398863
3.357497e-06
0.009398985
3.348093e-06
0.009399108
3.337645e-06
0.009399233
3.32604e-06
0.00939936
3.313148e-06
0.00939949
3.298821e-06
0.009399621
3.28289e-06
0.009399756
3.265157e-06
0.009399893
3.245396e-06
0.009400034
3.223341e-06
0.009400178
3.198681e-06
0.009400325
3.171052e-06
0.009400478
3.140023e-06
0.009400634
3.105083e-06
0.009400796
3.065621e-06
0.009400964
3.020901e-06
0.009401138
2.970038e-06
0.009401319
2.911957e-06
0.009401507
2.845346e-06
0.009401702
2.768603e-06
0.009401907
2.679762e-06
0.009402119
2.576418e-06
0.00940234
2.455638e-06
0.009402568
2.313882e-06
0.009402802
2.146961e-06
0.009403037
1.950072e-06
0.009403267
1.718058e-06
0.009403482
1.445914e-06
0.009403667
1.130291e-06
0.009403804
7.701578e-07
3.758931e-07
0.009389533
4.788034e-07
0.009389654
9.045348e-07
0.009389829
1.205621e-06
0.00939002
1.454785e-06
0.009390221
1.683052e-06
0.009390427
1.883857e-06
0.009390632
2.055114e-06
0.009390834
2.202204e-06
0.00939103
2.329592e-06
0.009391221
2.440098e-06
0.009391406
2.536183e-06
0.009391584
2.620062e-06
0.009391757
2.693582e-06
0.009391924
2.758264e-06
0.009392085
2.815379e-06
0.009392242
2.865991e-06
0.009392395
2.91099e-06
0.009392543
2.951125e-06
0.009392687
2.987025e-06
0.009392828
3.019225e-06
0.009392966
3.048178e-06
0.009393101
3.07427e-06
0.009393233
3.097835e-06
0.009393363
3.119157e-06
0.00939349
3.138483e-06
0.009393616
3.156025e-06
0.00939374
3.171971e-06
0.009393862
3.186483e-06
0.009393982
3.199701e-06
0.009394101
3.211751e-06
0.009394219
3.222743e-06
0.009394336
3.232772e-06
0.009394451
3.241923e-06
0.009394566
3.250274e-06
0.00939468
3.257888e-06
0.009394793
3.264827e-06
0.009394905
3.271142e-06
0.009395017
3.276879e-06
0.009395128
3.282078e-06
0.009395239
3.286776e-06
0.009395349
3.291004e-06
0.009395459
3.294789e-06
0.009395568
3.298155e-06
0.009395678
3.301123e-06
0.009395787
3.303709e-06
0.009395895
3.305927e-06
0.009396004
3.307789e-06
0.009396113
3.309304e-06
0.009396221
3.310477e-06
0.00939633
3.311313e-06
0.009396438
3.311811e-06
0.009396547
3.311971e-06
0.009396656
3.311789e-06
0.009396765
3.311258e-06
0.009396874
3.310369e-06
0.009396983
3.30911e-06
0.009397093
3.307468e-06
0.009397203
3.305423e-06
0.009397314
3.302957e-06
0.009397425
3.300044e-06
0.009397536
3.296656e-06
0.009397648
3.292762e-06
0.009397761
3.288326e-06
0.009397874
3.283306e-06
0.009397988
3.277656e-06
0.009398104
3.271322e-06
0.00939822
3.264246e-06
0.009398337
3.256361e-06
0.009398455
3.247591e-06
0.009398575
3.237849e-06
0.009398696
3.22704e-06
0.009398818
3.215052e-06
0.009398943
3.201762e-06
0.009399069
3.187027e-06
0.009399197
3.170685e-06
0.009399327
3.152549e-06
0.00939946
3.132407e-06
0.009399595
3.110011e-06
0.009399733
3.085077e-06
0.009399875
3.057274e-06
0.00940002
3.026216e-06
0.009400168
2.991451e-06
0.009400321
2.952448e-06
0.009400478
2.90858e-06
0.00940064
2.859105e-06
0.009400807
2.80314e-06
0.009400979
2.739636e-06
0.009401157
2.667336e-06
0.009401341
2.584746e-06
0.00940153
2.490083e-06
0.009401725
2.38124e-06
0.009401925
2.255749e-06
0.009402128
2.110769e-06
0.009402332
1.943133e-06
0.009402533
1.749477e-06
0.009402724
1.526555e-06
0.009402898
1.271726e-06
0.009403045
9.841186e-07
0.00940315
6.648565e-07
3.231261e-07
0.009389772
3.981615e-07
0.00938989
7.883748e-07
0.009390037
1.061537e-06
0.0093902
1.29332e-06
0.009390374
1.510678e-06
0.009390554
1.705409e-06
0.009390735
1.874836e-06
0.009390914
2.022822e-06
0.009391091
2.152684e-06
0.009391264
2.266636e-06
0.009391434
2.366723e-06
0.009391599
2.454856e-06
0.009391759
2.532678e-06
0.009391916
2.601585e-06
0.009392068
2.662767e-06
0.009392217
2.71724e-06
0.009392362
2.765871e-06
0.009392503
2.809397e-06
0.009392641
2.848447e-06
0.009392777
2.883563e-06
0.00939291
2.915207e-06
0.00939304
2.943778e-06
0.009393168
2.96962e-06
0.009393294
2.993033e-06
0.009393418
3.014276e-06
0.00939354
3.033575e-06
0.009393661
3.051128e-06
0.00939378
3.06711e-06
0.009393898
3.081671e-06
0.009394015
3.094947e-06
0.00939413
3.107055e-06
0.009394245
3.118101e-06
0.009394358
3.128178e-06
0.009394471
3.137366e-06
0.009394583
3.14574e-06
0.009394694
3.153363e-06
0.009394805
3.160294e-06
0.009394915
3.166582e-06
0.009395025
3.172272e-06
0.009395134
3.177404e-06
0.009395243
3.182012e-06
0.009395352
3.186127e-06
0.00939546
3.189775e-06
0.009395568
3.192978e-06
0.009395676
3.195755e-06
0.009395784
3.198122e-06
0.009395891
3.20009e-06
0.009395999
3.201671e-06
0.009396107
3.20287e-06
0.009396214
3.203692e-06
0.009396322
3.204137e-06
0.00939643
3.204204e-06
0.009396537
3.203888e-06
0.009396645
3.203183e-06
0.009396754
3.202078e-06
0.009396862
3.20056e-06
0.009396971
3.198613e-06
0.00939708
3.196218e-06
0.00939719
3.193352e-06
0.0093973
3.189988e-06
0.00939741
3.186096e-06
0.009397521
3.181639e-06
0.009397633
3.176579e-06
0.009397745
3.17087e-06
0.009397859
3.164461e-06
0.009397973
3.157294e-06
0.009398088
3.149304e-06
0.009398203
3.140417e-06
0.00939832
3.130552e-06
0.009398439
3.119614e-06
0.009398558
3.1075e-06
0.009398679
3.09409e-06
0.009398802
3.07925e-06
0.009398926
3.062827e-06
0.009399052
3.044648e-06
0.00939918
3.024515e-06
0.00939931
3.002203e-06
0.009399442
2.977452e-06
0.009399578
2.949967e-06
0.009399715
2.919403e-06
0.009399856
2.885365e-06
0.0094
2.847393e-06
0.009400148
2.804954e-06
0.009400299
2.757426e-06
0.009400454
2.704082e-06
0.009400613
2.644073e-06
0.009400776
2.576406e-06
0.009400944
2.499923e-06
0.009401115
2.413274e-06
0.00940129
2.314901e-06
0.009401468
2.203021e-06
0.009401648
2.075628e-06
0.009401829
1.930529e-06
0.009402006
1.765422e-06
0.009402178
1.578057e-06
0.009402338
1.36653e-06
0.00940248
1.129667e-06
0.009402596
8.678332e-07
0.009402678
5.828945e-07
2.821998e-07
0.009389864
3.740108e-07
0.009389945
7.092221e-07
0.009390059
9.505532e-07
0.00939019
1.164712e-06
0.009390334
1.36859e-06
0.009390486
1.553676e-06
0.009390644
1.717443e-06
0.009390804
1.862715e-06
0.009390965
1.991877e-06
0.009391125
2.10655e-06
0.009391283
2.208336e-06
0.009391439
2.298797e-06
0.009391592
2.379321e-06
0.009391743
2.451125e-06
0.00939189
2.515272e-06
0.009392034
2.572693e-06
0.009392176
2.624195e-06
0.009392314
2.67048e-06
0.00939245
2.712153e-06
0.009392584
2.749744e-06
0.009392715
2.783709e-06
0.009392844
2.814447e-06
0.009392972
2.842307e-06
0.009393097
2.867592e-06
0.00939322
2.890568e-06
0.009393342
2.911468e-06
0.009393463
2.930499e-06
0.009393582
2.94784e-06
0.0093937
2.963653e-06
0.009393816
2.978077e-06
0.009393932
2.991238e-06
0.009394047
3.003248e-06
0.009394161
3.014205e-06
0.009394274
3.024196e-06
0.009394386
3.0333e-06
0.009394498
3.041585e-06
0.009394609
3.049114e-06
0.009394719
3.05594e-06
0.009394829
3.062113e-06
0.009394939
3.067674e-06
0.009395048
3.07266e-06
0.009395157
3.077106e-06
0.009395266
3.081039e-06
0.009395374
3.084483e-06
0.009395483
3.08746e-06
0.009395591
3.089985e-06
0.009395699
3.092073e-06
0.009395806
3.093734e-06
0.009395914
3.094975e-06
0.009396022
3.095801e-06
0.00939613
3.096213e-06
0.009396238
3.096209e-06
0.009396346
3.095784e-06
0.009396454
3.094931e-06
0.009396563
3.093639e-06
0.009396671
3.091893e-06
0.00939678
3.089677e-06
0.009396889
3.086968e-06
0.009396999
3.083743e-06
0.009397109
3.079972e-06
0.009397219
3.075622e-06
0.00939733
3.070655e-06
0.009397442
3.065028e-06
0.009397554
3.058692e-06
0.009397667
3.051593e-06
0.00939778
3.043667e-06
0.009397895
3.034846e-06
0.00939801
3.025051e-06
0.009398126
3.014194e-06
0.009398244
3.002175e-06
0.009398362
2.988884e-06
0.009398482
2.974194e-06
0.009398604
2.957965e-06
0.009398726
2.940037e-06
0.009398851
2.920227e-06
0.009398977
2.898332e-06
0.009399105
2.874118e-06
0.009399235
2.84732e-06
0.009399367
2.817635e-06
0.009399502
2.784717e-06
0.009399639
2.74817e-06
0.009399779
2.707537e-06
0.009399922
2.662298e-06
0.009400067
2.611849e-06
0.009400216
2.555499e-06
0.009400367
2.492454e-06
0.009400522
2.421799e-06
0.009400679
2.342494e-06
0.009400839
2.253355e-06
0.009401001
2.153056e-06
0.009401164
2.040128e-06
0.009401327
1.912989e-06
0.009401487
1.76999e-06
0.009401643
1.609513e-06
0.009401791
1.430124e-06
0.009401927
1.230812e-06
0.009402045
1.011278e-06
0.00940214
7.724779e-07
0.009402207
5.164664e-07
2.491377e-07
0.009390015
3.294518e-07
0.009390091
6.351791e-07
0.00939019
8.541244e-07
0.009390306
1.051235e-06
0.009390434
1.241813e-06
0.009390571
1.417286e-06
0.009390714
1.574876e-06
0.009390861
1.71657e-06
0.009391008
1.844029e-06
0.009391157
1.958375e-06
0.009391304
2.060821e-06
0.00939145
2.15262e-06
0.009391594
2.234928e-06
0.009391736
2.308789e-06
0.009391876
2.375144e-06
0.009392014
2.434834e-06
0.009392149
2.488603e-06
0.009392282
2.537106e-06
0.009392413
2.580923e-06
0.009392542
2.620562e-06
0.009392669
2.656469e-06
0.009392794
2.689037e-06
0.009392918
2.718611e-06
0.00939304
2.745498e-06
0.00939316
2.769964e-06
0.009393279
2.792247e-06
0.009393397
2.812558e-06
0.009393514
2.831081e-06
0.009393629
2.847983e-06
0.009393744
2.863409e-06
0.009393857
2.877491e-06
0.00939397
2.890343e-06
0.009394082
2.90207e-06
0.009394193
2.912763e-06
0.009394304
2.922504e-06
0.009394414
2.931367e-06
0.009394524
2.939417e-06
0.009394633
2.946711e-06
0.009394742
2.953301e-06
0.00939485
2.959232e-06
0.009394958
2.964544e-06
0.009395066
2.969272e-06
0.009395173
2.973446e-06
0.009395281
2.977092e-06
0.009395388
2.980231e-06
0.009395495
2.982884e-06
0.009395602
2.985063e-06
0.009395709
2.98678e-06
0.009395815
2.988043e-06
0.009395922
2.988856e-06
0.009396029
2.989221e-06
0.009396136
2.989136e-06
0.009396243
2.988595e-06
0.009396351
2.987591e-06
0.009396458
2.986112e-06
0.009396566
2.984143e-06
0.009396674
2.981665e-06
0.009396782
2.978655e-06
0.009396891
2.975088e-06
0.009397
2.970931e-06
0.009397109
2.966151e-06
0.009397219
2.960706e-06
0.00939733
2.954551e-06
0.009397441
2.947634e-06
0.009397552
2.939896e-06
0.009397665
2.931273e-06
0.009397778
2.92169e-06
0.009397892
2.911066e-06
0.009398007
2.899307e-06
0.009398122
2.886311e-06
0.009398239
2.871961e-06
0.009398357
2.856127e-06
0.009398477
2.838662e-06
0.009398597
2.819402e-06
0.009398719
2.798161e-06
0.009398843
2.774731e-06
0.009398968
2.748876e-06
0.009399095
2.720328e-06
0.009399224
2.688786e-06
0.009399355
2.653906e-06
0.009399487
2.615301e-06
0.009399622
2.572528e-06
0.00939976
2.525087e-06
0.009399899
2.472408e-06
0.009400041
2.413847e-06
0.009400184
2.348674e-06
0.00940033
2.276071e-06
0.009400477
2.195119e-06
0.009400626
2.104807e-06
0.009400775
2.004028e-06
0.009400924
1.891604e-06
0.00940107
1.766315e-06
0.009401213
1.626958e-06
0.00940135
1.472439e-06
0.009401478
1.301904e-06
0.009401594
1.114925e-06
0.009401694
9.116972e-07
0.009401773
6.933997e-07
0.009401827
4.61985e-07
2.221112e-07
0.009390112
3.053243e-07
0.009390171
5.778415e-07
0.009390252
7.754255e-07
0.009390349
9.574407e-07
0.009390457
1.135242e-06
0.009390574
1.300569e-06
0.009390699
1.450785e-06
0.009390828
1.587347e-06
0.009390961
1.711412e-06
0.009391096
1.823741e-06
0.009391231
1.925237e-06
0.009391367
2.016888e-06
0.009391502
2.099635e-06
0.009391636
2.174358e-06
0.009391769
2.241865e-06
0.009391901
2.302899e-06
0.009392031
2.358126e-06
0.009392159
2.408146e-06
0.009392287
2.453496e-06
0.009392412
2.494653e-06
0.009392537
2.532041e-06
0.009392659
2.566038e-06
0.009392781
2.59698e-06
0.009392901
2.625166e-06
0.00939302
2.650859e-06
0.009393138
2.674297e-06
0.009393254
2.695688e-06
0.00939337
2.715221e-06
0.009393485
2.733061e-06
0.009393599
2.749358e-06
0.009393712
2.764245e-06
0.009393824
2.77784e-06
0.009393936
2.79025e-06
0.009394047
2.80157e-06
0.009394157
2.811885e-06
0.009394267
2.82127e-06
0.009394377
2.829794e-06
0.009394486
2.837516e-06
0.009394595
2.844489e-06
0.009394703
2.850762e-06
0.009394811
2.856376e-06
0.009394919
2.861368e-06
0.009395027
2.865769e-06
0.009395134
2.869607e-06
0.009395241
2.872905e-06
0.009395348
2.875681e-06
0.009395456
2.877952e-06
0.009395563
2.879729e-06
0.009395669
2.881021e-06
0.009395776
2.881832e-06
0.009395883
2.882163e-06
0.009395991
2.882013e-06
0.009396098
2.881376e-06
0.009396205
2.880244e-06
0.009396312
2.878604e-06
0.00939642
2.87644e-06
0.009396528
2.873733e-06
0.009396636
2.870458e-06
0.009396745
2.866589e-06
0.009396853
2.862092e-06
0.009396963
2.856931e-06
0.009397072
2.851063e-06
0.009397182
2.84444e-06
0.009397293
2.837008e-06
0.009397404
2.828706e-06
0.009397516
2.819467e-06
0.009397628
2.809213e-06
0.009397741
2.797859e-06
0.009397855
2.785311e-06
0.00939797
2.77146e-06
0.009398086
2.756189e-06
0.009398203
2.739364e-06
0.009398321
2.720835e-06
0.009398439
2.700436e-06
0.00939856
2.677981e-06
0.009398681
2.65326e-06
0.009398804
2.626037e-06
0.009398928
2.596049e-06
0.009399054
2.562999e-06
0.009399181
2.526555e-06
0.00939931
2.486341e-06
0.009399441
2.441937e-06
0.009399573
2.392871e-06
0.009399707
2.338615e-06
0.009399842
2.278578e-06
0.009399978
2.212105e-06
0.009400116
2.138472e-06
0.009400254
2.056888e-06
0.009400393
1.966502e-06
0.00940053
1.86641e-06
0.009400666
1.755685e-06
0.009400799
1.633407e-06
0.009400927
1.498725e-06
0.009401049
1.350934e-06
0.009401161
1.18958e-06
0.009401261
1.014602e-06
0.009401346
8.264604e-07
0.009401413
6.26377e-07
0.009401459
4.161185e-07
1.994274e-07
0.009390222
2.762884e-07
0.009390276
5.256133e-07
0.009390348
7.060926e-07
0.009390434
8.73926e-07
0.009390532
1.039409e-06
0.009390638
1.194743e-06
0.009390752
1.337358e-06
0.009390872
1.46831e-06
0.009390995
1.588381e-06
0.00939112
1.698033e-06
0.009391247
1.797902e-06
0.009391375
1.888741e-06
0.009391503
1.971297e-06
0.009391631
2.046292e-06
0.009391759
2.114409e-06
0.009391885
2.17629e-06
0.00939201
2.232527e-06
0.009392134
2.283658e-06
0.009392258
2.330174e-06
0.009392379
2.37252e-06
0.0093925
2.411094e-06
0.00939262
2.446255e-06
0.009392738
2.478326e-06
0.009392856
2.507596e-06
0.009392972
2.534323e-06
0.009393087
2.55874e-06
0.009393202
2.581054e-06
0.009393315
2.601453e-06
0.009393428
2.620102e-06
0.00939354
2.637152e-06
0.009393652
2.652738e-06
0.009393762
2.666979e-06
0.009393873
2.679984e-06
0.009393982
2.691851e-06
0.009394091
2.702665e-06
0.0093942
2.712506e-06
0.009394308
2.721442e-06
0.009394416
2.729536e-06
0.009394524
2.736843e-06
0.009394631
2.743413e-06
0.009394738
2.749288e-06
0.009394845
2.754506e-06
0.009394951
2.759102e-06
0.009395058
2.763102e-06
0.009395164
2.766532e-06
0.00939527
2.769411e-06
0.009395376
2.771755e-06
0.009395482
2.773577e-06
0.009395588
2.774885e-06
0.009395695
2.775685e-06
0.009395801
2.775977e-06
0.009395907
2.77576e-06
0.009396013
2.775028e-06
0.00939612
2.773772e-06
0.009396226
2.771979e-06
0.009396333
2.769633e-06
0.00939644
2.766713e-06
0.009396547
2.763195e-06
0.009396655
2.759049e-06
0.009396762
2.754241e-06
0.009396871
2.748735e-06
0.009396979
2.742484e-06
0.009397088
2.735441e-06
0.009397198
2.727549e-06
0.009397308
2.718745e-06
0.009397418
2.708959e-06
0.009397529
2.698113e-06
0.009397641
2.68612e-06
0.009397753
2.672882e-06
0.009397866
2.658291e-06
0.00939798
2.642227e-06
0.009398095
2.624554e-06
0.009398211
2.605123e-06
0.009398327
2.583768e-06
0.009398445
2.560303e-06
0.009398564
2.53452e-06
0.009398684
2.506189e-06
0.009398805
2.475054e-06
0.009398927
2.440826e-06
0.00939905
2.403188e-06
0.009399175