/*--------------------------------*- C++ -*----------------------------------*\
| =========                 |                                                 |
| \\      /  F ield         | OpenFOAM: The Open Source CFD Toolbox           |
|  \\    /   O peration     | Version:  2.3.0                                 |
|   \\  /    A nd           | Web:      www.OpenFOAM.org                      |
|    \\/     M anipulation  |                                                 |
\*---------------------------------------------------------------------------*/
FoamFile
{
    version     2.0;
    format      ascii;
    class       volVectorField;
    location    "9700/topAir";
    object      U;
}
// * * * * * * * * * * * * * * * * * * * * * * * * * * * * * * * * * * * * * //

dimensions      [0 1 -1 0 0 0 0];

internalField   nonuniform List<vector> 
4000
(
(11.89549 0.003208364 0)
(8.905159 0.003382835 0)
(7.697675 0.002828198 0)
(8.015801 0.002774102 0)
(8.135076 0.002828165 0)
(8.097943 0.002847803 0)
(8.082822 0.002863946 0)
(8.08368 0.002885708 0)
(8.08208 0.002907139 0)
(8.078821 0.002926324 0)
(8.075813 0.002943588 0)
(8.072958 0.002959116 0)
(8.070062 0.002972992 0)
(8.067139 0.00298537 0)
(8.064211 0.002996418 0)
(8.061278 0.00300629 0)
(8.058338 0.00301512 0)
(8.055393 0.003023027 0)
(8.052444 0.003030114 0)
(8.049491 0.00303647 0)
(8.046535 0.003042173 0)
(8.043576 0.00304729 0)
(8.040615 0.00305188 0)
(8.037652 0.003055993 0)
(8.034687 0.003059676 0)
(8.031721 0.003062967 0)
(8.028754 0.0030659 0)
(8.025785 0.003068508 0)
(8.022817 0.003070816 0)
(8.019847 0.003072849 0)
(8.016877 0.003074629 0)
(8.013907 0.003076175 0)
(8.010937 0.003077505 0)
(8.007967 0.003078635 0)
(8.004997 0.003079578 0)
(8.002027 0.003080347 0)
(7.999058 0.003080954 0)
(7.996089 0.003081409 0)
(7.99312 0.003081723 0)
(7.990152 0.003081902 0)
(7.987184 0.003081956 0)
(7.984217 0.003081892 0)
(7.981251 0.003081715 0)
(7.978286 0.003081433 0)
(7.975321 0.00308105 0)
(7.972357 0.00308057 0)
(7.969394 0.00308 0)
(7.966432 0.003079342 0)
(7.963471 0.0030786 0)
(7.960511 0.003077777 0)
(7.957552 0.003076877 0)
(7.954595 0.003075901 0)
(7.951638 0.003074852 0)
(7.948683 0.003073732 0)
(7.945729 0.003072542 0)
(7.942776 0.003071284 0)
(7.939824 0.003069958 0)
(7.936875 0.003068565 0)
(7.933926 0.003067105 0)
(7.930979 0.003065578 0)
(7.928034 0.003063984 0)
(7.92509 0.003062323 0)
(7.922148 0.003060592 0)
(7.919208 0.00305879 0)
(7.91627 0.003056916 0)
(7.913334 0.003054966 0)
(7.9104 0.003052937 0)
(7.907468 0.003050826 0)
(7.904538 0.003048628 0)
(7.901611 0.003046338 0)
(7.898686 0.003043949 0)
(7.895765 0.003041454 0)
(7.892846 0.003038845 0)
(7.88993 0.00303611 0)
(7.887018 0.003033238 0)
(7.884109 0.003030216 0)
(7.881204 0.003027025 0)
(7.878303 0.003023647 0)
(7.875407 0.003020057 0)
(7.872516 0.003016226 0)
(7.86963 0.00301212 0)
(7.866751 0.003007697 0)
(7.863878 0.003002904 0)
(7.861012 0.002997675 0)
(7.858155 0.002991927 0)
(7.855307 0.002985555 0)
(7.852471 0.00297842 0)
(7.849646 0.002970335 0)
(7.846837 0.002961049 0)
(7.844044 0.002950204 0)
(7.841272 0.002937277 0)
(7.838526 0.002921468 0)
(7.835811 0.002901483 0)
(7.833138 0.00287509 0)
(7.83052 0.002838229 0)
(7.827978 0.002782733 0)
(7.825557 0.002692696 0)
(7.823308 0.00252792 0)
(7.821452 0.002224121 0)
(7.819891 0.001492886 0)
(11.90294 0.002776859 0)
(8.915188 0.003680337 0)
(7.711981 0.003310788 0)
(8.033017 0.003270656 0)
(8.155213 0.003381712 0)
(8.121241 0.003440281 0)
(8.10924 0.003472081 0)
(8.113168 0.003500998 0)
(8.114638 0.00352496 0)
(8.114452 0.003542952 0)
(8.114513 0.003556633 0)
(8.114723 0.003567201 0)
(8.114889 0.003575314 0)
(8.115027 0.003581495 0)
(8.115156 0.003586166 0)
(8.115278 0.003589649 0)
(8.11539 0.003592188 0)
(8.115495 0.003593971 0)
(8.115593 0.003595146 0)
(8.115684 0.003595829 0)
(8.115769 0.003596111 0)
(8.115849 0.003596066 0)
(8.115924 0.003595752 0)
(8.115994 0.003595218 0)
(8.11606 0.003594501 0)
(8.116122 0.003593634 0)
(8.116179 0.003592644 0)
(8.116233 0.00359155 0)
(8.116284 0.003590372 0)
(8.116331 0.003589125 0)
(8.116375 0.00358782 0)
(8.116416 0.003586469 0)
(8.116454 0.00358508 0)
(8.11649 0.003583659 0)
(8.116522 0.003582214 0)
(8.116552 0.003580749 0)
(8.11658 0.003579267 0)
(8.116605 0.003577772 0)
(8.116627 0.003576268 0)
(8.116648 0.003574754 0)
(8.116666 0.003573234 0)
(8.116682 0.003571707 0)
(8.116696 0.003570174 0)
(8.116708 0.003568636 0)
(8.116718 0.003567092 0)
(8.116726 0.003565541 0)
(8.116732 0.003563982 0)
(8.116736 0.003562413 0)
(8.116738 0.003560834 0)
(8.116739 0.003559242 0)
(8.116738 0.003557634 0)
(8.116736 0.003556008 0)
(8.116731 0.003554361 0)
(8.116725 0.003552689 0)
(8.116718 0.003550987 0)
(8.116709 0.003549253 0)
(8.116699 0.003547481 0)
(8.116688 0.003545664 0)
(8.116675 0.003543799 0)
(8.116661 0.003541877 0)
(8.116645 0.003539891 0)
(8.116629 0.003537834 0)
(8.116612 0.003535696 0)
(8.116593 0.003533467 0)
(8.116574 0.003531135 0)
(8.116554 0.003528689 0)
(8.116534 0.003526114 0)
(8.116513 0.003523394 0)
(8.116491 0.003520512 0)
(8.116469 0.003517447 0)
(8.116447 0.003514177 0)
(8.116425 0.003510675 0)
(8.116403 0.003506912 0)
(8.116381 0.003502854 0)
(8.11636 0.003498461 0)
(8.11634 0.003493687 0)
(8.116321 0.00348848 0)
(8.116303 0.003482775 0)
(8.116288 0.003476499 0)
(8.116274 0.003469562 0)
(8.116263 0.003461858 0)
(8.116255 0.003453257 0)
(8.116251 0.003443599 0)
(8.116252 0.003432687 0)
(8.116258 0.003420272 0)
(8.116271 0.003406037 0)
(8.116292 0.003389571 0)
(8.116322 0.003370331 0)
(8.116363 0.003347587 0)
(8.116418 0.003320327 0)
(8.116489 0.003287119 0)
(8.116582 0.003245859 0)
(8.1167 0.003193356 0)
(8.11685 0.003124549 0)
(8.117042 0.003031117 0)
(8.117285 0.002898384 0)
(8.117592 0.002700849 0)
(8.117972 0.002384051 0)
(8.118403 0.001867171 0)
(8.118874 0.000847571 0)
(11.90057 9.229816e-05 0)
(8.912731 0.001150509 0)
(7.7088 0.001588947 0)
(8.029933 0.001834108 0)
(8.152168 0.002063742 0)
(8.118149 0.002230627 0)
(8.106134 0.002348947 0)
(8.110072 0.002442608 0)
(8.111556 0.002519049 0)
(8.111387 0.002581788 0)
(8.11147 0.002634299 0)
(8.111705 0.002679081 0)
(8.1119 0.002717772 0)
(8.112068 0.002751558 0)
(8.112231 0.002781347 0)
(8.112388 0.002807827 0)
(8.112537 0.002831533 0)
(8.112681 0.002852887 0)
(8.11282 0.002872229 0)
(8.112954 0.002889832 0)
(8.113084 0.002905924 0)
(8.113211 0.002920692 0)
(8.113334 0.002934293 0)
(8.113454 0.00294686 0)
(8.113572 0.002958508 0)
(8.113687 0.002969331 0)
(8.1138 0.002979415 0)
(8.113912 0.002988832 0)
(8.114021 0.002997645 0)
(8.114129 0.003005909 0)
(8.114235 0.003013673 0)
(8.114341 0.003020979 0)
(8.114445 0.003027865 0)
(8.114548 0.003034365 0)
(8.11465 0.003040508 0)
(8.114751 0.003046321 0)
(8.114851 0.003051827 0)
(8.114951 0.003057048 0)
(8.11505 0.003062001 0)
(8.115148 0.003066703 0)
(8.115246 0.003071169 0)
(8.115343 0.003075413 0)
(8.11544 0.003079445 0)
(8.115537 0.003083277 0)
(8.115633 0.003086915 0)
(8.115729 0.003090369 0)
(8.115825 0.003093645 0)
(8.115921 0.003096748 0)
(8.116016 0.003099682 0)
(8.116112 0.003102452 0)
(8.116207 0.003105058 0)
(8.116303 0.003107503 0)
(8.116398 0.003109788 0)
(8.116494 0.003111911 0)
(8.116589 0.003113871 0)
(8.116685 0.003115665 0)
(8.116781 0.003117291 0)
(8.116878 0.003118744 0)
(8.116974 0.003120016 0)
(8.117071 0.003121103 0)
(8.117169 0.003121994 0)
(8.117267 0.00312268 0)
(8.117365 0.003123149 0)
(8.117465 0.003123388 0)
(8.117564 0.003123381 0)
(8.117665 0.003123111 0)
(8.117767 0.003122557 0)
(8.117869 0.003121695 0)
(8.117973 0.003120499 0)
(8.118078 0.003118938 0)
(8.118184 0.003116978 0)
(8.118291 0.003114578 0)
(8.118401 0.003111691 0)
(8.118512 0.003108264 0)
(8.118625 0.003104235 0)
(8.11874 0.00309953 0)
(8.118858 0.003094066 0)
(8.118979 0.003087741 0)
(8.119103 0.003080438 0)
(8.11923 0.003072014 0)
(8.119361 0.0030623 0)
(8.119497 0.003051089 0)
(8.119637 0.00303813 0)
(8.119783 0.003023109 0)
(8.119936 0.003005638 0)
(8.120096 0.002985223 0)
(8.120264 0.00296123 0)
(8.120442 0.002932832 0)
(8.120631 0.002898933 0)
(8.120832 0.002858052 0)
(8.12105 0.002808146 0)
(8.121285 0.002746342 0)
(8.121541 0.002668509 0)
(8.121822 0.002568593 0)
(8.122132 0.002437599 0)
(8.122475 0.002261962 0)
(8.122852 0.002021755 0)
(8.123258 0.001687245 0)
(8.123656 0.001222655 0)
(8.124034 0.0005874893 0)
(11.90159 0.0009084826 0)
(8.913612 0.001791863 0)
(7.709223 0.002186101 0)
(8.030166 0.002387894 0)
(8.152339 0.002572676 0)
(8.118258 0.002721205 0)
(8.106196 0.002830888 0)
(8.110102 0.002917367 0)
(8.111562 0.002988107 0)
(8.111374 0.003046103 0)
(8.111441 0.003094014 0)
(8.111663 0.003134029 0)
(8.111847 0.003167711 0)
(8.112005 0.003196235 0)
(8.112158 0.003220524 0)
(8.112307 0.003241306 0)
(8.11245 0.003259163 0)
(8.112588 0.00327456 0)
(8.112721 0.003287875 0)
(8.112849 0.003299417 0)
(8.112975 0.003309442 0)
(8.113097 0.00331816 0)
(8.113216 0.003325749 0)
(8.113332 0.003332357 0)
(8.113446 0.003338109 0)
(8.113558 0.003343112 0)
(8.113668 0.003347456 0)
(8.113776 0.003351219 0)
(8.113883 0.003354468 0)
(8.113988 0.00335726 0)
(8.114092 0.003359646 0)
(8.114195 0.003361668 0)
(8.114297 0.003363365 0)
(8.114398 0.003364768 0)
(8.114498 0.003365908 0)
(8.114597 0.003366808 0)
(8.114695 0.00336749 0)
(8.114793 0.003367973 0)
(8.114891 0.003368274 0)
(8.114987 0.003368407 0)
(8.115084 0.003368383 0)
(8.11518 0.003368214 0)
(8.115276 0.003367908 0)
(8.115371 0.003367473 0)
(8.115466 0.003366913 0)
(8.115561 0.003366234 0)
(8.115656 0.003365439 0)
(8.115751 0.003364531 0)
(8.115846 0.00336351 0)
(8.115941 0.003362376 0)
(8.116035 0.003361129 0)
(8.11613 0.003359766 0)
(8.116225 0.003358283 0)
(8.11632 0.003356677 0)
(8.116416 0.003354941 0)
(8.116511 0.00335307 0)
(8.116607 0.003351055 0)
(8.116703 0.003348886 0)
(8.1168 0.003346553 0)
(8.116897 0.003344044 0)
(8.116994 0.003341343 0)
(8.117092 0.003338436 0)
(8.117191 0.003335303 0)
(8.117291 0.003331925 0)
(8.117391 0.003328278 0)
(8.117492 0.003324336 0)
(8.117594 0.003320068 0)
(8.117697 0.003315443 0)
(8.117801 0.003310422 0)
(8.117906 0.003304961 0)
(8.118013 0.003299012 0)
(8.118121 0.00329252 0)
(8.118231 0.003285419 0)
(8.118343 0.003277638 0)
(8.118456 0.00326909 0)
(8.118572 0.003259678 0)
(8.118691 0.003249287 0)
(8.118812 0.003237783 0)
(8.118936 0.003225009 0)
(8.119064 0.003210776 0)
(8.119195 0.003194861 0)
(8.119331 0.003176993 0)
(8.119472 0.003156845 0)
(8.119617 0.003134016 0)
(8.119769 0.003108008 0)
(8.119927 0.0030782 0)
(8.120093 0.003043803 0)
(8.120268 0.003003809 0)
(8.120452 0.002956908 0)
(8.120648 0.002901374 0)
(8.120856 0.002834906 0)
(8.121078 0.002754394 0)
(8.121316 0.002655577 0)
(8.121572 0.002532574 0)
(8.121845 0.002377236 0)
(8.122135 0.002178302 0)
(8.122435 0.001920673 0)
(8.122734 0.001584917 0)
(8.122993 0.001149842 0)
(8.123216 0.0006047014 0)
(11.90154 0.0004679848 0)
(8.913475 0.0009688784 0)
(7.708905 0.001273056 0)
(8.029826 0.001484248 0)
(8.152008 0.001682627 0)
(8.117912 0.001852941 0)
(8.105833 0.00198966 0)
(8.109731 0.002102469 0)
(8.111185 0.002197622 0)
(8.110992 0.002278176 0)
(8.111055 0.002346807 0)
(8.111275 0.002405838 0)
(8.111457 0.002457039 0)
(8.111614 0.002501777 0)
(8.111768 0.002541138 0)
(8.111917 0.002575988 0)
(8.11206 0.002607024 0)
(8.112198 0.00263481 0)
(8.112331 0.002659805 0)
(8.112461 0.002682386 0)
(8.112587 0.002702869 0)
(8.11271 0.002721516 0)
(8.11283 0.002738547 0)
(8.112947 0.00275415 0)
(8.113062 0.002768483 0)
(8.113175 0.002781685 0)
(8.113286 0.002793872 0)
(8.113395 0.002805148 0)
(8.113502 0.002815599 0)
(8.113608 0.002825306 0)
(8.113713 0.002834334 0)
(8.113817 0.002842744 0)
(8.113919 0.002850589 0)
(8.114021 0.002857915 0)
(8.114121 0.002864763 0)
(8.114221 0.00287117 0)
(8.11432 0.002877167 0)
(8.114419 0.002882784 0)
(8.114517 0.002888045 0)
(8.114614 0.002892973 0)
(8.114712 0.002897587 0)
(8.114808 0.002901905 0)
(8.114904 0.002905942 0)
(8.115 0.00290971 0)
(8.115096 0.002913221 0)
(8.115192 0.002916484 0)
(8.115287 0.002919506 0)
(8.115383 0.002922294 0)
(8.115478 0.002924852 0)
(8.115573 0.002927182 0)
(8.115668 0.002929286 0)
(8.115763 0.002931165 0)
(8.115859 0.002932816 0)
(8.115954 0.002934236 0)
(8.11605 0.002935421 0)
(8.116146 0.002936365 0)
(8.116242 0.002937059 0)
(8.116339 0.002937493 0)
(8.116435 0.002937657 0)
(8.116533 0.002937536 0)
(8.11663 0.002937114 0)
(8.116729 0.002936372 0)
(8.116828 0.00293529 0)
(8.116927 0.002933843 0)
(8.117027 0.002932004 0)
(8.117128 0.002929741 0)
(8.11723 0.002927018 0)
(8.117333 0.002923795 0)
(8.117437 0.002920026 0)
(8.117542 0.002915658 0)
(8.117649 0.002910632 0)
(8.117757 0.002904879 0)
(8.117866 0.002898321 0)
(8.117978 0.002890868 0)
(8.118091 0.002882417 0)
(8.118206 0.002872847 0)
(8.118324 0.00286202 0)
(8.118444 0.002849771 0)
(8.118567 0.00283591 0)
(8.118694 0.002820211 0)
(8.118823 0.002802404 0)
(8.118957 0.002782168 0)
(8.119095 0.002759114 0)
(8.119238 0.002732772 0)
(8.119386 0.002702565 0)
(8.11954 0.00266778 0)
(8.1197 0.002627529 0)
(8.119868 0.002580695 0)
(8.120044 0.00252586 0)
(8.12023 0.002461211 0)
(8.120425 0.00238441 0)
(8.120631 0.002292431 0)
(8.120847 0.002181346 0)
(8.121075 0.002046085 0)
(8.121312 0.001880198 0)
(8.121556 0.001675741 0)
(8.121799 0.001423508 0)
(8.122031 0.001114462 0)
(8.122222 0.0007415031 0)
(8.122382 0.0003129446 0)
(11.90195 0.0005310015 0)
(8.91391 0.001051499 0)
(7.709245 0.001400897 0)
(8.030083 0.001661034 0)
(8.152216 0.001888354 0)
(8.118073 0.002079691 0)
(8.105953 0.002234783 0)
(8.109818 0.002362583 0)
(8.111246 0.002469707 0)
(8.111032 0.002559989 0)
(8.111077 0.00263651 0)
(8.111282 0.002701845 0)
(8.111451 0.002757994 0)
(8.111598 0.002806515 0)
(8.111742 0.002848654 0)
(8.111882 0.002885415 0)
(8.112018 0.002917615 0)
(8.11215 0.002945918 0)
(8.112278 0.002970875 0)
(8.112402 0.002992942 0)
(8.112524 0.003012501 0)
(8.112642 0.003029874 0)
(8.112759 0.003045332 0)
(8.112872 0.003059106 0)
(8.112984 0.003071394 0)
(8.113094 0.003082366 0)
(8.113202 0.003092168 0)
(8.113309 0.003100927 0)
(8.113414 0.003108755 0)
(8.113518 0.003115745 0)
(8.113621 0.003121983 0)
(8.113723 0.003127542 0)
(8.113823 0.003132487 0)
(8.113923 0.003136874 0)
(8.114022 0.003140754 0)
(8.114121 0.00314417 0)
(8.114219 0.003147161 0)
(8.114316 0.003149761 0)
(8.114413 0.003152 0)
(8.114509 0.003153904 0)
(8.114605 0.003155496 0)
(8.1147 0.003156797 0)
(8.114796 0.003157822 0)
(8.114891 0.003158588 0)
(8.114986 0.003159105 0)
(8.11508 0.003159384 0)
(8.115175 0.003159434 0)
(8.115269 0.003159259 0)
(8.115364 0.003158865 0)
(8.115458 0.003158253 0)
(8.115553 0.003157425 0)
(8.115647 0.003156378 0)
(8.115742 0.003155111 0)
(8.115836 0.003153618 0)
(8.115931 0.003151892 0)
(8.116027 0.003149926 0)
(8.116122 0.003147707 0)
(8.116218 0.003145225 0)
(8.116314 0.003142464 0)
(8.11641 0.003139406 0)
(8.116507 0.003136031 0)
(8.116605 0.003132317 0)
(8.116703 0.003128237 0)
(8.116802 0.003123762 0)
(8.116901 0.003118858 0)
(8.117001 0.003113486 0)
(8.117103 0.003107605 0)
(8.117205 0.003101165 0)
(8.117308 0.003094111 0)
(8.117412 0.003086382 0)
(8.117517 0.003077905 0)
(8.117624 0.003068601 0)
(8.117732 0.003058377 0)
(8.117842 0.003047128 0)
(8.117954 0.003034734 0)
(8.118068 0.003021054 0)
(8.118184 0.003005928 0)
(8.118302 0.002989169 0)
(8.118423 0.002970557 0)
(8.118547 0.002949837 0)
(8.118674 0.002926704 0)
(8.118805 0.0029008 0)
(8.118939 0.002871695 0)
(8.119078 0.002838874 0)
(8.119221 0.002801713 0)
(8.11937 0.002759452 0)
(8.119524 0.002711164 0)
(8.119684 0.002655703 0)
(8.119851 0.002591652 0)
(8.120024 0.002517247 0)
(8.120205 0.002430295 0)
(8.120394 0.002328063 0)
(8.120589 0.002207176 0)
(8.12079 0.002063518 0)
(8.120994 0.001892199 0)
(8.121198 0.001687699 0)
(8.121393 0.001444285 0)
(8.121572 0.001157417 0)
(8.121712 0.0008246309 0)
(8.121824 0.0004552721 0)
(11.90203 0.0003942038 0)
(8.913943 0.0007802524 0)
(7.70916 0.001038848 0)
(8.029951 0.001241416 0)
(8.152062 0.001426564 0)
(8.117894 0.001588909 0)
(8.105752 0.001726202 0)
(8.109602 0.001843513 0)
(8.111018 0.001944871 0)
(8.110795 0.002032654 0)
(8.110833 0.002108907 0)
(8.111032 0.002175468 0)
(8.111198 0.00223385 0)
(8.111341 0.002285286 0)
(8.111483 0.002330801 0)
(8.111622 0.002371245 0)
(8.111756 0.002407327 0)
(8.111887 0.002439641 0)
(8.112014 0.002468681 0)
(8.112139 0.002494866 0)
(8.11226 0.00251855 0)
(8.112379 0.002540033 0)
(8.112495 0.002559571 0)
(8.112609 0.002577385 0)
(8.112721 0.002593664 0)
(8.112832 0.00260857 0)
(8.11294 0.002622247 0)
(8.113047 0.002634817 0)
(8.113153 0.002646388 0)
(8.113258 0.002657055 0)
(8.113361 0.002666901 0)
(8.113463 0.002675998 0)
(8.113565 0.002684412 0)
(8.113665 0.002692199 0)
(8.113765 0.002699409 0)
(8.113864 0.002706086 0)
(8.113962 0.002712271 0)
(8.11406 0.002717998 0)
(8.114158 0.002723297 0)
(8.114254 0.002728195 0)
(8.114351 0.002732716 0)
(8.114447 0.002736881 0)
(8.114543 0.002740707 0)
(8.114638 0.002744209 0)
(8.114733 0.002747401 0)
(8.114829 0.002750292 0)
(8.114924 0.00275289 0)
(8.115018 0.002755203 0)
(8.115113 0.002757234 0)
(8.115208 0.002758985 0)
(8.115303 0.002760456 0)
(8.115398 0.002761647 0)
(8.115493 0.002762553 0)
(8.115588 0.002763168 0)
(8.115683 0.002763486 0)
(8.115778 0.002763495 0)
(8.115874 0.002763185 0)
(8.11597 0.002762541 0)
(8.116066 0.002761544 0)
(8.116163 0.002760177 0)
(8.11626 0.002758415 0)
(8.116358 0.002756233 0)
(8.116456 0.002753601 0)
(8.116555 0.002750485 0)
(8.116654 0.002746847 0)
(8.116754 0.002742645 0)
(8.116855 0.002737828 0)
(8.116957 0.002732343 0)
(8.117059 0.002726126 0)
(8.117163 0.002719108 0)
(8.117268 0.002711208 0)
(8.117374 0.002702336 0)
(8.117482 0.002692389 0)
(8.117591 0.002681249 0)
(8.117702 0.002668781 0)
(8.117815 0.002654831 0)
(8.117929 0.00263922 0)
(8.118046 0.002621742 0)
(8.118165 0.002602159 0)
(8.118287 0.00258019 0)
(8.118411 0.002555511 0)
(8.118539 0.002527735 0)
(8.11867 0.00249641 0)
(8.118805 0.002460996 0)
(8.118944 0.002420849 0)
(8.119087 0.002375198 0)
(8.119234 0.002323117 0)
(8.119386 0.002263487 0)
(8.119544 0.002194957 0)
(8.119706 0.002115899 0)
(8.119873 0.002024349 0)
(8.120045 0.00191797 0)
(8.120221 0.001794011 0)
(8.120398 0.001649324 0)
(8.120575 0.001480456 0)
(8.120747 0.001283925 0)
(8.120907 0.001056688 0)
(8.12105 0.0007973201 0)
(8.121159 0.0005063674 0)
(8.121245 0.000192638 0)
(11.90227 0.0003889523 0)
(8.914178 0.0007519177 0)
(7.709352 0.001010106 0)
(8.030114 0.001230566 0)
(8.152207 0.00143639 0)
(8.118016 0.001619748 0)
(8.105851 0.001778237 0)
(8.10968 0.001915732 0)
(8.111079 0.00203559 0)
(8.110839 0.002140086 0)
(8.110863 0.002231302 0)
(8.11105 0.002311156 0)
(8.111205 0.002381278 0)
(8.111338 0.00244304 0)
(8.111472 0.0024976 0)
(8.111603 0.002545939 0)
(8.111731 0.002588883 0)
(8.111855 0.002627134 0)
(8.111977 0.002661284 0)
(8.112097 0.00269184 0)
(8.112213 0.002719234 0)
(8.112328 0.002743837 0)
(8.112441 0.002765968 0)
(8.112551 0.002785903 0)
(8.11266 0.00280388 0)
(8.112768 0.002820109 0)
(8.112874 0.002834769 0)
(8.112978 0.00284802 0)
(8.113082 0.002860001 0)
(8.113184 0.002870836 0)
(8.113285 0.00288063 0)
(8.113386 0.002889482 0)
(8.113485 0.002897474 0)
(8.113584 0.002904681 0)
(8.113682 0.00291117 0)
(8.11378 0.002916999 0)
(8.113877 0.002922221 0)
(8.113973 0.002926881 0)
(8.114069 0.002931021 0)
(8.114165 0.002934676 0)
(8.11426 0.002937878 0)
(8.114355 0.002940655 0)
(8.11445 0.002943031 0)
(8.114544 0.002945027 0)
(8.114639 0.00294666 0)
(8.114733 0.002947944 0)
(8.114827 0.002948893 0)
(8.114921 0.002949514 0)
(8.115015 0.002949816 0)
(8.115109 0.002949803 0)
(8.115203 0.002949476 0)
(8.115297 0.002948836 0)
(8.115391 0.002947879 0)
(8.115485 0.002946601 0)
(8.11558 0.002944994 0)
(8.115674 0.002943048 0)
(8.115769 0.00294075 0)
(8.115864 0.002938085 0)
(8.11596 0.002935035 0)
(8.116056 0.002931578 0)
(8.116152 0.002927689 0)
(8.116249 0.002923339 0)
(8.116346 0.002918496 0)
(8.116444 0.002913123 0)
(8.116542 0.002907178 0)
(8.116641 0.002900612 0)
(8.116741 0.002893372 0)
(8.116842 0.002885399 0)
(8.116944 0.002876622 0)
(8.117046 0.002866965 0)
(8.11715 0.002856341 0)
(8.117255 0.002844651 0)
(8.117361 0.002831781 0)
(8.117469 0.002817605 0)
(8.117578 0.002801977 0)
(8.117688 0.00278473 0)
(8.117801 0.002765675 0)
(8.117915 0.002744591 0)
(8.118032 0.002721227 0)
(8.118151 0.002695288 0)
(8.118272 0.002666437 0)
(8.118396 0.002634277 0)
(8.118523 0.002598345 0)
(8.118653 0.002558099 0)
(8.118786 0.002512899 0)
(8.118923 0.002461994 0)
(8.119063 0.002404496 0)
(8.119207 0.002339357 0)
(8.119355 0.002265342 0)
(8.119505 0.002181006 0)
(8.119659 0.002084665 0)
(8.119815 0.001974393 0)
(8.119972 0.00184803 0)
(8.120129 0.001703245 0)
(8.120281 0.001537668 0)
(8.120427 0.00134916 0)
(8.12056 0.001136194 0)
(8.120675 0.0008986906 0)
(8.12076 0.0006380692 0)
(8.120827 0.0003614616 0)
(11.90239 0.0003258982 0)
(8.91427 0.0006297929 0)
(7.709382 0.0008436132 0)
(8.030113 0.001027911 0)
(8.152185 0.001201194 0)
(8.11797 0.001356582 0)
(8.105782 0.00149223 0)
(8.109593 0.001611203 0)
(8.110977 0.001716015 0)
(8.110724 0.001808334 0)
(8.110738 0.001889717 0)
(8.110916 0.001961627 0)
(8.111064 0.002025331 0)
(8.111191 0.002081909 0)
(8.11132 0.002132289 0)
(8.111447 0.002177271 0)
(8.111572 0.002217538 0)
(8.111694 0.002253676 0)
(8.111813 0.002286188 0)
(8.111931 0.002315506 0)
(8.112046 0.002342002 0)
(8.11216 0.002365998 0)
(8.112271 0.002387772 0)
(8.112381 0.002407565 0)
(8.11249 0.002425589 0)
(8.112597 0.002442027 0)
(8.112703 0.002457039 0)
(8.112807 0.002470766 0)
(8.11291 0.002483331 0)
(8.113013 0.002494844 0)
(8.113114 0.002505401 0)
(8.113215 0.002515087 0)
(8.113315 0.002523976 0)
(8.113414 0.002532136 0)
(8.113512 0.002539625 0)
(8.11361 0.002546495 0)
(8.113707 0.002552792 0)
(8.113804 0.002558557 0)
(8.1139 0.002563826 0)
(8.113996 0.00256863 0)
(8.114092 0.002572998 0)
(8.114187 0.002576952 0)
(8.114282 0.002580513 0)
(8.114377 0.002583699 0)
(8.114471 0.002586525 0)
(8.114566 0.002589001 0)
(8.11466 0.002591138 0)
(8.114754 0.002592942 0)
(8.114848 0.002594417 0)
(8.114943 0.002595564 0)
(8.115037 0.002596384 0)
(8.115131 0.002596874 0)
(8.115225 0.002597028 0)
(8.11532 0.002596839 0)
(8.115414 0.002596296 0)
(8.115509 0.002595387 0)
(8.115604 0.002594096 0)
(8.115699 0.002592405 0)
(8.115795 0.002590293 0)
(8.115891 0.002587734 0)
(8.115987 0.0025847 0)
(8.116084 0.002581159 0)
(8.116181 0.002577074 0)
(8.116279 0.002572404 0)
(8.116377 0.002567103 0)
(8.116476 0.002561117 0)
(8.116575 0.002554389 0)
(8.116675 0.002546852 0)
(8.116776 0.002538432 0)
(8.116878 0.002529045 0)
(8.116981 0.002518597 0)
(8.117085 0.002506981 0)
(8.117191 0.002494079 0)
(8.117297 0.002479753 0)
(8.117405 0.00246385 0)
(8.117514 0.002446195 0)
(8.117625 0.002426589 0)
(8.117737 0.002404804 0)
(8.117852 0.002380579 0)
(8.117968 0.002353614 0)
(8.118086 0.002323567 0)
(8.118207 0.002290038 0)
(8.11833 0.00225257 0)
(8.118456 0.002210631 0)
(8.118584 0.002163603 0)
(8.118714 0.002110775 0)
(8.118848 0.002051318 0)
(8.118984 0.001984278 0)
(8.119122 0.001908561 0)
(8.119262 0.001822918 0)
(8.119403 0.001725948 0)
(8.119545 0.001616112 0)
(8.119686 0.001491769 0)
(8.119825 0.001351261 0)
(8.119958 0.001193052 0)
(8.120082 0.001015962 0)
(8.120194 0.0008194641 0)
(8.120289 0.000604248 0)
(8.120359 0.0003721191 0)
(8.120413 0.0001287896 0)
(11.90254 0.000306685 0)
(8.914419 0.0005861961 0)
(7.7095 0.0007876376 0)
(8.030216 0.0009694602 0)
(8.152278 0.001145183 0)
(8.11805 0.001306917 0)
(8.105849 0.001452078 0)
(8.109647 0.001582485 0)
(8.111019 0.001699676 0)
(8.110756 0.001804703 0)
(8.11076 0.001898702 0)
(8.11093 0.001982845 0)
(8.111069 0.002058214 0)
(8.111189 0.002125786 0)
(8.111311 0.002186439 0)
(8.111432 0.002240954 0)
(8.111551 0.002290021 0)
(8.111668 0.00233425 0)
(8.111783 0.002374175 0)
(8.111897 0.002410263 0)
(8.112008 0.002442927 0)
(8.112118 0.002472527 0)
(8.112226 0.002499381 0)
(8.112334 0.002523768 0)
(8.112439 0.002545935 0)
(8.112544 0.002566099 0)
(8.112647 0.002584453 0)
(8.112749 0.002601166 0)
(8.11285 0.00261639 0)
(8.112951 0.00263026 0)
(8.11305 0.002642894 0)
(8.113149 0.0026544 0)
(8.113247 0.002664872 0)
(8.113345 0.002674395 0)
(8.113442 0.002683045 0)
(8.113538 0.002690889 0)
(8.113634 0.002697987 0)
(8.11373 0.002704394 0)
(8.113825 0.002710156 0)
(8.11392 0.002715316 0)
(8.114014 0.002719911 0)
(8.114108 0.002723975 0)
(8.114202 0.002727535 0)
(8.114296 0.002730618 0)
(8.11439 0.002733243 0)
(8.114483 0.002735429 0)
(8.114577 0.002737191 0)
(8.11467 0.00273854 0)
(8.114764 0.002739485 0)
(8.114857 0.002740032 0)
(8.11495 0.002740183 0)
(8.115044 0.002739938 0)
(8.115137 0.002739296 0)
(8.115231 0.00273825 0)
(8.115325 0.002736792 0)
(8.115419 0.00273491 0)
(8.115513 0.002732591 0)
(8.115607 0.002729816 0)
(8.115702 0.002726564 0)
(8.115797 0.002722811 0)
(8.115892 0.002718527 0)
(8.115988 0.002713679 0)
(8.116084 0.00270823 0)
(8.116181 0.002702136 0)
(8.116278 0.00269535 0)
(8.116376 0.002687817 0)
(8.116475 0.002679475 0)
(8.116574 0.002670255 0)
(8.116674 0.002660079 0)
(8.116774 0.002648861 0)
(8.116876 0.002636502 0)
(8.116978 0.002622892 0)
(8.117082 0.002607906 0)
(8.117186 0.002591404 0)
(8.117292 0.002573227 0)
(8.117399 0.002553197 0)
(8.117508 0.00253111 0)
(8.117618 0.002506736 0)
(8.117729 0.002479812 0)
(8.117842 0.002450041 0)
(8.117957 0.002417082 0)
(8.118074 0.002380547 0)
(8.118193 0.002339991 0)
(8.118313 0.002294907 0)
(8.118436 0.002244717 0)
(8.11856 0.002188761 0)
(8.118686 0.002126289 0)
(8.118814 0.002056454 0)
(8.118943 0.00197831 0)
(8.119072 0.001890809 0)
(8.119202 0.001792815 0)
(8.119331 0.001683129 0)
(8.119458 0.001560539 0)
(8.11958 0.001423903 0)
(8.119696 0.001272273 0)
(8.119804 0.001105076 0)
(8.119899 0.0009223227 0)
(8.119978 0.0007249837 0)
(8.120036 0.0005148178 0)
(8.12008 0.0002963392 0)
(11.90266 0.0002714847 0)
(8.914516 0.0005177705 0)
(7.709559 0.0006944973 0)
(8.030258 0.0008550761 0)
(8.152308 0.001010628 0)
(8.118062 0.001153889 0)
(8.105843 0.001282657 0)
(8.109626 0.001398523 0)
(8.110985 0.001502783 0)
(8.110709 0.001596324 0)
(8.110702 0.001680123 0)
(8.110862 0.001755191 0)
(8.110993 0.001822468 0)
(8.111106 0.001882806 0)
(8.111221 0.001936975 0)
(8.111337 0.001985664 0)
(8.111451 0.002029486 0)
(8.111564 0.00206898 0)
(8.111676 0.002104625 0)
(8.111786 0.00213684 0)
(8.111895 0.002165995 0)
(8.112002 0.002192413 0)
(8.112109 0.002216382 0)
(8.112214 0.002238154 0)
(8.112319 0.00225795 0)
(8.112422 0.002275967 0)
(8.112524 0.002292379 0)
(8.112626 0.002307338 0)
(8.112726 0.002320981 0)
(8.112826 0.002333428 0)
(8.112925 0.002344787 0)
(8.113024 0.002355152 0)
(8.113121 0.002364609 0)
(8.113219 0.002373232 0)
(8.113315 0.002381089 0)
(8.113412 0.002388238 0)
(8.113507 0.002394733 0)
(8.113603 0.002400619 0)
(8.113698 0.002405939 0)
(8.113793 0.002410728 0)
(8.113887 0.002415019 0)
(8.113982 0.002418838 0)
(8.114076 0.002422209 0)
(8.11417 0.002425152 0)
(8.114263 0.002427684 0)
(8.114357 0.002429819 0)
(8.114451 0.002431567 0)
(8.114544 0.002432936 0)
(8.114637 0.00243393 0)
(8.114731 0.002434552 0)
(8.114824 0.002434801 0)
(8.114918 0.002434672 0)
(8.115011 0.002434162 0)
(8.115105 0.002433259 0)
(8.115199 0.002431953 0)
(8.115293 0.002430228 0)
(8.115387 0.002428068 0)
(8.115481 0.002425449 0)
(8.115576 0.002422349 0)
(8.115671 0.002418738 0)
(8.115766 0.002414585 0)
(8.115862 0.002409851 0)
(8.115957 0.002404497 0)
(8.116054 0.002398474 0)
(8.116151 0.002391731 0)
(8.116248 0.00238421 0)
(8.116346 0.002375844 0)
(8.116444 0.00236656 0)
(8.116543 0.002356276 0)
(8.116643 0.002344901 0)
(8.116744 0.002332332 0)
(8.116845 0.002318455 0)
(8.116948 0.00230314 0)
(8.117051 0.002286244 0)
(8.117155 0.002267604 0)
(8.117261 0.00224704 0)
(8.117367 0.002224346 0)
(8.117475 0.002199293 0)
(8.117584 0.002171619 0)
(8.117694 0.002141033 0)
(8.117806 0.002107202 0)
(8.117919 0.002069753 0)
(8.118034 0.002028263 0)
(8.11815 0.001982258 0)
(8.118267 0.001931202 0)
(8.118385 0.001874495 0)
(8.118505 0.001811471 0)
(8.118625 0.001741393 0)
(8.118746 0.001663456 0)
(8.118866 0.001576797 0)
(8.118986 0.001480514 0)
(8.119103 0.001373693 0)
(8.119217 0.001255465 0)
(8.119327 0.001125078 0)
(8.119429 0.0009819971 0)
(8.119523 0.0008260488 0)
(8.119604 0.000657557 0)
(8.119672 0.0004775923 0)
(8.119721 0.0002877806 0)
(8.119758 9.171739e-05 0)
(11.90278 0.0002518932 0)
(8.914626 0.0004777448 0)
(7.709644 0.0006415162 0)
(8.030334 0.0007938366 0)
(8.152377 0.0009439228 0)
(8.118123 0.001084726 0)
(8.105894 0.001213954 0)
(8.109668 0.001332603 0)
(8.111018 0.001441408 0)
(8.110734 0.001540806 0)
(8.11072 0.001631384 0)
(8.110873 0.001713831 0)
(8.110997 0.001788827 0)
(8.111104 0.001857022 0)
(8.111214 0.001919035 0)
(8.111326 0.001975441 0)
(8.111435 0.002026771 0)
(8.111544 0.002073509 0)
(8.111652 0.002116094 0)
(8.111759 0.002154921 0)
(8.111865 0.002190347 0)
(8.11197 0.002222693 0)
(8.112074 0.002252247 0)
(8.112176 0.002279266 0)
(8.112278 0.002303981 0)
(8.11238 0.002326599 0)
(8.11248 0.002347307 0)
(8.112579 0.002366271 0)
(8.112678 0.00238364 0)
(8.112776 0.002399549 0)
(8.112874 0.002414119 0)
(8.112971 0.002427457 0)
(8.113067 0.002439662 0)
(8.113163 0.002450821 0)
(8.113259 0.002461012 0)
(8.113354 0.002470307 0)
(8.113449 0.002478768 0)
(8.113543 0.002486453 0)
(8.113637 0.002493411 0)
(8.113731 0.002499688 0)
(8.113824 0.002505325 0)
(8.113918 0.002510356 0)
(8.114011 0.002514812 0)
(8.114104 0.00251872 0)
(8.114197 0.002522104 0)
(8.11429 0.002524982 0)
(8.114383 0.00252737 0)
(8.114475 0.002529281 0)
(8.114568 0.002530725 0)
(8.114661 0.002531707 0)
(8.114753 0.002532231 0)
(8.114846 0.002532296 0)
(8.114939 0.0025319 0)
(8.115032 0.002531037 0)
(8.115125 0.002529696 0)
(8.115218 0.002527865 0)
(8.115311 0.002525529 0)
(8.115405 0.002522667 0)
(8.115499 0.002519256 0)
(8.115593 0.002515268 0)
(8.115687 0.002510672 0)
(8.115782 0.002505432 0)
(8.115877 0.002499506 0)
(8.115972 0.002492847 0)
(8.116068 0.002485403 0)
(8.116164 0.002477115 0)
(8.116261 0.002467917 0)
(8.116358 0.002457733 0)
(8.116456 0.002446483 0)
(8.116554 0.002434073 0)
(8.116653 0.0024204 0)
(8.116753 0.002405348 0)