/*--------------------------------*- C++ -*----------------------------------*\
| =========                 |                                                 |
| \\      /  F ield         | OpenFOAM: The Open Source CFD Toolbox           |
|  \\    /   O peration     | Version:  2.3.0                                 |
|   \\  /    A nd           | Web:      www.OpenFOAM.org                      |
|    \\/     M anipulation  |                                                 |
\*---------------------------------------------------------------------------*/
FoamFile
{
    version     2.0;
    format      ascii;
    class       surfaceScalarField;
    location    "9800/topAir";
    object      phi;
}
// * * * * * * * * * * * * * * * * * * * * * * * * * * * * * * * * * * * * * //

dimensions      [1 0 -1 0 0 0 0];

internalField   nonuniform List<scalar> 
7860
(
0.01424826
1.225084e-05
0.01423789
1.036938e-05
0.01422932
8.567475e-06
0.01422055
8.776815e-06
0.01421149
9.059377e-06
0.01420234
9.157461e-06
0.01419311
9.230821e-06
0.0141838
9.305495e-06
0.01417443
9.367539e-06
0.01416502
9.416571e-06
0.01415556
9.456253e-06
0.01414607
9.488594e-06
0.01413656
9.514834e-06
0.01412702
9.536075e-06
0.01411747
9.553218e-06
0.0141079
9.566973e-06
0.01409832
9.577896e-06
0.01408873
9.586434e-06
0.01407914
9.592951e-06
0.01406954
9.59774e-06
0.01405994
9.601043e-06
0.01405034
9.603059e-06
0.01404073
9.603955e-06
0.01403113
9.603871e-06
0.01402153
9.602924e-06
0.01401193
9.601215e-06
0.01400233
9.598831e-06
0.01399273
9.595843e-06
0.01398314
9.592318e-06
0.01397355
9.588309e-06
0.01396397
9.583865e-06
0.01395439
9.579029e-06
0.01394481
9.573836e-06
0.01393524
9.568321e-06
0.01392568
9.56251e-06
0.01391612
9.55643e-06
0.01390657
9.550103e-06
0.01389703
9.543548e-06
0.01388749
9.536784e-06
0.01387796
9.529824e-06
0.01386844
9.522683e-06
0.01385893
9.515372e-06
0.01384942
9.507902e-06
0.01383992
9.500282e-06
0.01383043
9.492519e-06
0.01382094
9.484619e-06
0.01381146
9.476588e-06
0.013802
9.46843e-06
0.01379254
9.460148e-06
0.01378308
9.451744e-06
0.01377364
9.44322e-06
0.01376421
9.434575e-06
0.01375478
9.425809e-06
0.01374536
9.41692e-06
0.01373595
9.407905e-06
0.01372656
9.39876e-06
0.01371717
9.38948e-06
0.01370779
9.380059e-06
0.01369842
9.370489e-06
0.01368905
9.360762e-06
0.0136797
9.350866e-06
0.01367036
9.340791e-06
0.01366103
9.330522e-06
0.01365171
9.320043e-06
0.0136424
9.309336e-06
0.0136331
9.298381e-06
0.01362382
9.287153e-06
0.01361454
9.275626e-06
0.01360528
9.263768e-06
0.01359603
9.251546e-06
0.01358679
9.238917e-06
0.01357756
9.225836e-06
0.01356835
9.21225e-06
0.01355915
9.198096e-06
0.01354997
9.183302e-06
0.0135408
9.167786e-06
0.01353165
9.151448e-06
0.01352251
9.134173e-06
0.0135134
9.115822e-06
0.0135043
9.096233e-06
0.01349523
9.075205e-06
0.01348617
9.052497e-06
0.01347715
9.027811e-06
0.01346815
9.00078e-06
0.01345917
8.970938e-06
0.01345024
8.937691e-06
0.01344134
8.900269e-06
0.01343248
8.857653e-06
0.01342367
8.808463e-06
0.01341492
8.750785e-06
0.01340624
8.681874e-06
0.01339764
8.597648e-06
0.01338915
8.491764e-06
0.01338079
8.353814e-06
0.01337263
8.165929e-06
0.01336473
7.894374e-06
0.01335726
7.477415e-06
0.01335049
6.766482e-06
0.01334495
5.543366e-06
2.794789e-06
0.0142719
1.713981e-06
0.01427563
6.639877e-06
0.01427695
7.250589e-06
0.01427827
7.45996e-06
0.01427944
7.89399e-06
0.01428038
8.213739e-06
0.01428118
8.434806e-06
0.01428187
8.613205e-06
0.01428248
8.759169e-06
0.01428302
8.877485e-06
0.0142835
8.974886e-06
0.01428393
9.056346e-06
0.01428432
9.125169e-06
0.01428467
9.183829e-06
0.01428499
9.234242e-06
0.01428528
9.277882e-06
0.01428554
9.315894e-06
0.01428578
9.349183e-06
0.01428599
9.378472e-06
0.01428619
9.404346e-06
0.01428636
9.427284e-06
0.01428651
9.447679e-06
0.01428665
9.465859e-06
0.01428677
9.482097e-06
0.01428688
9.496626e-06
0.01428697
9.509642e-06
0.01428705
9.521313e-06
0.01428711
9.531783e-06
0.01428716
9.541178e-06
0.0142872
9.549605e-06
0.01428723
9.557159e-06
0.01428724
9.563921e-06
0.01428725
9.569964e-06
0.01428724
9.575351e-06
0.01428722
9.580137e-06
0.01428719
9.584371e-06
0.01428716
9.588098e-06
0.01428711
9.591354e-06
0.01428705
9.594173e-06
0.01428698
9.596584e-06
0.01428691
9.598615e-06
0.01428682
9.600286e-06
0.01428673
9.601617e-06
0.01428663
9.602626e-06
0.01428652
9.603327e-06
0.0142864
9.603731e-06
0.01428627
9.603848e-06
0.01428613
9.603685e-06
0.01428599
9.603248e-06
0.01428584
9.60254e-06
0.01428568
9.601563e-06
0.01428552
9.600316e-06
0.01428534
9.598797e-06
0.01428516
9.597001e-06
0.01428498
9.594921e-06
0.01428478
9.592549e-06
0.01428458
9.589874e-06
0.01428437
9.586882e-06
0.01428416
9.583557e-06
0.01428394
9.579881e-06
0.01428372
9.575831e-06
0.01428349
9.571383e-06
0.01428325
9.566508e-06
0.01428301
9.561172e-06
0.01428276
9.555338e-06
0.01428251
9.548963e-06
0.01428226
9.541998e-06
0.014282
9.534388e-06
0.01428174
9.526069e-06
0.01428147
9.516969e-06
0.0142812
9.507006e-06
0.01428093
9.496085e-06
0.01428066
9.484096e-06
0.01428039
9.470915e-06
0.01428011
9.456394e-06
0.01427984
9.440364e-06
0.01427957
9.422626e-06
0.0142793
9.402944e-06
0.01427904
9.381043e-06
0.01427878
9.356588e-06
0.01427852
9.329182e-06
0.01427828
9.298338e-06
0.01427804
9.263464e-06
0.01427782
9.223824e-06
0.01427761
9.178496e-06
0.01427742
9.126309e-06
0.01427726
9.065753e-06
0.01427712
8.99485e-06
0.01427702
8.910957e-06
0.01427696
8.810472e-06
0.01427695
8.688372e-06
0.01427701
8.537467e-06
0.01427715
8.3472e-06
0.01427741
8.101596e-06
0.0142778
7.775915e-06
0.01427836
7.330298e-06
0.01427914
6.701275e-06
0.01428013
5.776235e-06
0.01428127
4.397016e-06
2.171223e-06
0.01426477
2.359518e-06
0.01426677
4.635474e-06
0.01426832
5.705068e-06
0.01426949
6.292448e-06
0.01427053
6.863048e-06
0.01427143
7.307082e-06
0.01427224
7.627595e-06
0.01427297
7.879732e-06
0.01427365
8.085501e-06
0.01427427
8.254005e-06
0.01427485
8.393668e-06
0.0142754
8.511093e-06
0.01427591
8.610853e-06
0.0142764
8.696322e-06
0.01427686
8.770106e-06
0.01427731
8.83423e-06
0.01427773
8.890284e-06
0.01427814
8.939533e-06
0.01427854
8.982995e-06
0.01427892
9.021502e-06
0.01427929
9.055735e-06
0.01427965
9.08626e-06
0.01428
9.113549e-06
0.01428035
9.137999e-06
0.01428068
9.159948e-06
0.01428101
9.17968e-06
0.01428134
9.197443e-06
0.01428166
9.213448e-06
0.01428197
9.227878e-06
0.01428228
9.240891e-06
0.01428258
9.252626e-06
0.01428288
9.263205e-06
0.01428318
9.272732e-06
0.01428347
9.281303e-06
0.01428376
9.288997e-06
0.01428405
9.295889e-06
0.01428434
9.302041e-06
0.01428462
9.30751e-06
0.0142849
9.312346e-06
0.01428518
9.316591e-06
0.01428546
9.320284e-06
0.01428574
9.323458e-06
0.01428601
9.326142e-06
0.01428629
9.32836e-06
0.01428656
9.330134e-06
0.01428683
9.331481e-06
0.01428711
9.332415e-06
0.01428738
9.332946e-06
0.01428765
9.333083e-06
0.01428792
9.332831e-06
0.01428818
9.332191e-06
0.01428845
9.331163e-06
0.01428872
9.329743e-06
0.01428899
9.327924e-06
0.01428926
9.325695e-06
0.01428953
9.323045e-06
0.0142898
9.319956e-06
0.01429007
9.31641e-06
0.01429034
9.312381e-06
0.01429061
9.307843e-06
0.01429089
9.302763e-06
0.01429116
9.297104e-06
0.01429144
9.290823e-06
0.01429171
9.283872e-06
0.01429199
9.276196e-06
0.01429227
9.267732e-06
0.01429256
9.258409e-06
0.01429284
9.248144e-06
0.01429313
9.236847e-06
0.01429343
9.224411e-06
0.01429372
9.210716e-06
0.01429402
9.195624e-06
0.01429433
9.178978e-06
0.01429464
9.160595e-06
0.01429495
9.140264e-06
0.01429528
9.11774e-06
0.01429561
9.092737e-06
0.01429594
9.064917e-06
0.01429629
9.033885e-06
0.01429665
8.999167e-06
0.01429702
8.960197e-06
0.0142974
8.916292e-06
0.0142978
8.866617e-06
0.01429821
8.810147e-06
0.01429864
8.745608e-06
0.0142991
8.671397e-06
0.01429958
8.585472e-06
0.01430009
8.485194e-06
0.01430063
8.367108e-06
0.01430122
8.226605e-06
0.01430185
8.057447e-06
0.01430253
7.851026e-06
0.01430328
7.595279e-06
0.01430411
7.273018e-06
0.01430503
6.859527e-06
0.01430604
6.318958e-06
0.01430714
5.600595e-06
0.01430828
4.633441e-06
0.01430935
3.334631e-06
1.635089e-06
0.01426722
1.591059e-06
0.0142682
3.663149e-06
0.01426909
4.816813e-06
0.0142699
5.480541e-06
0.0142707
6.064269e-06
0.01427147
6.546684e-06
0.01427217
6.919547e-06
0.01427283
7.219803e-06
0.01427345
7.468719e-06
0.01427403
7.676128e-06
0.01427457
7.850293e-06
0.01427508
7.998061e-06
0.01427557
8.124496e-06
0.01427603
8.233439e-06
0.01427648
8.327916e-06
0.0142769
8.410324e-06
0.01427731
8.482576e-06
0.0142777
8.546217e-06
0.01427808
8.6025e-06
0.01427845
8.652458e-06
0.01427881
8.696943e-06
0.01427916
8.736667e-06
0.0142795
8.772227e-06
0.01427983
8.804126e-06
0.01428016
8.832794e-06
0.01428048
8.858597e-06
0.01428079
8.88185e-06
0.0142811
8.902824e-06
0.01428141
8.921754e-06
0.01428171
8.938846e-06
0.01428201
8.954277e-06
0.01428231
8.968205e-06
0.0142826
8.980767e-06
0.01428289
8.992084e-06
0.01428317
9.002261e-06
0.01428346
9.011393e-06
0.01428374
9.019562e-06
0.01428402
9.026841e-06
0.0142843
9.033295e-06
0.01428458
9.038981e-06
0.01428485
9.043946e-06
0.01428513
9.048236e-06
0.0142854
9.051886e-06
0.01428568
9.05493e-06
0.01428595
9.057394e-06
0.01428622
9.0593e-06
0.01428649
9.060668e-06
0.01428676
9.06151e-06
0.01428703
9.061838e-06
0.01428731
9.061657e-06
0.01428758
9.06097e-06
0.01428785
9.059775e-06
0.01428812
9.058067e-06
0.01428839
9.055837e-06
0.01428866
9.053072e-06
0.01428894
9.049755e-06
0.01428921
9.045864e-06
0.01428949
9.041373e-06
0.01428976
9.036251e-06
0.01429004
9.030462e-06
0.01429032
9.023963e-06
0.0142906
9.016707e-06
0.01429088
9.008636e-06
0.01429117
8.99969e-06
0.01429145
8.989794e-06
0.01429174
8.978868e-06
0.01429203
8.966818e-06
0.01429233
8.95354e-06
0.01429263
8.938914e-06
0.01429293
8.922804e-06
0.01429323
8.905053e-06
0.01429354
8.885485e-06
0.01429386
8.863897e-06
0.01429418
8.840054e-06
0.0142945
8.813687e-06
0.01429484
8.784483e-06
0.01429518
8.752077e-06
0.01429553
8.716044e-06
0.01429589
8.675881e-06
0.01429625
8.630995e-06
0.01429663
8.580678e-06
0.01429702
8.52408e-06
0.01429743
8.460174e-06
0.01429785
8.387706e-06
0.01429829
8.305133e-06
0.01429876
8.210538e-06
0.01429924
8.101514e-06
0.01429975
7.975007e-06
0.01430029
7.827102e-06
0.01430086
7.65272e-06
0.01430148
7.445211e-06
0.01430213
7.195781e-06
0.01430283
6.892726e-06
0.01430359
6.520436e-06
0.01430439
6.05819e-06
0.01430523
5.47893e-06
0.01430608
4.748712e-06
0.01430688
3.828674e-06
0.01430754
2.680396e-06
1.30514e-06
0.01426699
1.642611e-06
0.01426757
3.082466e-06
0.01426836
4.029062e-06
0.01426913
4.713265e-06
0.01426988
5.319003e-06
0.01427059
5.832881e-06
0.01427126
6.247463e-06
0.0142719
6.588452e-06
0.01427249
6.874506e-06
0.01427305
7.115687e-06
0.01427358
7.320207e-06
0.01427408
7.495033e-06
0.01427456
7.645548e-06
0.01427502
7.775929e-06
0.01427546
7.889508e-06
0.01427588
7.988963e-06
0.01427628
8.076455e-06
0.01427668
8.153743e-06
0.01427706
8.222272e-06
0.01427743
8.283238e-06
0.01427778
8.337634e-06
0.01427814
8.386297e-06
0.01427848
8.429929e-06
0.01427881
8.469128e-06
0.01427914
8.504406e-06
0.01427946
8.536199e-06
0.01427978
8.564886e-06
0.01428009
8.590791e-06
0.0142804
8.614201e-06
0.0142807
8.63536e-06
0.014281
8.654487e-06
0.0142813
8.671772e-06
0.01428159
8.68738e-06
0.01428188
8.701459e-06
0.01428217
8.714139e-06
0.01428246
8.725535e-06
0.01428274
8.735746e-06
0.01428302
8.744864e-06
0.0142833
8.752966e-06
0.01428358
8.760121e-06
0.01428386
8.76639e-06
0.01428413
8.771827e-06
0.01428441
8.776476e-06
0.01428468
8.780378e-06
0.01428496
8.783566e-06
0.01428523
8.786067e-06
0.0142855
8.787903e-06
0.01428578
8.789093e-06
0.01428605
8.789648e-06
0.01428632
8.789576e-06
0.01428659
8.78888e-06
0.01428686
8.787559e-06
0.01428714
8.785605e-06
0.01428741
8.783009e-06
0.01428768
8.779753e-06
0.01428796
8.775817e-06
0.01428823
8.771175e-06
0.01428851
8.765795e-06
0.01428878
8.759638e-06
0.01428906
8.752661e-06
0.01428934
8.744811e-06
0.01428962
8.73603e-06
0.0142899
8.72625e-06
0.01429019
8.715394e-06
0.01429047
8.703375e-06
0.01429076
8.690092e-06
0.01429105
8.675435e-06
0.01429135
8.659275e-06
0.01429164
8.641467e-06
0.01429195
8.621847e-06
0.01429225
8.600228e-06
0.01429256
8.576397e-06
0.01429287
8.55011e-06
0.01429319
8.521087e-06
0.01429352
8.489006e-06
0.01429385
8.453497e-06
0.01429419
8.414126e-06
0.01429453
8.370394e-06
0.01429489
8.32171e-06
0.01429525
8.267383e-06
0.01429562
8.206593e-06
0.01429601
8.138362e-06
0.01429641
8.06152e-06
0.01429682
7.97465e-06
0.01429725
7.876032e-06
0.0142977
7.763557e-06
0.01429816
7.63462e-06
0.01429865
7.48598e-06
0.01429917
7.313577e-06
0.01429971
7.112291e-06
0.01430028
6.875636e-06
0.01430088
6.595375e-06
0.01430151
6.261069e-06
0.01430217
5.859597e-06
0.01430285
5.374773e-06
0.01430354
4.787406e-06
0.01430422
4.076209e-06
0.01430482
3.221944e-06
0.01430529
2.210986e-06
1.069014e-06
0.01426806
1.226923e-06
0.01426857
2.566699e-06
0.01426915
3.457809e-06
0.01426973
4.129822e-06
0.01427032
4.731435e-06
0.01427091
5.249929e-06
0.01427148
5.67991e-06
0.01427202
6.040786e-06
0.01427255
6.347878e-06
0.01427306
6.610253e-06
0.01427354
6.835378e-06
0.01427401
7.029701e-06
0.01427445
7.198374e-06
0.01427488
7.345503e-06
0.0142753
7.474431e-06
0.0142757
7.587891e-06
0.01427609
7.688129e-06
0.01427646
7.777e-06
0.01427683
7.856046e-06
0.01427719
7.926558e-06
0.01427753
7.989619e-06
0.01427787
8.046149e-06
0.01427821
8.096927e-06
0.01427853
8.14262e-06
0.01427885
8.183801e-06
0.01427917
8.220962e-06
0.01427948
8.254531e-06
0.01427978
8.284879e-06
0.01428009
8.31233e-06
0.01428038
8.337166e-06
0.01428068
8.359638e-06
0.01428097
8.379962e-06
0.01428126
8.398331e-06
0.01428154
8.414914e-06
0.01428183
8.429863e-06
0.01428211
8.443309e-06
0.01428239
8.45537e-06
0.01428267
8.46615e-06
0.01428295
8.475739e-06
0.01428322
8.484218e-06
0.0142835
8.491658e-06
0.01428377
8.498121e-06
0.01428404
8.503659e-06
0.01428432
8.50832e-06
0.01428459
8.512141e-06
0.01428486
8.515154e-06
0.01428513
8.517387e-06
0.0142854
8.518858e-06
0.01428567
8.519583e-06
0.01428594
8.51957e-06
0.01428621
8.518823e-06
0.01428648
8.517338e-06
0.01428675
8.51511e-06
0.01428702
8.512124e-06
0.01428729
8.508362e-06
0.01428756
8.5038e-06
0.01428784
8.498405e-06
0.01428811
8.492141e-06
0.01428838
8.484964e-06
0.01428866
8.47682e-06
0.01428894
8.467651e-06
0.01428922
8.457386e-06
0.0142895
8.445948e-06
0.01428978
8.433246e-06
0.01429006
8.419178e-06
0.01429035
8.40363e-06
0.01429064
8.38647e-06
0.01429093
8.367551e-06
0.01429122
8.346706e-06
0.01429152
8.323744e-06
0.01429182
8.298452e-06
0.01429213
8.270583e-06
0.01429244
8.239859e-06
0.01429276
8.205961e-06
0.01429308
8.168523e-06
0.0142934
8.127124e-06
0.01429373
8.081278e-06
0.01429407
8.030422e-06
0.01429442
7.973899e-06
0.01429478
7.910943e-06
0.01429514
7.84065e-06
0.01429552
7.761956e-06
0.01429591
7.673594e-06
0.01429631
7.574053e-06
0.01429672
7.461516e-06
0.01429715
7.333794e-06
0.0142976
7.188226e-06
0.01429806
7.021573e-06
0.01429855
6.829875e-06
0.01429905
6.608279e-06
0.01429958
6.350845e-06
0.01430012
6.050338e-06
0.01430068
5.698027e-06
0.01430126
5.283584e-06
0.01430184
4.795189e-06
0.01430241
4.220157e-06
0.01430294
3.546213e-06
0.01430339
2.765206e-06
0.01430373
1.874719e-06
9.004758e-07
0.01426817
1.195465e-06
0.01426847
2.266675e-06
0.01426891
3.025356e-06
0.01426939
3.652642e-06
0.01426989
4.226956e-06
0.01427041
4.731981e-06
0.01427093
5.16254e-06
0.01427144
5.532111e-06
0.01427194
5.851891e-06
0.01427242
6.129015e-06
0.01427288
6.369709e-06
0.01427333
6.579569e-06
0.01427377
6.763259e-06
0.01427419
6.924626e-06
0.0142746
7.066882e-06
0.01427499
7.192715e-06
0.01427537
7.304375e-06
0.01427575
7.403752e-06
0.01427611
7.492437e-06
0.01427646
7.571778e-06
0.01427681
7.642918e-06
0.01427715
7.706836e-06
0.01427748
7.764367e-06
0.01427781
7.816232e-06
0.01427813
7.863052e-06
0.01427844
7.905366e-06
0.01427876
7.943644e-06
0.01427906
7.978293e-06
0.01427936
8.009672e-06
0.01427966
8.038096e-06
0.01427996
8.06384e-06
0.01428025
8.087149e-06
0.01428054
8.108237e-06
0.01428083
8.127296e-06
0.01428111
8.144494e-06
0.0142814
8.159979e-06
0.01428168
8.173885e-06
0.01428196
8.186329e-06
0.01428224
8.197412e-06
0.01428251
8.207228e-06
0.01428279
8.215855e-06
0.01428306
8.223365e-06
0.01428334
8.229816e-06
0.01428361
8.235262e-06
0.01428388
8.239746e-06
0.01428415
8.243306e-06
0.01428443
8.24597e-06
0.0142847
8.247762e-06
0.01428497
8.248698e-06
0.01428524
8.248789e-06
0.01428551
8.248037e-06
0.01428578
8.246441e-06
0.01428605
8.243992e-06
0.01428632
8.240675e-06
0.01428659
8.236469e-06
0.01428687
8.231346e-06
0.01428714
8.22527e-06
0.01428741
8.2182e-06
0.01428769
8.210085e-06
0.01428796
8.200866e-06
0.01428824
8.190475e-06
0.01428852
8.178833e-06
0.0142888
8.165853e-06
0.01428908
8.151432e-06
0.01428937
8.135456e-06
0.01428965
8.117796e-06
0.01428994
8.098305e-06
0.01429023
8.076817e-06
0.01429052
8.053146e-06
0.01429082
8.02708e-06
0.01429112
7.99838e-06
0.01429142
7.966774e-06
0.01429173
7.931953e-06
0.01429204
7.893567e-06
0.01429236
7.851214e-06
0.01429268
7.804434e-06
0.01429301
7.752699e-06
0.01429335
7.6954e-06
0.01429369
7.631833e-06
0.01429404
7.561178e-06
0.0142944
7.482482e-06
0.01429477
7.394628e-06
0.01429514
7.296301e-06
0.01429553
7.185954e-06
0.01429593
7.061751e-06
0.01429634
6.921512e-06
0.01429677
6.76264e-06
0.01429721
6.582038e-06
0.01429766
6.376011e-06
0.01429813
6.140163e-06
0.01429861
5.869293e-06
0.0142991
5.557314e-06
0.0142996
5.197229e-06
0.01430011
4.781237e-06
0.0143006
4.301063e-06
0.01430107
3.748731e-06
0.0143015
3.117772e-06
0.01430186
2.406087e-06
0.01430212
1.616491e-06
7.715784e-07
0.01426875
9.998903e-07
0.01426904
1.978185e-06
0.0142694
2.665181e-06
0.01426981
3.248168e-06
0.01427025
3.794598e-06
0.0142707
4.283986e-06
0.01427115
4.709566e-06
0.0142716
5.081039e-06
0.01427205
5.406765e-06
0.01427248
5.69234e-06
0.01427291
5.942936e-06
0.01427332
6.163379e-06
0.01427373
6.357817e-06
0.01427412
6.529771e-06
0.01427451
6.682247e-06
0.01427488
6.817807e-06
0.01427525
6.938635e-06
0.01427561
7.04659e-06
0.01427595
7.14326e-06
0.0142763
7.230003e-06
0.01427663
7.307988e-06
0.01427696
7.37822e-06
0.01427728
7.441566e-06
0.0142776
7.498778e-06
0.01427791
7.550511e-06
0.01427822
7.597335e-06
0.01427852
7.639748e-06
0.01427882
7.678187e-06
0.01427912
7.713038e-06
0.01427941
7.744637e-06
0.0142797
7.773284e-06
0.01427999
7.799244e-06
0.01428028
7.82275e-06
0.01428056
7.844009e-06
0.01428084
7.863207e-06
0.01428112
7.880506e-06
0.0142814
7.89605e-06
0.01428167
7.90997e-06
0.01428195
7.922378e-06
0.01428222
7.933374e-06
0.01428249
7.943047e-06
0.01428277
7.951474e-06
0.01428304
7.958722e-06
0.01428331
7.964847e-06
0.01428358
7.9699e-06
0.01428385
7.97392e-06
0.01428412
7.976941e-06
0.01428438
7.978987e-06
0.01428465
7.980076e-06
0.01428492
7.98022e-06
0.01428519
7.979423e-06
0.01428546
7.977682e-06
0.01428573
7.974987e-06
0.014286
7.971322e-06
0.01428627
7.966663e-06
0.01428654
7.96098e-06
0.01428681
7.954233e-06
0.01428708
7.946375e-06
0.01428735
7.93735e-06
0.01428763
7.927093e-06
0.0142879
7.91553e-06
0.01428818
7.902574e-06
0.01428846
7.888126e-06
0.01428873
7.872076e-06
0.01428902
7.854298e-06
0.0142893
7.834649e-06
0.01428958
7.812969e-06
0.01428987
7.789078e-06
0.01429016
7.762772e-06
0.01429046
7.733821e-06
0.01429075
7.701966e-06
0.01429105
7.666913e-06
0.01429136
7.628331e-06
0.01429166
7.585842e-06
0.01429198
7.539018e-06
0.01429229
7.487372e-06
0.01429261
7.430344e-06
0.01429294
7.367296e-06
0.01429328
7.297492e-06
0.01429362
7.220086e-06
0.01429397
7.134098e-06
0.01429432
7.038394e-06
0.01429469
6.931654e-06
0.01429506
6.81234e-06
0.01429544
6.678658e-06
0.01429584
6.528511e-06
0.01429624
6.359446e-06
0.01429665
6.168603e-06
0.01429708
5.952652e-06
0.01429751
5.707748e-06
0.01429795
5.429493e-06
0.01429839
5.112944e-06
0.01429884
4.752695e-06
0.01429928
4.34308e-06
0.0142997
3.878569e-06
0.01430009
3.354486e-06
0.01430044
2.767971e-06
0.01430073
2.119965e-06
0.01430093
1.415102e-06
6.714922e-07
0.01426899
9.355349e-07
0.0142692
1.778285e-06
0.01426948
2.385628e-06
0.0142698
2.923615e-06
0.01427017
3.435726e-06
0.01427055
3.900701e-06
0.01427095
4.311994e-06
0.01427135
4.676664e-06
0.01427176
5.00072e-06
0.01427216
5.288244e-06
0.01427256
5.543268e-06
0.01427296
5.769727e-06
0.01427334
5.971124e-06
0.01427372
6.150521e-06
0.01427409
6.310605e-06
0.01427446
6.453721e-06
0.01427481
6.581904e-06
0.01427516
6.696922e-06
0.0142755
6.800306e-06
0.01427584
6.893385e-06
0.01427617
6.977314e-06
0.0142765
7.053098e-06
0.01427682
7.121614e-06
0.01427713
7.183628e-06
0.01427744
7.239809e-06
0.01427775
7.290748e-06
0.01427805
7.336961e-06
0.01427835
7.378904e-06
0.01427865
7.416982e-06
0.01427894
7.45155e-06
0.01427923
7.482925e-06
0.01427952
7.511387e-06
0.0142798
7.537185e-06
0.01428009
7.56054e-06
0.01428037
7.58165e-06
0.01428065
7.60069e-06
0.01428092
7.617815e-06
0.0142812
7.633165e-06
0.01428148
7.646861e-06
0.01428175
7.659011e-06
0.01428202
7.669712e-06
0.0142823
7.679046e-06
0.01428257
7.687087e-06
0.01428284
7.693896e-06
0.01428311
7.699527e-06
0.01428338
7.704023e-06
0.01428365
7.70742e-06
0.01428392
7.709746e-06
0.01428419
7.711019e-06
0.01428446
7.711253e-06
0.01428472
7.710452e-06
0.01428499
7.708613e-06
0.01428526
7.705725e-06
0.01428553
7.70177e-06
0.0142858
7.696724e-06
0.01428607
7.690551e-06
0.01428634
7.683209e-06
0.01428662
7.674649e-06
0.01428689
7.664808e-06
0.01428716
7.653617e-06
0.01428744
7.640994e-06
0.01428771
7.626846e-06
0.01428799
7.611068e-06
0.01428827
7.593538e-06
0.01428855
7.574123e-06
0.01428883
7.552668e-06
0.01428911
7.529003e-06
0.0142894
7.502934e-06
0.01428969
7.474243e-06
0.01428998
7.442687e-06
0.01429027
7.40799e-06
0.01429057
7.369842e-06
0.01429087
7.327894e-06
0.01429117
7.281751e-06
0.01429148
7.230966e-06
0.01429179
7.175031e-06
0.01429211
7.113371e-06
0.01429243
7.04533e-06
0.01429276
6.97016e-06
0.01429309
6.887005e-06
0.01429343
6.794887e-06
0.01429378
6.692681e-06
0.01429413
6.579094e-06
0.01429449
6.452641e-06
0.01429486
6.311614e-06
0.01429523
6.154047e-06
0.01429561
5.97769e-06
0.014296
5.779969e-06
0.0142964
5.557968e-06
0.0142968
5.308412e-06
0.0142972
5.027683e-06
0.0142976
4.711881e-06
0.01429799
4.356945e-06
0.01429838
3.958896e-06
0.01429874
3.51421e-06
0.01429908
3.020411e-06
0.01429937
2.476782e-06
0.0142996
1.885701e-06
0.01429977
1.252246e-06
5.908992e-07
0.01426936
8.258688e-07
0.01426955
1.593166e-06
0.0142698
2.143742e-06
0.01427008
2.638777e-06
0.0142704
3.117329e-06
0.01427075
3.558007e-06
0.01427111
3.953652e-06
0.01427147
4.309217e-06
0.01427185
4.628892e-06
0.01427222
4.915512e-06
0.01427259
5.17213e-06
0.01427296
5.401901e-06
0.01427332
5.607745e-06
0.01427368
5.792294e-06
0.01427403
5.957923e-06
0.01427438
6.106749e-06
0.01427472
6.240647e-06
0.01427505
6.361274e-06
0.01427538
6.470084e-06
0.01427571
6.568359e-06
0.01427603
6.657222e-06
0.01427634
6.737664e-06
0.01427666
6.810555e-06
0.01427696
6.876662e-06
0.01427726
6.93666e-06
0.01427756
6.991148e-06
0.01427786
7.040654e-06
0.01427815
7.085647e-06
0.01427844
7.126542e-06
0.01427873
7.163708e-06
0.01427902
7.197476e-06
0.0142793
7.228136e-06
0.01427958
7.255951e-06
0.01427986
7.281152e-06
0.01428014
7.303947e-06
0.01428041
7.324521e-06
0.01428069
7.343039e-06
0.01428096
7.359646e-06
0.01428123
7.374474e-06
0.01428151
7.387637e-06
0.01428178
7.399237e-06
0.01428205
7.409362e-06
0.01428231
7.418091e-06
0.01428258
7.425489e-06
0.01428285
7.431614e-06
0.01428312
7.436511e-06
0.01428338
7.44022e-06
0.01428365
7.44277e-06
0.01428392
7.444181e-06
0.01428419
7.444466e-06
0.01428445
7.443631e-06
0.01428472
7.441672e-06
0.01428499
7.438578e-06
0.01428525
7.43433e-06
0.01428552
7.4289e-06
0.01428579
7.422252e-06
0.01428606
7.414341e-06
0.01428633
7.405112e-06
0.0142866
7.394501e-06
0.01428687
7.382432e-06
0.01428714
7.368819e-06
0.01428741
7.353563e-06
0.01428769
7.336552e-06
0.01428796
7.317657e-06
0.01428824
7.296737e-06
0.01428852
7.273628e-06
0.0142888
7.248152e-06
0.01428908
7.220103e-06
0.01428937
7.189255e-06
0.01428966
7.155352e-06
0.01428995
7.118107e-06
0.01429024
7.077198e-06
0.01429054
7.032265e-06
0.01429083
6.982901e-06
0.01429114
6.928647e-06
0.01429144
6.868987e-06
0.01429175
6.803339e-06
0.01429207
6.731043e-06
0.01429239
6.651353e-06
0.01429271
6.563423e-06
0.01429304
6.466291e-06
0.01429337
6.358869e-06
0.01429371
6.239916e-06
0.01429406
6.10803e-06
0.01429441
5.961617e-06
0.01429476
5.798877e-06
0.01429512
5.617788e-06
0.01429548
5.416089e-06
0.01429585
5.191279e-06
0.01429622
4.940633e-06
0.01429658
4.661246e-06
0.01429695
4.350111e-06
0.0142973
4.004268e-06
0.01429764
3.621029e-06
0.01429795
3.198297e-06
0.01429824
2.735029e-06
0.01429848
2.231722e-06
0.01429868
1.691298e-06
0.01429881
1.118586e-06
5.250442e-07
0.01426961
7.639651e-07
0.01426976
1.448557e-06
0.01426996
1.945462e-06
0.0142702
2.402269e-06
0.01427047
2.848465e-06
0.01427077
3.263458e-06
0.01427108
3.640438e-06
0.01427141
3.98302e-06
0.01427174
4.294136e-06
0.01427208
4.575697e-06
0.01427242
4.82997e-06
0.01427276
5.059438e-06
0.01427311
5.266477e-06
0.01427344
5.453295e-06
0.01427378
5.621932e-06
0.01427411
5.774252e-06
0.01427444
5.911936e-06
0.01427476
6.036495e-06
0.01427509
6.149277e-06
0.0142754
6.251483e-06
0.01427571
6.344185e-06
0.01427602
6.428332e-06
0.01427633
6.504769e-06
0.01427663
6.574247e-06
0.01427693
6.637433e-06
0.01427723
6.694922e-06
0.01427752
6.747243e-06
0.01427781
6.794866e-06
0.0142781
6.838213e-06
0.01427838
6.877659e-06
0.01427867
6.91354e-06
0.01427895
6.946155e-06
0.01427923
6.975774e-06
0.01427951
7.002635e-06
0.01427979
7.026954e-06
0.01428006
7.048923e-06
0.01428034
7.068712e-06
0.01428061
7.086475e-06
0.01428088
7.102347e-06
0.01428115
7.116449e-06
0.01428142
7.128887e-06
0.01428169
7.139755e-06
0.01428196
7.149133e-06
0.01428223
7.157091e-06
0.0142825
7.16369e-06
0.01428276
7.168979e-06
0.01428303
7.172997e-06
0.0142833
7.175775e-06
0.01428356
7.177337e-06
0.01428383
7.177694e-06
0.0142841
7.176854e-06
0.01428436
7.174811e-06
0.01428463
7.171554e-06
0.0142849
7.167063e-06
0.01428517
7.161309e-06
0.01428543
7.154253e-06
0.0142857
7.145849e-06
0.01428597
7.136037e-06
0.01428624
7.124752e-06
0.01428651
7.111912e-06
0.01428678
7.097428e-06
0.01428706
7.081196e-06
0.01428733
7.063097e-06
0.0142876
7.043e-06
0.01428788
7.020753e-06
0.01428816
6.99619e-06
0.01428844
6.969122e-06
0.01428872
6.939339e-06
0.014289
6.906606e-06
0.01428928
6.870659e-06
0.01428957
6.831204e-06
0.01428986
6.787912e-06
0.01429015
6.740417e-06
0.01429045
6.688305e-06
0.01429074
6.631115e-06
0.01429104
6.56833e-06
0.01429135
6.49937e-06
0.01429166
6.423583e-06
0.01429197
6.340236e-06
0.01429228
6.248508e-06
0.0142926
6.147471e-06
0.01429292
6.036089e-06
0.01429325
5.913195e-06
0.01429358
5.777485e-06
0.01429391
5.627501e-06
0.01429425
5.461627e-06
0.01429459
5.278076e-06
0.01429493
5.074898e-06
0.01429527
4.849991e-06
0.01429561
4.601131e-06
0.01429595
4.32603e-06
0.01429628
4.022425e-06
0.01429659
3.688221e-06
0.01429689
3.321686e-06
0.01429717
2.921711e-06
0.01429742
2.488151e-06
0.01429762
2.022155e-06
0.01429779
1.526742e-06
0.0142979
1.006275e-06
4.699437e-07
0.01426989
6.917114e-07
0.01427002
1.317465e-06
0.0142702
1.771131e-06
0.01427041
2.19224e-06
0.01427065
2.607412e-06
0.01427092
2.997216e-06
0.01427121
3.355037e-06
0.01427151
3.683485e-06
0.01427182
3.984539e-06
0.01427213
4.25936e-06
0.01427245
4.509545e-06
0.01427277
4.736983e-06
0.0142731
4.943558e-06
0.01427342
5.131084e-06
0.01427374
5.301283e-06
0.01427406
5.455769e-06
0.01427437
5.596031e-06
0.01427469
5.723426e-06
0.014275
5.83919e-06
0.0142753
5.944439e-06
0.01427561
6.040177e-06
0.01427591
6.127309e-06
0.0142762
6.206645e-06
0.0142765
6.278912e-06
0.01427679
6.344762e-06
0.01427708
6.40478e-06
0.01427737
6.459489e-06
0.01427766
6.509359e-06
0.01427794
6.55481e-06
0.01427822
6.596221e-06
0.0142785
6.63393e-06
0.01427878
6.668241e-06
0.01427905
6.699429e-06
0.01427933
6.727737e-06
0.0142796
6.753387e-06
0.01427987
6.776574e-06
0.01428014
6.797476e-06
0.01428041
6.816249e-06
0.01428068
6.833035e-06
0.01428095
6.847957e-06
0.01428122
6.861127e-06
0.01428149
6.872641e-06
0.01428175
6.882584e-06
0.01428202
6.891028e-06
0.01428229
6.898035e-06
0.01428255
6.903658e-06
0.01428282
6.907938e-06
0.01428308
6.910906e-06
0.01428335
6.912588e-06
0.01428361
6.912995e-06
0.01428387
6.912135e-06
0.01428414
6.910002e-06
0.0142844
6.906586e-06
0.01428467
6.901865e-06
0.01428493
6.895808e-06
0.0142852
6.888376e-06
0.01428547
6.879519e-06
0.01428573
6.869177e-06
0.014286
6.85728e-06
0.01428627
6.843745e-06
0.01428654
6.828479e-06
0.01428681
6.811373e-06
0.01428708
6.792305e-06
0.01428735
6.77114e-06
0.01428762
6.747721e-06
0.0142879
6.721877e-06
0.01428817
6.693416e-06
0.01428845
6.66212e-06
0.01428873
6.627752e-06
0.01428901
6.590042e-06
0.01428929
6.548694e-06
0.01428958
6.503376e-06
0.01428986
6.453719e-06
0.01429015
6.39931e-06
0.01429044
6.339692e-06
0.01429074
6.274352e-06
0.01429103
6.202723e-06
0.01429133
6.124168e-06
0.01429164
6.037979e-06
0.01429194
5.943368e-06
0.01429225
5.839458e-06
0.01429256
5.725274e-06
0.01429287
5.599735e-06
0.01429319
5.461647e-06
0.01429351
5.309698e-06
0.01429383
5.142456e-06
0.01429415
4.95837e-06
0.01429446
4.755785e-06
0.01429478
4.532961e-06
0.01429509
4.288114e-06
0.0142954
4.019476e-06
0.0142957
3.725388e-06
0.01429598
3.404417e-06
0.01429625
3.055527e-06
0.01429649
2.678277e-06
0.01429671
2.273067e-06
0.01429689
1.84135e-06
0.01429703
1.386017e-06
0.01429712
9.108891e-07
4.233556e-07
0.01427011
6.389311e-07
0.01427022
1.207454e-06
0.01427037
1.621896e-06
0.01427056
2.011394e-06
0.01427077
2.398053e-06
0.014271
2.763697e-06
0.01427126
3.10218e-06
0.01427152
3.415448e-06
0.0142718
3.704813e-06
0.01427209
3.970918e-06
0.01427239
4.214857e-06
0.01427269
4.438059e-06
0.01427299
4.642005e-06
0.01427329
4.828169e-06
0.01427359
4.997992e-06
0.01427389
5.152855e-06
0.0142742
5.294056e-06
0.0142745
5.422803e-06
0.0142748
5.540209e-06
0.01427509
5.647294e-06
0.01427539
5.744989e-06
0.01427568
5.834138e-06
0.01427597
5.915509e-06
0.01427626
5.989794e-06
0.01427655
6.05762e-06
0.01427683
6.119553e-06
0.01427712
6.176103e-06
0.0142774
6.22773e-06
0.01427768
6.274849e-06
0.01427795
6.317836e-06
0.01427823