/*--------------------------------*- C++ -*----------------------------------*\
| =========                 |                                                 |
| \\      /  F ield         | OpenFOAM: The Open Source CFD Toolbox           |
|  \\    /   O peration     | Version:  2.3.0                                 |
|   \\  /    A nd           | Web:      www.OpenFOAM.org                      |
|    \\/     M anipulation  |                                                 |
\*---------------------------------------------------------------------------*/
FoamFile
{
    version     2.0;
    format      ascii;
    class       volVectorField;
    location    "9800/topAir";
    object      U;
}
// * * * * * * * * * * * * * * * * * * * * * * * * * * * * * * * * * * * * * //

dimensions      [0 1 -1 0 0 0 0];

internalField   nonuniform List<vector> 
4000
(
(18.08569 0.008448003 0)
(13.55094 0.008910859 0)
(11.71224 0.007635494 0)
(12.19635 0.007416572 0)
(12.38069 0.007465905 0)
(12.32639 0.007477763 0)
(12.30516 0.007494146 0)
(12.30833 0.007526156 0)
(12.30777 0.007560916 0)
(12.30465 0.007593475 0)
(12.30189 0.007623405 0)
(12.29935 0.007650539 0)
(12.29673 0.007674787 0)
(12.29406 0.007696283 0)
(12.29137 0.007715258 0)
(12.28866 0.007731949 0)
(12.28593 0.007746585 0)
(12.28319 0.007759374 0)
(12.28043 0.007770507 0)
(12.27767 0.007780152 0)
(12.27489 0.007788457 0)
(12.2721 0.007795554 0)
(12.26931 0.007801559 0)
(12.2665 0.007806572 0)
(12.26369 0.007810685 0)
(12.26088 0.007813976 0)
(12.25805 0.007816517 0)
(12.25523 0.007818371 0)
(12.2524 0.007819593 0)
(12.24956 0.007820234 0)
(12.24672 0.007820339 0)
(12.24388 0.007819949 0)
(12.24104 0.007819101 0)
(12.23819 0.007817827 0)
(12.23534 0.007816157 0)
(12.23249 0.007814118 0)
(12.22964 0.007811736 0)
(12.22678 0.007809031 0)
(12.22393 0.007806026 0)
(12.22107 0.007802737 0)
(12.21821 0.007799183 0)
(12.21535 0.007795378 0)
(12.21249 0.007791337 0)
(12.20963 0.007787073 0)
(12.20677 0.007782596 0)
(12.20391 0.007777919 0)
(12.20105 0.007773049 0)
(12.19818 0.007767997 0)
(12.19532 0.00776277 0)
(12.19246 0.007757375 0)
(12.1896 0.007751818 0)
(12.18674 0.007746105 0)
(12.18387 0.007740241 0)
(12.18101 0.007734229 0)
(12.17815 0.007728073 0)
(12.17529 0.007721776 0)
(12.17243 0.007715339 0)
(12.16958 0.007708764 0)
(12.16672 0.007702052 0)
(12.16387 0.007695201 0)
(12.16101 0.007688212 0)
(12.15816 0.007681081 0)
(12.15531 0.007673807 0)
(12.15246 0.007666384 0)
(12.14962 0.007658809 0)
(12.14677 0.007651075 0)
(12.14393 0.007643175 0)
(12.1411 0.007635099 0)
(12.13826 0.007626836 0)
(12.13543 0.007618374 0)
(12.1326 0.007609698 0)
(12.12978 0.007600789 0)
(12.12697 0.007591628 0)
(12.12415 0.007582188 0)
(12.12135 0.007572442 0)
(12.11855 0.007562356 0)
(12.11576 0.007551888 0)
(12.11297 0.007540991 0)
(12.1102 0.007529608 0)
(12.10743 0.007517668 0)
(12.10468 0.007505088 0)
(12.10194 0.007491765 0)
(12.09921 0.007477572 0)
(12.0965 0.007462351 0)
(12.09381 0.007445901 0)
(12.09114 0.007427965 0)
(12.0885 0.007408209 0)
(12.08588 0.007386185 0)
(12.0833 0.007361284 0)
(12.08076 0.007332649 0)
(12.07827 0.00729903 0)
(12.07584 0.007258517 0)
(12.07349 0.007208028 0)
(12.07124 0.007142245 0)
(12.06913 0.007051489 0)
(12.0672 0.00691613 0)
(12.06558 0.006697794 0)
(12.06438 0.006297721 0)
(12.06416 0.005558402 0)
(12.06467 0.003752724 0)
(18.09876 0.006994604 0)
(13.565 0.008789804 0)
(11.73297 0.008019861 0)
(12.21974 0.007994615 0)
(12.40671 0.008251744 0)
(12.35572 0.008403096 0)
(12.33768 0.008499804 0)
(12.3439 0.008583896 0)
(12.34641 0.00865261 0)
(12.34636 0.00870559 0)
(12.34666 0.008746761 0)
(12.34718 0.008779046 0)
(12.34762 0.0088043 0)
(12.348 0.008823979 0)
(12.34836 0.008839244 0)
(12.3487 0.008850986 0)
(12.34902 0.008859889 0)
(12.34933 0.008866487 0)
(12.34962 0.008871199 0)
(12.34989 0.008874359 0)
(12.35015 0.008876232 0)
(12.3504 0.008877032 0)
(12.35064 0.008876932 0)
(12.35087 0.008876075 0)
(12.35109 0.008874578 0)
(12.35131 0.008872536 0)
(12.35151 0.008870032 0)
(12.35171 0.008867132 0)
(12.3519 0.008863892 0)
(12.35208 0.008860361 0)
(12.35226 0.00885658 0)
(12.35243 0.008852582 0)
(12.3526 0.008848396 0)
(12.35276 0.008844049 0)
(12.35292 0.00883956 0)
(12.35308 0.008834948 0)
(12.35323 0.008830228 0)
(12.35337 0.008825413 0)
(12.35351 0.008820513 0)
(12.35365 0.008815538 0)
(12.35378 0.008810495 0)
(12.35392 0.008805389 0)
(12.35404 0.008800226 0)
(12.35417 0.008795007 0)
(12.35429 0.008789735 0)
(12.35441 0.008784412 0)
(12.35452 0.008779036 0)
(12.35464 0.008773607 0)
(12.35475 0.008768124 0)
(12.35486 0.008762582 0)
(12.35497 0.008756978 0)
(12.35507 0.008751307 0)
(12.35517 0.008745563 0)
(12.35527 0.008739739 0)
(12.35537 0.008733827 0)
(12.35547 0.008727818 0)
(12.35557 0.0087217 0)
(12.35566 0.008715463 0)
(12.35575 0.008709092 0)
(12.35585 0.008702572 0)
(12.35594 0.008695887 0)
(12.35603 0.008689017 0)
(12.35612 0.008681941 0)
(12.35621 0.008674636 0)
(12.3563 0.008667074 0)
(12.35639 0.008659226 0)
(12.35648 0.008651057 0)
(12.35657 0.00864253 0)
(12.35666 0.008633601 0)
(12.35675 0.008624222 0)
(12.35685 0.008614337 0)
(12.35695 0.008603882 0)
(12.35704 0.008592785 0)
(12.35715 0.008580962 0)
(12.35725 0.008568315 0)
(12.35736 0.008554733 0)
(12.35747 0.008540083 0)
(12.35759 0.00852421 0)
(12.35772 0.00850693 0)
(12.35785 0.008488023 0)
(12.35799 0.008467225 0)
(12.35814 0.008444215 0)
(12.3583 0.008418598 0)
(12.35848 0.008389884 0)
(12.35867 0.008357458 0)
(12.35888 0.008320536 0)
(12.35911 0.008278101 0)
(12.35936 0.008228811 0)
(12.35965 0.00817086 0)
(12.35997 0.008101756 0)
(12.36033 0.008017964 0)
(12.36074 0.007914312 0)
(12.36122 0.007782958 0)
(12.36178 0.007611493 0)
(12.36245 0.007379561 0)
(12.36324 0.00705132 0)
(12.36418 0.006564573 0)
(12.3653 0.005786627 0)
(12.36654 0.004520639 0)
(12.36783 0.002028278 0)
(18.09282 0.0002217808 0)
(13.55898 0.00292819 0)
(11.72513 0.004150871 0)
(12.21203 0.004811149 0)
(12.39904 0.005386956 0)
(12.34791 0.005807713 0)
(12.32981 0.00610687 0)
(12.33602 0.006339782 0)
(12.33854 0.006527461 0)
(12.33851 0.006680317 0)
(12.33884 0.006807254 0)
(12.33939 0.006914647 0)
(12.33987 0.007006754 0)
(12.3403 0.007086637 0)
(12.34071 0.007156601 0)
(12.3411 0.007218391 0)
(12.34148 0.007273353 0)
(12.34185 0.007322546 0)
(12.3422 0.007366814 0)
(12.34254 0.007406842 0)
(12.34287 0.007443189 0)
(12.34319 0.007476318 0)
(12.3435 0.007506616 0)
(12.3438 0.00753441 0)
(12.3441 0.007559977 0)
(12.3444 0.007583554 0)
(12.34468 0.007605345 0)
(12.34496 0.007625526 0)
(12.34524 0.007644252 0)
(12.34551 0.007661655 0)
(12.34578 0.007677854 0)
(12.34605 0.007692952 0)
(12.34631 0.007707042 0)
(12.34658 0.007720203 0)
(12.34683 0.007732508 0)
(12.34709 0.00774402 0)
(12.34734 0.007754797 0)
(12.3476 0.007764888 0)
(12.34785 0.00777434 0)
(12.34809 0.007783192 0)
(12.34834 0.007791479 0)
(12.34859 0.007799234 0)
(12.34883 0.007806483 0)
(12.34908 0.007813252 0)
(12.34932 0.007819562 0)
(12.34956 0.007825431 0)
(12.34981 0.007830875 0)
(12.35005 0.007835906 0)
(12.35029 0.007840536 0)
(12.35053 0.007844772 0)
(12.35077 0.007848619 0)
(12.35101 0.007852082 0)
(12.35126 0.007855161 0)
(12.3515 0.007857855 0)
(12.35174 0.00786016 0)
(12.35198 0.007862069 0)
(12.35222 0.007863574 0)
(12.35247 0.007864663 0)
(12.35271 0.007865322 0)
(12.35295 0.007865532 0)
(12.3532 0.007865273 0)
(12.35345 0.007864519 0)
(12.3537 0.007863243 0)
(12.35395 0.007861409 0)
(12.3542 0.00785898 0)
(12.35445 0.007855912 0)
(12.35471 0.007852153 0)
(12.35497 0.007847646 0)
(12.35523 0.007842325 0)
(12.35549 0.007836113 0)
(12.35576 0.007828923 0)
(12.35603 0.007820655 0)
(12.3563 0.007811193 0)
(12.35658 0.007800403 0)
(12.35687 0.007788132 0)
(12.35716 0.007774197 0)
(12.35745 0.007758387 0)
(12.35776 0.007740452 0)
(12.35807 0.007720097 0)
(12.35839 0.00769697 0)
(12.35872 0.007670645 0)
(12.35906 0.007640609 0)
(12.35941 0.007606233 0)
(12.35977 0.00756674 0)
(12.36016 0.007521157 0)
(12.36056 0.007468255 0)
(12.36098 0.007406453 0)
(12.36142 0.007333694 0)
(12.36189 0.007247246 0)
(12.3624 0.007143423 0)
(12.36294 0.00701714 0)
(12.36352 0.006861245 0)
(12.36416 0.006665461 0)
(12.36486 0.006414715 0)
(12.36563 0.006086609 0)
(12.36648 0.005647362 0)
(12.36741 0.005047234 0)
(12.36841 0.004212492 0)
(12.36939 0.003053384 0)
(12.37032 0.001476076 0)
(18.09524 0.002248431 0)
(13.56101 0.004426496 0)
(11.72599 0.005405956 0)
(12.21241 0.005905457 0)
(12.39927 0.006355097 0)
(12.34799 0.006717533 0)
(12.32978 0.006987354 0)
(12.33593 0.007200768 0)
(12.33839 0.007375774 0)
(12.33831 0.007519813 0)
(12.33861 0.007639234 0)
(12.33913 0.007739246 0)
(12.33958 0.007823616 0)
(12.33999 0.007895186 0)
(12.34038 0.007956197 0)
(12.34076 0.008008429 0)
(12.34112 0.008053301 0)
(12.34147 0.008091959 0)
(12.3418 0.008125338 0)
(12.34213 0.008154206 0)
(12.34245 0.008179196 0)
(12.34276 0.008200836 0)
(12.34306 0.008219569 0)
(12.34335 0.008235767 0)
(12.34364 0.008249747 0)
(12.34392 0.008261777 0)
(12.3442 0.008272087 0)
(12.34448 0.008280875 0)
(12.34474 0.008288311 0)
(12.34501 0.008294542 0)
(12.34527 0.008299697 0)
(12.34553 0.008303887 0)
(12.34579 0.00830721 0)
(12.34604 0.008309749 0)
(12.34629 0.00831158 0)
(12.34654 0.008312767 0)
(12.34679 0.008313368 0)
(12.34704 0.008313432 0)
(12.34728 0.008313002 0)
(12.34753 0.008312116 0)
(12.34777 0.008310808 0)
(12.34801 0.008309105 0)
(12.34825 0.008307031 0)
(12.34849 0.008304606 0)
(12.34873 0.008301847 0)
(12.34897 0.008298767 0)
(12.34921 0.008295377 0)
(12.34944 0.008291682 0)
(12.34968 0.008287689 0)
(12.34992 0.008283398 0)
(12.35015 0.008278808 0)
(12.35039 0.008273916 0)
(12.35063 0.008268714 0)
(12.35087 0.008263193 0)
(12.35111 0.00825734 0)
(12.35135 0.008251141 0)
(12.35158 0.008244576 0)
(12.35183 0.008237623 0)
(12.35207 0.008230256 0)
(12.35231 0.008222446 0)
(12.35255 0.008214159 0)
(12.3528 0.008205356 0)
(12.35304 0.008195992 0)
(12.35329 0.008186018 0)
(12.35354 0.008175376 0)
(12.35379 0.008164004 0)
(12.35405 0.008151827 0)
(12.3543 0.008138765 0)
(12.35456 0.008124724 0)
(12.35482 0.008109597 0)
(12.35509 0.008093266 0)
(12.35536 0.008075591 0)
(12.35563 0.008056415 0)
(12.35591 0.008035557 0)
(12.35619 0.008012807 0)
(12.35648 0.007987922 0)
(12.35677 0.007960618 0)
(12.35708 0.007930564 0)
(12.35738 0.007897368 0)
(12.3577 0.007860566 0)
(12.35803 0.007819603 0)
(12.35836 0.007773809 0)
(12.35871 0.007722373 0)
(12.35907 0.0076643 0)
(12.35945 0.007598358 0)
(12.35984 0.007523006 0)
(12.36025 0.007436295 0)
(12.36069 0.007335725 0)
(12.36114 0.007218056 0)
(12.36163 0.007079023 0)
(12.36214 0.006912938 0)
(12.36269 0.006712119 0)
(12.36328 0.006466064 0)
(12.36391 0.00616028 0)
(12.36459 0.005774726 0)
(12.36531 0.00528176 0)
(12.36605 0.004644393 0)
(12.36679 0.003815261 0)
(12.36743 0.002742752 0)
(12.36798 0.001401869 0)
(18.09519 0.001191016 0)
(13.56078 0.002453204 0)
(11.72535 0.003238501 0)
(12.21171 0.003793322 0)
(12.39858 0.004307364 0)
(12.34726 0.004746697 0)
(12.32901 0.00509972 0)
(12.33513 0.005390231 0)
(12.33756 0.005634149 0)
(12.33747 0.005839769 0)
(12.33776 0.006014203 0)
(12.33827 0.006163536 0)
(12.33871 0.006292433 0)
(12.33911 0.006404501 0)
(12.3395 0.0065026 0)
(12.33988 0.00658901 0)
(12.34024 0.006665558 0)
(12.34058 0.006733718 0)
(12.34092 0.006794694 0)
(12.34125 0.006849471 0)
(12.34157 0.006898868 0)
(12.34187 0.006943565 0)
(12.34218 0.006984136 0)
(12.34247 0.007021064 0)
(12.34276 0.007054762 0)
(12.34305 0.007085582 0)
(12.34332 0.007113827 0)
(12.3436 0.00713976 0)
(12.34387 0.007163608 0)
(12.34414 0.007185571 0)
(12.3444 0.007205823 0)
(12.34466 0.007224515 0)
(12.34492 0.007241783 0)
(12.34517 0.007257745 0)
(12.34543 0.007272505 0)
(12.34568 0.007286158 0)
(12.34593 0.007298784 0)
(12.34617 0.007310457 0)
(12.34642 0.007321241 0)
(12.34666 0.007331192 0)
(12.34691 0.007340362 0)
(12.34715 0.007348793 0)
(12.34739 0.007356524 0)
(12.34763 0.007363589 0)
(12.34787 0.007370015 0)
(12.34811 0.007375827 0)
(12.34835 0.007381044 0)
(12.34859 0.007385681 0)
(12.34883 0.007389751 0)
(12.34906 0.007393261 0)
(12.3493 0.007396215 0)
(12.34954 0.007398613 0)
(12.34978 0.007400453 0)
(12.35002 0.007401727 0)
(12.35026 0.007402424 0)
(12.3505 0.007402529 0)
(12.35074 0.007402022 0)
(12.35098 0.007400881 0)
(12.35122 0.007399076 0)
(12.35146 0.007396574 0)
(12.3517 0.007393334 0)
(12.35195 0.007389313 0)
(12.35219 0.007384457 0)
(12.35244 0.007378706 0)
(12.35269 0.007371993 0)
(12.35294 0.007364239 0)
(12.3532 0.007355358 0)
(12.35345 0.007345248 0)
(12.35371 0.007333795 0)
(12.35397 0.007320869 0)
(12.35424 0.007306324 0)
(12.35451 0.007289989 0)
(12.35478 0.00727167 0)
(12.35505 0.007251145 0)
(12.35534 0.007228157 0)
(12.35562 0.007202408 0)
(12.35591 0.007173552 0)
(12.35621 0.007141185 0)
(12.35652 0.007104833 0)
(12.35683 0.007063932 0)
(12.35715 0.007017818 0)
(12.35748 0.00696569 0)
(12.35782 0.006906588 0)
(12.35818 0.006839343 0)
(12.35855 0.006762522 0)
(12.35893 0.006674361 0)
(12.35932 0.006572655 0)
(12.35974 0.006454638 0)
(12.36018 0.006316796 0)
(12.36063 0.006154639 0)
(12.36112 0.005962378 0)
(12.36163 0.005732518 0)
(12.36216 0.005455339 0)
(12.36272 0.005118294 0)
(12.36331 0.004705424 0)
(12.36391 0.004197083 0)
(12.36451 0.003570499 0)
(12.36508 0.002803391 0)
(12.36555 0.001878227 0)
(12.36594 0.0008159937 0)
(18.09619 0.001321231 0)
(13.56182 0.002620152 0)
(11.72614 0.003493848 0)
(12.21228 0.004142751 0)
(12.39903 0.0047063 0)
(12.34759 0.005178871 0)
(12.32923 0.005561145 0)
(12.33527 0.005875535 0)
(12.33764 0.006138601 0)
(12.3375 0.006360043 0)
(12.33774 0.006547574 0)
(12.33822 0.006707577 0)
(12.33863 0.006844993 0)
(12.33901 0.006963661 0)
(12.33937 0.007066645 0)
(12.33973 0.007156407 0)
(12.34007 0.007234944 0)
(12.34041 0.007303888 0)
(12.34073 0.007364583 0)
(12.34105 0.007418147 0)
(12.34135 0.007465512 0)
(12.34165 0.007507465 0)
(12.34195 0.007544673 0)
(12.34223 0.007577701 0)
(12.34252 0.007607036 0)
(12.34279 0.007633094 0)
(12.34307 0.007656235 0)
(12.34334 0.007676773 0)
(12.3436 0.007694978 0)
(12.34386 0.007711088 0)
(12.34412 0.007725309 0)
(12.34438 0.007737825 0)
(12.34463 0.007748795 0)
(12.34488 0.00775836 0)
(12.34513 0.007766645 0)
(12.34538 0.007773758 0)
(12.34563 0.007779797 0)
(12.34587 0.007784847 0)
(12.34611 0.007788982 0)
(12.34636 0.007792269 0)
(12.3466 0.007794765 0)
(12.34684 0.00779652 0)
(12.34708 0.007797578 0)
(12.34731 0.007797976 0)
(12.34755 0.007797746 0)
(12.34779 0.007796913 0)
(12.34803 0.007795497 0)
(12.34826 0.007793516 0)
(12.3485 0.00779098 0)
(12.34874 0.007787896 0)
(12.34897 0.007784266 0)
(12.34921 0.007780089 0)
(12.34944 0.007775357 0)
(12.34968 0.00777006 0)
(12.34992 0.007764183 0)
(12.35016 0.007757704 0)
(12.3504 0.007750599 0)
(12.35063 0.007742837 0)
(12.35087 0.007734382 0)
(12.35111 0.007725191 0)
(12.35136 0.007715215 0)
(12.3516 0.007704398 0)
(12.35184 0.007692677 0)
(12.35209 0.007679978 0)
(12.35234 0.007666219 0)
(12.35259 0.007651306 0)
(12.35284 0.007635134 0)
(12.35309 0.007617582 0)
(12.35335 0.007598515 0)
(12.35361 0.007577778 0)
(12.35387 0.007555197 0)
(12.35414 0.007530573 0)
(12.35441 0.007503678 0)
(12.35468 0.007474252 0)
(12.35496 0.007441995 0)
(12.35524 0.007406564 0)
(12.35553 0.007367558 0)
(12.35582 0.007324516 0)
(12.35612 0.007276894 0)
(12.35643 0.007224058 0)
(12.35674 0.007165258 0)
(12.35707 0.007099603 0)
(12.3574 0.007026031 0)
(12.35774 0.006943266 0)
(12.3581 0.006849764 0)
(12.35847 0.006743648 0)
(12.35885 0.00662262 0)
(12.35924 0.006483849 0)
(12.35966 0.00632383 0)
(12.36009 0.006138211 0)
(12.36053 0.005921569 0)
(12.361 0.005667168 0)
(12.36148 0.005366682 0)
(12.36198 0.005009973 0)
(12.36248 0.004585018 0)
(12.36299 0.004078268 0)
(12.36347 0.00347569 0)
(12.36391 0.002766264 0)
(12.36426 0.001944107 0)
(12.36453 0.001032398 0)
(18.09642 0.0009945213 0)
(13.56193 0.001967788 0)
(11.72597 0.002623248 0)
(12.212 0.00313986 0)
(12.39869 0.003612552 0)
(12.34719 0.004027536 0)
(12.32878 0.004379183 0)
(12.33478 0.004679983 0)
(12.33712 0.004939914 0)
(12.33696 0.005164961 0)
(12.33718 0.005360311 0)
(12.33764 0.005530632 0)
(12.33804 0.005679789 0)
(12.33841 0.005810948 0)
(12.33877 0.005926746 0)
(12.33912 0.006029384 0)
(12.33946 0.006120695 0)
(12.33979 0.006202215 0)
(12.34011 0.006275231 0)
(12.34042 0.00634083 0)
(12.34073 0.006399932 0)
(12.34103 0.006453319 0)
(12.34132 0.006501658 0)
(12.34161 0.00654552 0)
(12.34189 0.0065854 0)
(12.34217 0.006621722 0)
(12.34244 0.006654856 0)
(12.34271 0.006685123 0)
(12.34298 0.006712804 0)
(12.34324 0.006738145 0)
(12.3435 0.006761363 0)
(12.34376 0.006782646 0)
(12.34401 0.006802163 0)
(12.34427 0.006820062 0)
(12.34452 0.006836473 0)
(12.34476 0.006851514 0)
(12.34501 0.006865287 0)
(12.34526 0.006877881 0)
(12.3455 0.006889378 0)
(12.34574 0.006899847 0)
(12.34599 0.006909352 0)
(12.34623 0.006917945 0)
(12.34647 0.006925674 0)
(12.3467 0.006932578 0)
(12.34694 0.006938692 0)
(12.34718 0.006944044 0)
(12.34742 0.006948655 0)
(12.34766 0.006952544 0)
(12.34789 0.006955723 0)
(12.34813 0.006958198 0)
(12.34837 0.006959972 0)
(12.3486 0.006961042 0)
(12.34884 0.006961401 0)
(12.34908 0.006961035 0)
(12.34932 0.006959927 0)
(12.34955 0.006958054 0)
(12.34979 0.006955386 0)
(12.35003 0.006951889 0)
(12.35027 0.006947521 0)
(12.35051 0.006942234 0)
(12.35076 0.006935973 0)
(12.351 0.006928672 0)
(12.35124 0.00692026 0)
(12.35149 0.006910654 0)
(12.35174 0.00689976 0)
(12.35199 0.00688747 0)
(12.35224 0.006873666 0)
(12.35249 0.006858211 0)
(12.35274 0.006840952 0)
(12.353 0.006821714 0)
(12.35326 0.0068003 0)
(12.35353 0.006776487 0)
(12.35379 0.006750017 0)
(12.35407 0.006720601 0)
(12.35434 0.006687905 0)
(12.35462 0.006651546 0)
(12.3549 0.006611083 0)
(12.35519 0.006566005 0)
(12.35549 0.00651572 0)
(12.35579 0.006459539 0)
(12.3561 0.006396651 0)
(12.35642 0.006326106 0)
(12.35674 0.006246779 0)
(12.35708 0.006157334 0)
(12.35742 0.00605618 0)
(12.35777 0.005941407 0)
(12.35814 0.005810723 0)
(12.35851 0.005661361 0)
(12.3589 0.005489982 0)
(12.35931 0.005292556 0)
(12.35972 0.005064236 0)
(12.36014 0.004799244 0)
(12.36058 0.004490787 0)
(12.36102 0.004131092 0)
(12.36145 0.003711643 0)
(12.36188 0.003223851 0)
(12.36227 0.002660221 0)
(12.36262 0.002017261 0)
(12.36289 0.001296343 0)
(12.3631 0.0005192081 0)
(18.09699 0.0009726547 0)
(13.56251 0.001882451 0)
(11.72643 0.002529809 0)
(12.21239 0.003081812 0)
(12.39903 0.003596077 0)
(12.34747 0.004053147 0)
(12.329 0.004447273 0)
(12.33494 0.004788373 0)
(12.33724 0.005085021 0)
(12.33703 0.005343065 0)
(12.33722 0.005567832 0)
(12.33765 0.005764199 0)
(12.33802 0.005936299 0)
(12.33837 0.006087591 0)
(12.3387 0.006220992 0)
(12.33904 0.006338959 0)
(12.33936 0.00644356 0)
(12.33967 0.006536541 0)
(12.33998 0.006619382 0)
(12.34028 0.006693337 0)
(12.34058 0.006759479 0)
(12.34087 0.006818725 0)
(12.34115 0.006871865 0)
(12.34143 0.006919578 0)
(12.34171 0.006962455 0)
(12.34198 0.007001009 0)
(12.34224 0.007035686 0)
(12.34251 0.007066879 0)
(12.34277 0.00709493 0)
(12.34303 0.007120141 0)
(12.34328 0.007142779 0)
(12.34353 0.007163079 0)
(12.34379 0.007181249 0)
(12.34403 0.007197473 0)
(12.34428 0.007211915 0)
(12.34453 0.00722472 0)
(12.34477 0.007236016 0)
(12.34501 0.007245918 0)
(12.34525 0.007254527 0)
(12.34549 0.007261931 0)
(12.34573 0.00726821 0)
(12.34597 0.007273432 0)
(12.34621 0.007277657 0)
(12.34644 0.007280936 0)
(12.34668 0.007283314 0)
(12.34692 0.007284827 0)
(12.34715 0.007285505 0)
(12.34739 0.007285373 0)
(12.34762 0.007284447 0)
(12.34786 0.007282739 0)
(12.34809 0.007280254 0)
(12.34833 0.007276992 0)
(12.34856 0.007272948 0)
(12.3488 0.007268108 0)
(12.34903 0.007262455 0)
(12.34927 0.007255964 0)
(12.34951 0.007248605 0)
(12.34975 0.00724034 0)
(12.34998 0.007231124 0)
(12.35022 0.007220903 0)
(12.35046 0.007209617 0)
(12.3507 0.007197195 0)
(12.35095 0.007183556 0)
(12.35119 0.00716861 0)
(12.35144 0.007152252 0)
(12.35168 0.007134366 0)
(12.35193 0.007114818 0)
(12.35218 0.007093458 0)
(12.35243 0.007070119 0)
(12.35269 0.007044608 0)
(12.35295 0.00701671 0)
(12.35321 0.00698618 0)
(12.35347 0.00695274 0)
(12.35374 0.006916075 0)
(12.35401 0.006875823 0)
(12.35428 0.006831575 0)
(12.35456 0.006782858 0)
(12.35485 0.00672913 0)
(12.35514 0.006669766 0)
(12.35543 0.006604042 0)
(12.35573 0.006531118 0)
(12.35604 0.006450014 0)
(12.35635 0.006359586 0)
(12.35668 0.006258491 0)
(12.35701 0.006145151 0)
(12.35734 0.006017705 0)
(12.35769 0.00587396 0)
(12.35805 0.005711326 0)
(12.35841 0.005526754 0)
(12.35879 0.005316674 0)
(12.35917 0.005076934 0)
(12.35955 0.00480278 0)
(12.35994 0.004488892 0)
(12.36033 0.004129529 0)
(12.3607 0.003718869 0)
(12.36106 0.003251667 0)
(12.36139 0.002724202 0)
(12.36167 0.002136334 0)
(12.36189 0.00149162 0)
(12.36205 0.0008076292 0)
(18.0973 0.0008193386 0)
(13.56275 0.001584434 0)
(11.72652 0.002123794 0)
(12.2124 0.002589331 0)
(12.39899 0.003027522 0)
(12.34737 0.003420989 0)
(12.32885 0.003764966 0)
(12.33474 0.004067045 0)
(12.33701 0.004333453 0)
(12.33677 0.004568315 0)
(12.33693 0.004775501 0)
(12.33734 0.004958656 0)
(12.3377 0.005120942 0)
(12.33802 0.005265067 0)
(12.33835 0.005393368 0)
(12.33867 0.005507856 0)
(12.33899 0.005610259 0)
(12.33929 0.005702062 0)
(12.3396 0.005784541 0)
(12.33989 0.005858796 0)
(12.34018 0.005925776 0)
(12.34047 0.005986302 0)
(12.34075 0.006041088 0)
(12.34103 0.006090751 0)
(12.3413 0.006135833 0)
(12.34157 0.006176805 0)
(12.34184 0.00621408 0)
(12.3421 0.006248021 0)
(12.34236 0.006278947 0)
(12.34262 0.00630714 0)
(12.34287 0.006332848 0)
(12.34313 0.006356293 0)
(12.34338 0.006377667 0)
(12.34362 0.006397144 0)
(12.34387 0.006414878 0)
(12.34412 0.006431003 0)
(12.34436 0.00644564 0)
(12.3446 0.006458896 0)
(12.34485 0.006470865 0)
(12.34509 0.006481629 0)
(12.34533 0.006491261 0)
(12.34556 0.006499825 0)
(12.3458 0.006507375 0)
(12.34604 0.006513957 0)
(12.34628 0.006519611 0)
(12.34651 0.006524369 0)
(12.34675 0.006528257 0)
(12.34698 0.006531293 0)
(12.34722 0.00653349 0)
(12.34745 0.006534855 0)
(12.34769 0.00653539 0)
(12.34793 0.006535088 0)
(12.34816 0.006533939 0)
(12.3484 0.006531925 0)
(12.34863 0.006529023 0)
(12.34887 0.006525203 0)
(12.34911 0.006520428 0)
(12.34934 0.006514654 0)
(12.34958 0.006507828 0)
(12.34982 0.00649989 0)
(12.35006 0.006490772 0)
(12.3503 0.006480394 0)
(12.35054 0.006468667 0)
(12.35079 0.00645549 0)
(12.35103 0.006440747 0)
(12.35128 0.006424311 0)
(12.35152 0.006406036 0)
(12.35177 0.00638576 0)
(12.35202 0.006363299 0)
(12.35228 0.006338446 0)
(12.35253 0.00631097 0)
(12.35279 0.006280607 0)
(12.35305 0.006247062 0)
(12.35332 0.006209998 0)
(12.35358 0.006169035 0)
(12.35386 0.00612374 0)
(12.35413 0.00607362 0)
(12.35441 0.006018111 0)
(12.35469 0.00595657 0)
(12.35498 0.005888256 0)
(12.35527 0.005812316 0)
(12.35557 0.005727768 0)
(12.35588 0.005633477 0)
(12.35619 0.005528128 0)
(12.35651 0.005410198 0)
(12.35683 0.00527792 0)
(12.35716 0.005129254 0)
(12.3575 0.004961839 0)
(12.35784 0.00477297 0)
(12.35818 0.004559566 0)
(12.35853 0.004318168 0)
(12.35888 0.004044976 0)
(12.35923 0.003735944 0)
(12.35957 0.003386985 0)
(12.3599 0.002994314 0)
(12.36021 0.002555034 0)
(12.36049 0.002067852 0)
(12.36072 0.001534486 0)
(12.36089 0.0009594011 0)
(12.36103 0.0003566625 0)
(18.09769 0.0007681895 0)
(13.56312 0.001470029 0)
(11.72681 0.001975919 0)
(12.21265 0.002431963 0)
(12.39922 0.002872336 0)
(12.34756 0.00327723 0)
(12.329 0.003640096 0)
(12.33487 0.003965535 0)
(12.3371 0.004257475 0)
(12.33683 0.004518621 0)
(12.33696 0.004751889 0)
(12.33735 0.004960282 0)
(12.33769 0.005146566 0)
(12.338 0.005313233 0)
(12.33831 0.00546252 0)
(12.33861 0.005596413 0)
(12.33891 0.005716665 0)
(12.33921 0.005824816 0)
(12.3395 0.005922213 0)
(12.33978 0.00601004 0)
(12.34006 0.00608933 0)
(12.34034 0.006160991 0)
(12.34062 0.006225819 0)
(12.34089 0.006284513 0)
(12.34115 0.006337689 0)
(12.34142 0.00638589 0)
(12.34168 0.006429596 0)
(12.34193 0.006469232 0)
(12.34219 0.006505173 0)
(12.34244 0.006537754 0)
(12.34269 0.006567273 0)
(12.34294 0.006593994 0)
(12.34319 0.006618153 0)
(12.34343 0.006639961 0)
(12.34368 0.006659605 0)
(12.34392 0.006677253 0)
(12.34416 0.006693055 0)
(12.3444 0.006707143 0)
(12.34464 0.006719636 0)
(12.34487 0.006730639 0)
(12.34511 0.006740245 0)
(12.34535 0.006748536 0)
(12.34558 0.006755583 0)
(12.34582 0.006761448 0)
(12.34605 0.006766183 0)
(12.34629 0.006769835 0)
(12.34652 0.006772438 0)
(12.34676 0.006774022 0)
(12.34699 0.006774609 0)
(12.34722 0.006774213 0)
(12.34746 0.006772843 0)
(12.34769 0.006770498 0)
(12.34792 0.006767172 0)
(12.34816 0.006762852 0)
(12.34839 0.006757518 0)
(12.34863 0.006751141 0)
(12.34886 0.006743687 0)
(12.3491 0.00673511 0)
(12.34933 0.006725361 0)
(12.34957 0.006714376 0)
(12.34981 0.006702085 0)
(12.35005 0.006688406 0)
(12.35029 0.006673246 0)
(12.35053 0.0066565 0)
(12.35077 0.006638048 0)
(12.35101 0.006617755 0)
(12.35126 0.006595469 0)
(12.3515 0.00657102 0)
(12.35175 0.006544215 0)
(12.352 0.006514839 0)
(12.35225 0.00648265 0)
(12.35251 0.006447373 0)
(12.35277 0.006408702 0)
(12.35303 0.00636629 0)
(12.35329 0.006319744 0)
(12.35355 0.006268622 0)
(12.35382 0.006212421 0)
(12.3541 0.006150571 0)
(12.35437 0.006082425 0)
(12.35465 0.006007243 0)
(12.35494 0.005924186 0)
(12.35523 0.005832292 0)
(12.35552 0.005730463 0)
(12.35582 0.005617447 0)
(12.35612 0.005491812 0)
(12.35643 0.005351928 0)
(12.35674 0.005195944 0)
(12.35706 0.005021768 0)
(12.35738 0.004827063 0)
(12.3577 0.004609245 0)
(12.35802 0.004365509 0)
(12.35834 0.004092902 0)
(12.35865 0.00378844 0)
(12.35895 0.003449313 0)
(12.35924 0.003073192 0)
(12.35951 0.002658681 0)
(12.35974 0.002205826 0)
(12.35994 0.001717042 0)
(12.36008 0.001196685 0)
(12.36019 0.0006558632 0)
(18.09798 0.0006813169 0)
(13.56337 0.001300727 0)
(11.72696 0.001745614 0)
(12.21276 0.002149773 0)
(12.3993 0.00254147 0)
(12.3476 0.002902481 0)
(12.329 0.003227184 0)
(12.33482 0.003519537 0)
(12.33702 0.003782782 0)
(12.33673 0.004019125 0)
(12.33683 0.004230987 0)
(12.33719 0.00442089 0)
(12.33751 0.004591174 0)
(12.3378 0.004743962 0)
(12.33809 0.004881175 0)
(12.33839 0.005004532 0)
(12.33868 0.005115564 0)
(12.33896 0.005215624 0)
(12.33924 0.005305905 0)
(12.33952 0.005387462 0)
(12.3398 0.005461221 0)
(12.34007 0.005528001 0)
(12.34034 0.005588521 0)
(12.3406 0.005643418 0)
(12.34086 0.005693252 0)
(12.34112 0.005738521 0)
(12.34138 0.005779664 0)
(12.34164 0.005817072 0)
(12.34189 0.005851088 0)
(12.34214 0.005882022 0)
(12.34239 0.005910146 0)
(12.34264 0.005935703 0)
(12.34288 0.005958911 0)
(12.34313 0.005979962 0)
(12.34337 0.005999027 0)
(12.34361 0.006016261 0)
(12.34385 0.006031798 0)
(12.34409 0.006045759 0)
(12.34433 0.006058252 0)
(12.34457 0.00606937 0)
(12.34481 0.006079196 0)
(12.34504 0.006087803 0)
(12.34528 0.006095251 0)
(12.34551 0.006101596 0)
(12.34575 0.006106881 0)
(12.34598 0.006111143 0)
(12.34622 0.006114411 0)
(12.34645 0.006116706 0)
(12.34668 0.006118043 0)
(12.34692 0.00611843 0)
(12.34715 0.006117866 0)
(12.34738 0.006116346 0)
(12.34762 0.006113857 0)
(12.34785 0.006110377 0)
(12.34808 0.00610588 0)
(12.34832 0.006100331 0)
(12.34855 0.006093687 0)
(12.34879 0.006085896 0)
(12.34902 0.0060769 0)
(12.34926 0.006066629 0)
(12.3495 0.006055005 0)
(12.34974 0.006041937 0)
(12.34998 0.006027324 0)
(12.35021 0.006011051 0)
(12.35046 0.005992991 0)
(12.3507 0.005972998 0)
(12.35094 0.005950912 0)
(12.35119 0.005926551 0)
(12.35143 0.005899714 0)
(12.35168 0.005870174 0)
(12.35193 0.005837679 0)
(12.35218 0.005801945 0)
(12.35244 0.005762656 0)
(12.35269 0.005719454 0)
(12.35295 0.00567194 0)
(12.35321 0.005619665 0)
(12.35348 0.005562124 0)
(12.35374 0.005498746 0)
(12.35401 0.005428889 0)
(12.35429 0.005351829 0)
(12.35457 0.005266746 0)
(12.35485 0.005172716 0)
(12.35513 0.005068696 0)
(12.35542 0.004953511 0)
(12.35571 0.004825839 0)
(12.356 0.004684199 0)
(12.3563 0.004526943 0)
(12.35659 0.004352252 0)
(12.35689 0.004158139 0)
(12.35719 0.003942476 0)
(12.35748 0.003703032 0)
(12.35777 0.003437561 0)
(12.35806 0.003143917 0)
(12.35833 0.002820249 0)
(12.35858 0.002465245 0)
(12.35881 0.002078483 0)
(12.35901 0.00166077 0)
(12.35918 0.001214757 0)
(12.3593 0.0007444586 0)
(12.35939 0.0002587225 0)
(18.09828 0.0006310499 0)
(13.56364 0.001198336 0)
(11.72718 0.001609803 0)
(12.21295 0.001992039 0)
(12.39947 0.002368527 0)
(12.34775 0.00272159 0)
(12.32912 0.003045371 0)
(12.33492 0.003342353 0)
(12.3371 0.003614396 0)
(12.33678 0.003862611 0)
(12.33687 0.004088492 0)
(12.33721 0.004293788 0)
(12.33751 0.004480233 0)
(12.33779 0.004649484 0)
(12.33807 0.004803117 0)
(12.33835 0.004942598 0)
(12.33862 0.005069277 0)
(12.3389 0.005184384 0)
(12.33917 0.005289033 0)
(12.33944 0.005384231 0)
(12.33971 0.005470882 0)
(12.33997 0.005549798 0)
(12.34023 0.005621706 0)
(12.34049 0.005687259 0)
(12.34075 0.005747039 0)
(12.341 0.005801571 0)
(12.34126 0.005851322 0)
(12.34151 0.005896711 0)
(12.34175 0.005938117 0)
(12.342 0.005975876 0)
(12.34225 0.006010292 0)
(12.34249 0.006041637 0)
(12.34273 0.006070156 0)
(12.34297 0.006096069 0)
(12.34321 0.006119573 0)
(12.34345 0.006140845 0)
(12.34369 0.006160045 0)
(12.34393 0.006177314 0)
(12.34416 0.006192779 0)
(12.3444 0.006206554 0)
(12.34463 0.006218739 0)
(12.34487 0.006229422 0)
(12.3451 0.006238681 0)
(12.34533 0.006246584 0)
(12.34557 0.006253189 0)
(12.3458 0.006258543 0)
(12.34603 0.006262688 0)
(12.34626 0.006265655 0)
(12.34649 0.006267467 0)
(12.34673 0.006268141 0)
(12.34696 0.006267685 0)
(12.34719 0.0062661 0)
(12.34742 0.006263378 0)
(12.34765 0.006259504 0)
(12.34789 0.006254455 0)
(12.34812 0.006248202 0)
(12.34835 0.006240703 0)
(12.34858 0.006231911 0)
(12.34882 0.006221768 0)
(12.34905 0.006210206 0)
(12.34929 0.006197148 0)
(12.34952 0.006182503 0)
(12.34976 0.00616617 0)
(12.35 0.006148033 0)
(12.35024 0.006127963 0)
(12.35047 0.006105814 0)
(12.35072 0.006081422 0)
(12.35096 0.006054603 0)
(12.3512 0.006025155 0)
(12.35145 0.005992847 0)
(12.35169 0.005957424 0)
(12.35194 0.005918602 0)
(12.35219 0.005876063 0)
(12.35244 0.005829449 0)