/*--------------------------------*- C++ -*----------------------------------*\
| =========                 |                                                 |
| \\      /  F ield         | OpenFOAM: The Open Source CFD Toolbox           |
|  \\    /   O peration     | Version:  2.3.0                                 |
|   \\  /    A nd           | Web:      www.OpenFOAM.org                      |
|    \\/     M anipulation  |                                                 |
\*---------------------------------------------------------------------------*/
FoamFile
{
    version     2.0;
    format      ascii;
    class       volScalarField;
    location    "9600/wall";
    object      T;
}
// * * * * * * * * * * * * * * * * * * * * * * * * * * * * * * * * * * * * * //

dimensions      [0 0 0 1 0 0 0];

internalField   nonuniform List<scalar> 
2000
(
809.5582
809.547
809.5257
809.4958
809.4588
809.4157
809.3673
809.314
809.2563
809.1947
809.1294
809.0608
808.9891
808.9146
808.8373
808.7577
808.6757
808.5915
808.5053
808.4172
808.3273
808.2358
808.1427
808.0481
807.9521
807.8548
807.7563
807.6566
807.5559
807.4541
807.3515
807.2479
807.1435
807.0384
806.9326
806.8261
806.7191
806.6115
806.5035
806.395
806.2861
806.1768
806.0673
805.9576
805.8476
805.7375
805.6272
805.5169
805.4066
805.2963
805.186
805.0759
804.9658
804.856
804.7464
804.6371
804.5281
804.4194
804.3112
804.2033
804.096
803.9892
803.883
803.7774
803.6725
803.5684
803.4649
803.3624
803.2607
803.1599
803.0601
802.9614
802.8638
802.7673
802.6721
802.5782
802.4857
802.3946
802.3051
802.2172
802.1311
802.0467
801.9643
801.8839
801.8057
801.7297
801.6563
801.5854
801.5173
801.4523
801.3904
801.3321
801.2775
801.2272
801.1814
801.1406
801.1056
801.077
801.0561
801.0443
802.9458
802.9365
802.9185
802.8928
802.8603
802.8218
802.7779
802.7292
802.6762
802.6191
802.5585
802.4944
802.4272
802.3572
802.2844
802.2092
802.1316
802.0518
801.9699
801.8861
801.8006
801.7133
801.6244
801.534
801.4422
801.3491
801.2547
801.1592
801.0626
800.9649
800.8663
800.7669
800.6665
800.5654
800.4636
800.3612
800.2581
800.1545
800.0504
799.9459
799.8409
799.7356
799.63
799.5242
799.4181
799.3119
799.2056
799.0992
798.9927
798.8863
798.7799
798.6736
798.5675
798.4616
798.3558
798.2504
798.1452
798.0405
797.9361
797.8322
797.7287
797.6258
797.5235
797.4218
797.3208
797.2206
797.1211
797.0224
796.9247
796.8279
796.732
796.6373
796.5436
796.4512
796.36
796.2701
796.1816
796.0946
796.0092
795.9254
795.8433
795.7631
795.6848
795.6086
795.5346
795.4629
795.3936
795.327
795.2632
795.2024
795.1449
795.0909
795.0407
794.9946
794.9532
794.9167
794.8859
794.8613
794.844
794.8349
796.343
796.335
796.3195
796.2969
796.2681
796.2335
796.1937
796.1492
796.1004
796.0476
795.9912
795.9315
795.8686
795.8028
795.7344
795.6634
795.59
795.5145
795.4369
795.3573
795.2759
795.1928
795.108
795.0218
794.9341
794.8451
794.7548
794.6633
794.5708
794.4772
794.3826
794.2871
794.1907
794.0936
793.9958
793.8973
793.7982
793.6985
793.5983
793.4977
793.3966
793.2952
793.1935
793.0915
792.9893
792.887
792.7845
792.682
792.5794
792.4768
792.3743
792.2718
792.1695
792.0674
791.9655
791.8639
791.7626
791.6617
791.5612
791.4611
791.3615
791.2625
791.164
791.0662
790.969
790.8727
790.777
790.6823
790.5884
790.4955
790.4036
790.3127
790.223
790.1345
790.0473
789.9613
789.8768
789.7938
789.7123
789.6325
789.5545
789.4783
789.4041
789.3319
789.2619
789.1942
789.1291
789.0665
789.0068
788.9501
788.8966
788.8466
788.8004
788.7583
788.7207
788.6879
788.6606
788.6392
788.6244
788.6169
789.7483
789.7414
789.7277
789.7077
789.6819
789.6507
789.6145
789.5738
789.5288
789.48
789.4277
789.372
789.3132
789.2515
789.1872
789.1203
789.0511
788.9796
788.9061
788.8306
788.7533
788.6743
788.5936
788.5114
788.4277
788.3427
788.2565
788.169
788.0804
787.9907
787.9001
787.8086
787.7162
787.623
787.529
787.4344
787.3392
787.2434
787.1471
787.0503
786.9531
786.8556
786.7577
786.6596
786.5612
786.4627
786.3641
786.2653
786.1665
786.0678
785.9691
785.8704
785.7719
785.6736
785.5755
785.4777
785.3802
785.2831
785.1864
785.0901
784.9943
784.8991
784.8044
784.7104
784.6171
784.5246
784.4328
784.3418
784.2518
784.1627
784.0747
783.9877
783.9018
783.8172
783.7338
783.6518
783.5712
783.4921
783.4145
783.3386
783.2645
783.1922
783.1219
783.0536
782.9876
782.9239
782.8626
782.8039
782.7481
782.6952
782.6456
782.5993
782.5568
782.5183
782.484
782.4545
782.4301
782.4112
782.3983
782.3918
783.1609
783.1547
783.1426
783.1247
783.1015
783.0732
783.0402
783.0029
782.9615
782.9164
782.8678
782.8159
782.761
782.7033
782.6428
782.5799
782.5147
782.4472
782.3777
782.3062
782.2328
782.1578
782.081
782.0028
781.9231
781.842
781.7597
781.6762
781.5915
781.5057
781.419
781.3313
781.2428
781.1535
781.0634
780.9727
780.8813
780.7893
780.6968
780.6039
780.5105
780.4168
780.3227
780.2284
780.1338
780.0391
779.9442
779.8492
779.7542
779.6592
779.5643
779.4694
779.3747
779.2801
779.1858
779.0918
778.998
778.9047
778.8117
778.7192
778.6272
778.5357
778.4448
778.3546
778.2651
778.1763
778.0883
778.0011
777.9149
777.8296
777.7453
777.6621
777.5801
777.4993
777.4197
777.3415
777.2647
777.1894
777.1157
777.0436
776.9733
776.9048
776.8383
776.7739
776.7116
776.6517
776.5942
776.5392
776.4871
776.4379
776.3918
776.349
776.3099
776.2746
776.2434
776.2167
776.1947
776.1779
776.1665
776.1608
776.5799
776.5744
776.5635
776.5474
776.5264
776.5007
776.4706
776.4363
776.3983
776.3566
776.3115
776.2632
776.212
776.158
776.1014
776.0422
775.9808
775.9172
775.8515
775.7839
775.7144
775.6432
775.5704
775.496
775.4202
775.343
775.2645
775.1849
775.104
775.0221
774.9392
774.8554
774.7707
774.6852
774.5989
774.5119
774.4243
774.3362
774.2475
774.1583
774.0687
773.9787
773.8884
773.7978
773.707
773.616
773.5249
773.4337
773.3424
773.2511
773.1599
773.0688
772.9778
772.8869
772.7964
772.706
772.616
772.5264
772.4371
772.3483
772.26
772.1723
772.0851
771.9986
771.9128
771.8278
771.7435
771.6601
771.5776
771.496
771.4155
771.336
771.2577
771.1807
771.1048
771.0304
770.9573
770.8858
770.8158
770.7475
770.6809
770.6162
770.5534
770.4926
770.434
770.3777
770.3238
770.2725
770.2238
770.178
770.1353
770.0958
770.0598
770.0274
769.999
769.9747
769.9549
769.9398
769.9297
769.9246
770.0047
769.9997
769.9899
769.9753
769.9563
769.9329
769.9054
769.874
769.8389
769.8004
769.7587
769.7138
769.6661
769.6157
769.5627
769.5072
769.4495
769.3896
769.3277
769.2638
769.1982
769.1307
769.0617
768.9911
768.9191
768.8457
768.771
768.6951
768.618
768.5399
768.4608
768.3807
768.2998
768.218
768.1355
768.0523
767.9684
767.884
767.799
767.7136
767.6277
767.5414
767.4548
767.368
767.2809
767.1936
767.1061
767.0186
766.931
766.8435
766.7559
766.6685
766.5812
766.494
766.4071
766.3205
766.2342
766.1482
766.0626
765.9775
765.8929
765.8088
765.7254
765.6425
765.5604
765.479
765.3984
765.3187
765.2399
765.162
765.0852
765.0094
764.9348
764.8614
764.7892
764.7185
764.6491
764.5812
764.5149
764.4502
764.3873
764.3262
764.267
764.2098
764.1548
764.102
764.0515
764.0036
763.9583
763.9158
763.8762
763.8398
763.8067
763.777
763.7511
763.729
763.7111
763.6975
763.6884
763.6839
763.4347
763.4302
763.4213
763.4081
763.3908
763.3695
763.3444
763.3156
763.2834
763.2479
763.2093
763.1677
763.1233
763.0763
763.0268
762.9749
762.9207
762.8644
762.8062
762.746
762.684
762.6202
762.5549
762.488
762.4197
762.35
762.279
762.2068
762.1335
762.0591
761.9837
761.9073
761.8301
761.752
761.6732
761.5937
761.5135
761.4328
761.3515
761.2697
761.1875
761.105
761.022
760.9388
760.8554
760.7718
760.688
760.6041
760.5202
760.4363
760.3524
760.2686
760.1849
760.1014
760.0182
759.9351
759.8525
759.7701
759.6882
759.6067
759.5257
759.4453
759.3655
759.2863
759.2078
759.13
759.0531
758.977
758.9018
758.8275
758.7543
758.6822
758.6112
758.5414
758.4729
758.4057
758.3399
758.2757
758.2129
758.1518
758.0924
758.0349
757.9792
757.9255
757.8739
757.8245
757.7774
757.7328
757.6907
757.6513
757.6147
757.5811
757.5507
757.5235
757.4999
757.4798
757.4636
757.4513
757.4431
757.439
756.8694
756.8653
756.8573
756.8454
756.8297
756.8103
756.7874
756.7611
756.7315
756.6988
756.6631
756.6246
756.5835
756.5397
756.4936
756.4451
756.3944
756.3416
756.2869
756.2302
756.1718
756.1117
756.05
755.9867
755.922
755.856
755.7887
755.7201
755.6504
755.5797
755.5079
755.4352
755.3616
755.2872
755.2121
755.1362
755.0597
754.9826
754.9049
754.8268
754.7482
754.6692
754.5899
754.5104
754.4305
754.3505
754.2704
754.1901
754.1098
754.0295
753.9492
753.869
753.789
753.7091
753.6294
753.55
753.4709
753.3922
753.3138
753.2359
753.1586
753.0817
753.0055
752.9299
752.855
752.7808
752.7074
752.6349
752.5633
752.4926
752.423
752.3544
752.287
752.2208
752.1558
752.0921
752.0299
751.9691
751.9099
751.8523
751.7964
751.7422
751.69
751.6397
751.5914
751.5453
751.5015
751.46
751.4209
751.3845
751.3508
751.3199
751.292
751.2672
751.2456
751.2274
751.2127
751.2016
751.1943
751.1906
750.3085
750.3048
750.2975
750.2868
750.2725
750.255
750.2341
750.2101
750.183
750.153
750.1201
750.0846
750.0465
750.0059
749.963
749.9178
749.8705
749.8211
749.7698
749.7167
749.6617
749.6051
749.5469
749.4872
749.4261
749.3636
749.2999
749.2349
749.1688
749.1017
749.0335
748.9644
748.8944
748.8236
748.752
748.6797
748.6068
748.5333
748.4592
748.3846
748.3097
748.2343
748.1586
748.0826
748.0063
747.9299
747.8533
747.7766
747.6999
747.6231
747.5464
747.4698
747.3933
747.317
747.2409
747.165
747.0895
747.0143
746.9395
746.8652
746.7913
746.718
746.6453
746.5733
746.5019
746.4313
746.3614
746.2924
746.2244
746.1572
746.0911
746.026
745.9621
745.8994
745.8379
745.7777
745.719
745.6616
745.6058
745.5516
745.4991
745.4483
745.3994
745.3524
745.3074
745.2645
745.2237
745.1853
745.1492
745.1156
745.0846
745.0563
745.0308
745.0082
744.9886
744.9722
744.9589
744.9489
744.9422
744.939
743.7514
743.7481
743.7416
743.7319
743.7191
743.7032
743.6843
743.6624
743.6377
743.6103
743.5802
743.5475
743.5123
743.4748
743.435
743.3931
743.349
743.3029
743.255
743.2052
743.1537
743.1005
743.0458
742.9895
742.9319
742.8729
742.8127
742.7512
742.6887
742.625
742.5604
742.4948
742.4283
742.3611
742.293
742.2243
742.1549
742.0849
742.0144
741.9434
741.8719
741.8001
741.7279
741.6555
741.5827
741.5098
741.4368
741.3636
741.2904
741.2172
741.144
741.0709
740.9979
740.9251
740.8525
740.7802
740.7082
740.6365
740.5652
740.4944
740.4241
740.3543
740.2851
740.2165
740.1486
740.0815
740.0151
739.9496
739.885
739.8213
739.7587
739.6971
739.6366
739.5773
739.5192
739.4625
739.4071
739.3532
739.3007
739.2499
739.2007
739.1532
739.1075
739.0637
739.0218
738.982
738.9443
738.9088
738.8755
738.8447
738.8163
738.7905
738.7673
738.7468
738.7291
738.7142
738.7023
738.6934
738.6874
738.6845
737.1979
737.195
737.1892
737.1805
737.169
737.1547
737.1377
737.118
737.0956
737.0706
737.0431
737.0132
736.9809
736.9463
736.9096
736.8707
736.8298
736.787
736.7423
736.6958
736.6476
736.5978
736.5464
736.4936
736.4394
736.3838
736.327
736.269
736.2099
736.1497
736.0886
736.0265
735.9635
735.8997
735.8351
735.7699
735.704
735.6375
735.5705
735.503
735.435
735.3667
735.298
735.229
735.1598
735.0904
735.0208
734.9511
734.8814
734.8117
734.742
734.6723
734.6028
734.5335
734.4644
734.3955
734.327
734.2588
734.191
734.1236
734.0567
733.9904
733.9246
733.8595
733.7951
733.7314
733.6685
733.6064
733.5452
733.4849
733.4257
733.3675
733.3104
733.2544
733.1998
733.1464
733.0943
733.0437
732.9946
732.947
732.901
732.8567
732.8142
732.7735
732.7347
732.6979
732.6631
732.6305
732.6001
732.5719
732.546
732.5226
732.5016
732.4831
732.4673
732.454
732.4433
732.4354
732.4301
732.4276
730.6476
730.645
730.6399
730.6322
730.6221
730.6094
730.5942
730.5765
730.5563
730.5337
730.5088
730.4815
730.452
730.4203
730.3865
730.3507
730.3129
730.2732
730.2317
730.1884
730.1435
730.097
730.0489
729.9994
729.9485
729.8964
729.8429
729.7883
729.7326
729.6758
729.6181
729.5594
729.4998
729.4395
729.3783
729.3165
729.2541
729.191
729.1274
729.0634
728.9988
728.9339
728.8687
728.8032
728.7374
728.6714
728.6053
728.5391
728.4728
728.4065
728.3403
728.2741
728.208
728.1421
728.0764
728.011
727.9459
727.8811
727.8167
727.7528
727.6893
727.6264
727.564
727.5023
727.4413
727.381
727.3214
727.2627
727.2049
727.148
727.0921
727.0372
726.9835
726.9309
726.8795
726.8294
726.7806
726.7332
726.6873
726.643
726.6002
726.559
726.5196
726.482
726.4462
726.4123
726.3804
726.3506
726.3228
726.2972
726.2739
726.2528
726.2339
726.2175
726.2033
726.1916
726.1822
726.1752
726.1706
726.1684
724.1001
724.0978
724.0934
724.0868
724.0779
724.0668
724.0534
724.0377
724.0198
723.9995
723.9771
723.9524
723.9257
723.8968
723.8659
723.833
723.7982
723.7616
723.7231
723.683
723.6413
723.598
723.5532
723.5069
723.4593
723.4105
723.3603
723.309
723.2567
723.2032
723.1488
723.0935
723.0373
722.9803
722.9226
722.8642
722.8051
722.7454
722.6852
722.6246
722.5635
722.502
722.4401
722.378
722.3156
722.2531
722.1904
722.1275
722.0647
722.0018
721.9389
721.8761
721.8134
721.7509
721.6887
721.6266
721.5649
721.5035
721.4425
721.3819
721.3218
721.2623
721.2033
721.1449
721.0872
721.0302
720.974
720.9187
720.8642
720.8106
720.758
720.7064
720.6559
720.6066
720.5584
720.5116
720.466
720.4218
720.3791
720.3378
720.2982
720.2601
720.2237
720.1891
720.1562
720.1252
720.0962
720.069
720.0439
720.0209
720
719.9811
719.9644
719.9499
719.9375
719.9273
719.9192
719.9132
719.9092
719.9073
717.555
717.5532
717.5495
717.5439
717.5364
717.5268
717.5152
717.5016
717.4858
717.4679
717.4479
717.4258
717.4017
717.3756
717.3475
717.3175
717.2856
717.252
717.2166
717.1796
717.141
717.1008
717.0592
717.0162
716.9718
716.9261
716.8792
716.8312
716.7821
716.732
716.6809
716.6289
716.576
716.5223
716.4679
716.4128
716.3571
716.3008
716.2439
716.1866
716.1288
716.0707
716.0122
715.9534
715.8944
715.8352
715.7759
715.7164
715.6569
715.5974
715.5379
715.4784
715.4191
715.36
715.301
715.2423
715.1839
715.1259
715.0682
715.011
714.9542
714.898
714.8423
714.7872
714.7329
714.6792
714.6263
714.5742
714.5229
714.4726
714.4233
714.3749
714.3277
714.2815
714.2366
714.1929
714.1505
714.1094
714.0698
714.0316
713.995
713.96
713.9265
713.8948
713.8649
713.8367
713.8104
713.786
713.7635
713.7429
713.7244
713.7078
713.6933
713.6807
713.6701
713.6614
713.6545
713.6495
713.6463
713.6448
711.0121
711.0106
711.0077
711.0033
710.9971
710.9892
710.9795
710.9678
710.9542
710.9386
710.9211
710.9015
710.88
710.8566
710.8313
710.8042
710.7752
710.7445
710.7121
710.6781
710.6425
710.6055
710.5669
710.527
710.4858
710.4433
710.3996
710.3548
710.3089
710.262
710.2142
710.1654
710.1158
710.0654
710.0143
709.9624
709.91
709.857
709.8034
709.7494
709.695
709.6401
709.585
709.5295
709.4738
709.4179
709.3619
709.3057
709.2495
709.1933
709.1371
709.081
709.025
708.9692
708.9135
708.8582
708.8031
708.7483
708.6939
708.64
708.5865
708.5335
708.4811
708.4293
708.3782
708.3278
708.2781
708.2292
708.1812
708.1341
708.0879
708.0428
707.9987
707.9557
707.9139
707.8733
707.834
707.7961
707.7595
707.7244
707.6907
707.6586
707.6281
707.5993
707.5722
707.5468
707.5232
707.5014
707.4815
707.4635
707.4473
707.433
707.4205
707.4099
707.4011
707.394
707.3885
707.3846
707.3821
707.3809
704.4708
704.4698
704.4678
704.4646
704.4599
704.4538
704.4459
704.4363
704.4249
704.4117
704.3965
704.3795
704.3606
704.3399
704.3173
704.2929
704.2668
704.239
704.2095
704.1785
704.1459
704.1118
704.0764
704.0395
704.0014
703.962
703.9215
703.8798
703.8371
703.7933
703.7487
703.7031
703.6567
703.6095
703.5616
703.513
703.4638
703.4141
703.3638
703.313
703.2618
703.2102
703.1583
703.1061
703.0537
703.0011
702.9483
702.8955
702.8426
702.7896
702.7367
702.6839
702.6311
702.5786
702.5262
702.4741
702.4222
702.3707
702.3196
702.2689
702.2187
702.1689
702.1197
702.0712
702.0233
701.976
701.9295
701.8839
701.839
701.7951
701.752
701.71
701.6691
701.6292
701.5905
701.553
701.5167
701.4817
701.4482
701.416
701.3853
701.3561
701.3285
701.3025
701.2782
701.2555
701.2346
701.2155
701.1981
701.1825
701.1687
701.1567
701.1464
701.1379
701.1309
701.1255
701.1214
701.1187
701.117
701.1163
697.9308
697.9304
697.9294
697.9276
697.9246
697.9202
697.9144
697.9069
697.8978
697.8868
697.8741
697.8596
697.8433
697.8252
697.8053
697.7837
697.7604
697.7354
697.7088
697.6807
697.6511
697.62
697.5875
697.5536
697.5185
697.4822
697.4447
697.4062
697.3665
697.3259
697.2844
697.242
697.1987
697.1547
697.11
697.0646
697.0186
696.972
696.9249
696.8773
696.8294
696.781
696.7323
696.6834
696.6342
696.5848
696.5353
696.4856
696.4359
696.3862
696.3366
696.2869
696.2374
696.1881
696.139
696.0901
696.0414
695.9931
695.9452
695.8977
695.8507
695.8041
695.7581
695.7127
695.668
695.6239
695.5806
695.538
695.4963
695.4555
695.4155
695.3766
695.3387
695.3019
695.2662
695.2317
695.1984
695.1665
695.1358
695.1066
695.0788
695.0524
695.0277
695.0045
694.9829
694.9629
694.9447
694.9281
694.9133
694.9002
694.8888
694.8791
694.871
694.8646
694.8596
694.8559
694.8535
694.852
694.8514
694.8512
691.3913
691.3918
691.3922
691.392
691.3909
691.3885
691.3848
691.3795
691.3727
691.3641
691.3539
691.3419
691.3281
691.3126
691.2954
691.2765
691.256
691.2338
691.21
691.1847
691.1579
691.1298
691.1002
691.0693
691.0372
691.0039
690.9694
690.9339
690.8973
690.8597
690.8213
690.7819
690.7418
690.7009
690.6593
690.617
690.5742
690.5307
690.4868
690.4424
690.3976
690.3524
690.3069
690.2612
690.2152
690.169
690.1226
690.0762
690.0297
689.9832
689.9367
689.8903
689.844
689.7978
689.7518
689.7061
689.6607
689.6155
689.5708
689.5264
689.4826
689.4392
689.3963
689.354
689.3124
689.2714
689.2312
689.1917
689.1531
689.1153
689.0784
689.0425
689.0076
688.9738
688.9411
688.9096
688.8793
688.8502
688.8225
688.7961
688.7711
688.7476
688.7256
688.7052
688.6863
688.669
688.6534
688.6395
688.6272
688.6166
688.6076
688.6002
688.5945
688.5902
688.5873
688.5856
688.5849
688.585
688.5856
688.5862
684.8515
684.8536
684.8559
684.8577
684.8586
684.8584
684.8569
684.854
684.8495
684.8434
684.8356
684.8261
684.8149
684.8021
684.7875
684.7713
684.7534
684.734
684.713
684.6905
684.6665
684.6412
684.6145
684.5865
684.5573
684.527
684.4955
684.4629
684.4293
684.3948
684.3593
684.323
684.286
684.2481
684.2096
684.1704
684.1306
684.0903
684.0495
684.0082
683.9665
683.9245
683.8821
683.8395
683.7966
683.7536
683.7104
683.6671
683.6238
683.5804
683.5371
683.4938
683.4506
683.4076
683.3648
683.3222
683.2799
683.2379
683.1963
683.1551
683.1143
683.074
683.0342
682.995
682.9565
682.9186
682.8814
682.845
682.8093
682.7746
682.7407
682.7078
682.6759
682.645
682.6152
682.5866
682.5592
682.533
682.5081
682.4845
682.4624
682.4416
682.4224
682.4047
682.3885
682.3739
682.3609
682.3495
682.3397
682.3316
682.3251
682.3202
682.3167
682.3147
682.3141
682.3145
682.3159
682.318
682.3202
682.3219
)
;

boundaryField
{
    leftLet
    {
        type            zeroGradient;
    }
    rightLet
    {
        type            zeroGradient;
    }
    frontAndBack
    {
        type            empty;
    }
    wall_to_bottomAir
    {
        type            compressible::turbulentTemperatureCoupledBaffleMixed;
        refValue        nonuniform List<scalar> 
100
(
1199.256
1199.068
1198.768
1198.401
1198.042
1197.691
1197.339
1196.986
1196.634
1196.282
1195.931
1195.58
1195.229
1194.879
1194.528
1194.178
1193.829
1193.479
1193.13
1192.781
1192.433
1192.085
1191.737
1191.389
1191.041
1190.694
1190.347
1190
1189.654
1189.308
1188.962
1188.616
1188.271
1187.926
1187.581
1187.236
1186.892
1186.548
1186.204
1185.86
1185.517
1185.173
1184.831
1184.488
1184.145
1183.803
1183.461
1183.12
1182.778
1182.437
1182.096
1181.755
1181.415
1181.075
1180.735
1180.395
1180.055
1179.716
1179.377
1179.038
1178.7
1178.362
1178.024
1177.686
1177.348
1177.011
1176.674
1176.337
1176.001
1175.664
1175.328
1174.993
1174.657
1174.322
1173.987
1173.652
1173.317
1172.983
1172.649
1172.315
1171.982
1171.649
1171.316
1170.983
1170.65
1170.318
1169.986
1169.655
1169.323
1168.992
1168.661
1168.331
1168.001
1167.671
1167.341
1167.012
1166.683
1166.354
1166.026
1165.698
)
;
        refGradient     uniform 0;
        valueFraction   nonuniform List<scalar> 
100
(
0.008498584
0.008498584
0.008498584
0.008498584
0.008498584
0.008498584
0.008498584
0.008498584
0.008498584
0.008498584
0.008498584
0.008498584
0.008498584
0.008498584
0.008498584
0.008498584
0.008498584
0.008498584
0.008498584
0.008498584
0.008498584
0.008498584
0.008498584
0.008498584
0.008498584
0.008498584
0.008498584
0.008498584
0.008498584
0.008498584
0.008498584
0.008498584
0.008498584
0.008498584
0.008498584
0.008498584
0.008498584
0.008498584
0.008498584
0.008498584
0.008498584
0.008498584
0.008498584
0.008498584
0.008498584
0.008498584
0.008498584
0.008498584
0.008498584
0.008498584
0.008498584
0.008498584
0.008498584
0.008498584
0.008498584
0.008498584
0.008498584
0.008498584
0.008498584
0.008498584
0.008498584
0.008498584
0.008498584
0.008498584
0.008498584
0.008498584
0.008498584
0.008498584
0.008498584
0.008498584
0.008498584
0.008498584
0.008498584
0.008498584
0.008498584
0.008498584
0.008498584
0.008498584
0.008498584
0.008498584
0.008498584
0.008498584
0.008498584
0.008498584
0.008498584
0.008498584
0.008498584
0.008498584
0.008498584
0.008498584
0.008498584
0.008498584
0.008498584
0.008498584
0.008498584
0.008498584
0.008498584
0.008498584
0.008498584
0.008498584
)
;
        value           nonuniform List<scalar> 
100
(
812.8699
812.8572
812.8335
812.8008
812.761
812.7153
812.6643
812.6084
812.5483
812.4842
812.4165
812.3455
812.2714
812.1945
812.115
812.033
811.9487
811.8623
811.7739
811.6835
811.5915
811.4977
811.4024
811.3057
811.2076
811.1081
811.0075
810.9057
810.8029
810.6991
810.5944
810.4887
810.3823
810.2752
810.1673
810.0588
809.9498
809.8402
809.7301
809.6196
809.5087
809.3975
809.286
809.1742
809.0623
808.9502
808.838
808.7257
808.6134
808.5011
808.3889
808.2768
808.1648
808.053
807.9415
807.8302
807.7192
807.6086
807.4983
807.3886
807.2793
807.1705
807.0623
806.9548
806.8479
806.7417
806.6363
806.5317
806.428
806.3253
806.2235
806.1227
806.0231
805.9246
805.8274
805.7314
805.6368
805.5437
805.4521
805.3621
805.2738
805.1874
805.1028
805.0203
804.9399
804.8618
804.7861
804.713
804.6427
804.5754
804.5113
804.4506
804.3937
804.341
804.2928
804.2496
804.212
804.1809
804.1574
804.1429
)
;
        Tnbr            T;
        thicknessLayers 0();
        kappaLayers     0();
        kappa           solidThermo;
        kappaName       none;
    }
    wall_to_topAir
    {
        type            compressible::turbulentTemperatureCoupledBaffleMixed;
        refValue        nonuniform List<scalar> 
100
(
299.9788
300.1881
300.3499
300.4833
300.6202
300.7599
300.8993
301.0384
301.1776
301.3168
301.456
301.5953
301.7345
301.8738
302.0131
302.1524
302.2917
302.431
302.5704
302.7098
302.8491
302.9885
303.128
303.2674
303.4068
303.5463
303.6857
303.8252
303.9647
304.1041
304.2436
304.3832
304.5227
304.6622
304.8017
304.9413
305.0808
305.2204
305.36
305.4995
305.6391
305.7787
305.9183
306.0579
306.1975
306.3371
306.4768
306.6164
306.756
306.8957
307.0353
307.175
307.3146
307.4543
307.594
307.7337
307.8733
308.013
308.1527
308.2924
308.4321
308.5718
308.7116
308.8513
308.991
309.1308
309.2705
309.4103
309.55
309.6898
309.8296
309.9694
310.1092
310.249
310.3888
310.5286
310.6684
310.8083
310.9481
311.088
311.2279
311.3678
311.5077
311.6476
311.7875
311.9274
312.0674
312.2073
312.3473
312.4873
312.6273
312.7673
312.9073
313.0473
313.1874
313.3274
313.4675
313.6076
313.7476
313.8876
)
;
        refGradient     uniform 0;
        valueFraction   nonuniform List<scalar> 
100
(
0.008498584
0.008498584
0.008498584
0.008498584
0.008498584
0.008498584
0.008498584
0.008498584
0.008498584
0.008498584
0.008498584
0.008498584
0.008498584
0.008498584
0.008498584
0.008498584
0.008498584
0.008498584
0.008498584
0.008498584
0.008498584
0.008498584
0.008498584
0.008498584
0.008498584
0.008498584
0.008498584
0.008498584
0.008498584
0.008498584
0.008498584
0.008498584
0.008498584
0.008498584
0.008498584
0.008498584
0.008498584
0.008498584
0.008498584
0.008498584
0.008498584
0.008498584
0.008498584
0.008498584
0.008498584
0.008498584
0.008498584
0.008498584
0.008498584
0.008498584
0.008498584
0.008498584
0.008498584
0.008498584
0.008498584
0.008498584
0.008498584
0.008498584
0.008498584
0.008498584
0.008498584
0.008498584
0.008498584
0.008498584
0.008498584
0.008498584
0.008498584
0.008498584
0.008498584
0.008498584
0.008498584
0.008498584
0.008498584
0.008498584
0.008498584
0.008498584
0.008498584
0.008498584
0.008498584
0.008498584
0.008498584
0.008498584
0.008498584
0.008498584
0.008498584
0.008498584
0.008498584
0.008498584
0.008498584
0.008498584
0.008498584
0.008498584
0.008498584
0.008498584
0.008498584
0.008498584
0.008498584
0.008498584
0.008498584
0.008498584
)
;
        value           nonuniform List<scalar> 
100
(
681.5805
681.5843
681.588
681.5909
681.593
681.594
681.5937
681.5919
681.5887
681.5838
681.5773
681.5691
681.5591
681.5476
681.5343
681.5194
681.5029
681.4848
681.4651
681.444
681.4215
681.3975
681.3723
681.3457
681.3179
681.289
681.259
681.2279
681.1957
681.1627
681.1287
681.0939
681.0583
681.022
680.985
680.9473
680.9091
680.8703
680.831
680.7913
680.7511
680.7106
680.6698
680.6287
680.5874
680.5459
680.5043
680.4625
680.4207
680.3789
680.3372
680.2954
680.2538
680.2124
680.1711
680.1301
680.0893
680.0489
680.0088
679.9691
679.9298
679.8911
679.8528
679.8152
679.7781
679.7417
679.706
679.6711
679.637
679.6037
679.5713
679.5399
679.5094
679.48
679.4516
679.4244
679.3984
679.3737
679.3502
679.328
679.3072
679.2879
679.27
679.2536
679.2387
679.2254
679.2137
679.2036
679.1951
679.1883
679.183
679.1793
679.1771
679.1763
679.1768
679.1785
679.1811
679.1843
679.1877
679.1906
)
;
        Tnbr            T;
        thicknessLayers 0();
        kappaLayers     0();
        kappa           solidThermo;
        kappaName       none;
    }
}


// ************************************************************************* //
