/*--------------------------------*- C++ -*----------------------------------*\
| =========                 |                                                 |
| \\      /  F ield         | OpenFOAM: The Open Source CFD Toolbox           |
|  \\    /   O peration     | Version:  2.3.0                                 |
|   \\  /    A nd           | Web:      www.OpenFOAM.org                      |
|    \\/     M anipulation  |                                                 |
\*---------------------------------------------------------------------------*/
FoamFile
{
    version     2.0;
    format      ascii;
    class       surfaceScalarField;
    location    "9600/topAir";
    object      phi;
}
// * * * * * * * * * * * * * * * * * * * * * * * * * * * * * * * * * * * * * //

dimensions      [1 0 -1 0 0 0 0];

internalField   nonuniform List<scalar> 
7860
(
0.01410455
1.225022e-05
0.01409418
1.036827e-05
0.01408562
8.566326e-06
0.01407685
8.775682e-06
0.01406779
9.058093e-06
0.01405863
9.156018e-06
0.01404941
9.229246e-06
0.0140401
9.303788e-06
0.01403074
9.365697e-06
0.01402132
9.414595e-06
0.01401187
9.454142e-06
0.01400238
9.486349e-06
0.01399287
9.512456e-06
0.01398333
9.533563e-06
0.01397378
9.550573e-06
0.01396422
9.564193e-06
0.01395464
9.574982e-06
0.01394506
9.583387e-06
0.01393547
9.58977e-06
0.01392588
9.594425e-06
0.01391628
9.597594e-06
0.01390668
9.599476e-06
0.01389708
9.600238e-06
0.01388748
9.60002e-06
0.01387788
9.598939e-06
0.01386828
9.597096e-06
0.01385869
9.594578e-06
0.01384909
9.591456e-06
0.01383951
9.587797e-06
0.01382992
9.583654e-06
0.01382034
9.579076e-06
0.01381077
9.574105e-06
0.0138012
9.568779e-06
0.01379164
9.563129e-06
0.01378208
9.557185e-06
0.01377253
9.550971e-06
0.01376298
9.544509e-06
0.01375345
9.537821e-06
0.01374392
9.530922e-06
0.01373439
9.523829e-06
0.01372487
9.516554e-06
0.01371537
9.509109e-06
0.01370586
9.501506e-06
0.01369637
9.493752e-06
0.01368688
9.485855e-06
0.01367741
9.477822e-06
0.01366794
9.469658e-06
0.01365847
9.461366e-06
0.01364902
9.452951e-06
0.01363958
9.444415e-06
0.01363014
9.435757e-06
0.01362071
9.42698e-06
0.0136113
9.418081e-06
0.01360189
9.409059e-06
0.01359249
9.399912e-06
0.0135831
9.390635e-06
0.01357372
9.381223e-06
0.01356434
9.37167e-06
0.01355498
9.361968e-06
0.01354563
9.352109e-06
0.01353629
9.342083e-06
0.01352696
9.331876e-06
0.01351763
9.321476e-06
0.01350832
9.310867e-06
0.01349902
9.300029e-06
0.01348973
9.288943e-06
0.01348046
9.277586e-06
0.01347119
9.265929e-06
0.01346194
9.253942e-06
0.01345269
9.24159e-06
0.01344347
9.228832e-06
0.01343425
9.215623e-06
0.01342505
9.201908e-06
0.01341586
9.187626e-06
0.01340669
9.172705e-06
0.01339753
9.157062e-06
0.01338839
9.140597e-06
0.01337927
9.123197e-06
0.01337016
9.104721e-06
0.01336108
9.085007e-06
0.01335201
9.063855e-06
0.01334297
9.041024e-06
0.01333396
9.016217e-06
0.01332497
8.989065e-06
0.01331601
8.959103e-06
0.01330708
8.925739e-06
0.01329819
8.888203e-06
0.01328935
8.845475e-06
0.01328055
8.796178e-06
0.01327181
8.738398e-06
0.01326314
8.669394e-06
0.01325456
8.585087e-06
0.01324608
8.479145e-06
0.01323774
8.341172e-06
0.01322959
8.153331e-06
0.0132217
7.881945e-06
0.01321424
7.465396e-06
0.01320748
6.755388e-06
0.01320195
5.534134e-06
2.790049e-06
0.01412819
1.714187e-06
0.01413192
6.639644e-06
0.01413324
7.25006e-06
0.01413456
7.459428e-06
0.01413572
7.893423e-06
0.01413667
8.213102e-06
0.01413746
8.43411e-06
0.01413816
8.612457e-06
0.01413876
8.758368e-06
0.0141393
8.876631e-06
0.01413978
8.97398e-06
0.01414021
9.055388e-06
0.0141406
9.124159e-06
0.01414095
9.182766e-06
0.01414127
9.233126e-06
0.01414155
9.276713e-06
0.01414181
9.314671e-06
0.01414205
9.347905e-06
0.01414226
9.377138e-06
0.01414245
9.402958e-06
0.01414262
9.425839e-06
0.01414278
9.446177e-06
0.01414291
9.464299e-06
0.01414303
9.48048e-06
0.01414314
9.49495e-06
0.01414323
9.507907e-06
0.0141433
9.519518e-06
0.01414336
9.529929e-06
0.01414341
9.539263e-06
0.01414345
9.547628e-06
0.01414347
9.55512e-06
0.01414348
9.56182e-06
0.01414348
9.5678e-06
0.01414347
9.573123e-06
0.01414345
9.577845e-06
0.01414342
9.582015e-06
0.01414338
9.585676e-06
0.01414333
9.588866e-06
0.01414327
9.591619e-06
0.0141432
9.593965e-06
0.01414312
9.595928e-06
0.01414303
9.597531e-06
0.01414293
9.598795e-06
0.01414283
9.599736e-06
0.01414271
9.600367e-06
0.01414259
9.600702e-06
0.01414246
9.600749e-06
0.01414232
9.600516e-06
0.01414217
9.600008e-06
0.01414202
9.59923e-06
0.01414185
9.598181e-06
0.01414168
9.596862e-06
0.01414151
9.595271e-06
0.01414132
9.593402e-06
0.01414113
9.591249e-06
0.01414093
9.588804e-06
0.01414073
9.586055e-06
0.01414052
9.582989e-06
0.0141403
9.57959e-06
0.01414007
9.575839e-06
0.01413984
9.571715e-06
0.01413961
9.567191e-06
0.01413937
9.56224e-06
0.01413912
9.556828e-06
0.01413887
9.550918e-06
0.01413862
9.544467e-06
0.01413836
9.537425e-06
0.01413809
9.529738e-06
0.01413782
9.521342e-06
0.01413755
9.512165e-06
0.01413728
9.502125e-06
0.01413701
9.491126e-06
0.01413673
9.47906e-06
0.01413645
9.4658e-06
0.01413617
9.451201e-06
0.01413589
9.435093e-06
0.01413562
9.417277e-06
0.01413534
9.397518e-06
0.01413507
9.375538e-06
0.01413481
9.351005e-06
0.01413455
9.323521e-06
0.01413429
9.2926e-06
0.01413405
9.257649e-06
0.01413382
9.217933e-06
0.01413361
9.172529e-06
0.01413342
9.120268e-06
0.01413324
9.059639e-06
0.0141331
8.988665e-06
0.01413299
8.904705e-06
0.01413293
8.804158e-06
0.01413291
8.682002e-06
0.01413297
8.531052e-06
0.01413311
8.340756e-06
0.01413335
8.095149e-06
0.01413374
7.769508e-06
0.01413429
7.324002e-06
0.01413506
6.69521e-06
0.01413605
5.770639e-06
0.01413719
4.392272e-06
2.168356e-06
0.01412106
2.359418e-06
0.01412307
4.635222e-06
0.01412461
5.704608e-06
0.01412578
6.291936e-06
0.01412682
6.862489e-06
0.01412772
7.306456e-06
0.01412853
7.626911e-06
0.01412927
7.878996e-06
0.01412994
8.084714e-06
0.01413056
8.253169e-06
0.01413114
8.392783e-06
0.01413169
8.510159e-06
0.0141322
8.60987e-06
0.01413269
8.69529e-06
0.01413315
8.769025e-06
0.0141336
8.833101e-06
0.01413402
8.889105e-06
0.01413443
8.938304e-06
0.01413483
8.981716e-06
0.01413521
9.020173e-06
0.01413558
9.054355e-06
0.01413594
9.084828e-06
0.01413629
9.112065e-06
0.01413664
9.136463e-06
0.01413697
9.158359e-06
0.0141373
9.178039e-06
0.01413763
9.195748e-06
0.01413795
9.211699e-06
0.01413826
9.226074e-06
0.01413857
9.239032e-06
0.01413887
9.250712e-06
0.01413917
9.261235e-06
0.01413947
9.270707e-06
0.01413976
9.27922e-06
0.01414005
9.286858e-06
0.01414034
9.293692e-06
0.01414063
9.299787e-06
0.01414091
9.305198e-06
0.01414119
9.309975e-06
0.01414147
9.314161e-06
0.01414175
9.317795e-06
0.01414203
9.320909e-06
0.0141423
9.323533e-06
0.01414258
9.325691e-06
0.01414285
9.327405e-06
0.01414312
9.328691e-06
0.01414339
9.329563e-06
0.01414366
9.330033e-06
0.01414393
9.330109e-06
0.0141442
9.329794e-06
0.01414447
9.329092e-06
0.01414474
9.328002e-06
0.01414501
9.326518e-06
0.01414528
9.324636e-06
0.01414555
9.322344e-06
0.01414581
9.319631e-06
0.01414608
9.316478e-06
0.01414635
9.312868e-06
0.01414663
9.308775e-06
0.0141469
9.304173e-06
0.01414717
9.299028e-06
0.01414744
9.293304e-06
0.01414772
9.286959e-06
0.014148
9.279944e-06
0.01414827
9.272203e-06
0.01414855
9.263674e-06
0.01414884
9.254285e-06
0.01414912
9.243956e-06
0.01414941
9.232593e-06
0.0141497
9.220093e-06
0.01415
9.206333e-06
0.0141503
9.191177e-06
0.0141506
9.174466e-06
0.01415091
9.156019e-06
0.01415123
9.135624e-06
0.01415155
9.113036e-06
0.01415188
9.08797e-06
0.01415222
9.060088e-06
0.01415256
9.028994e-06
0.01415292
8.994214e-06
0.01415329
8.955184e-06
0.01415367
8.911219e-06
0.01415407
8.861487e-06
0.01415448
8.804961e-06
0.01415491
8.740369e-06
0.01415537
8.666108e-06
0.01415585
8.580135e-06
0.01415636
8.479816e-06
0.0141569
8.361695e-06
0.01415748
8.221166e-06
0.01415811
8.051994e-06
0.0141588
7.845578e-06
0.01415955
7.589862e-06
0.01416037
7.26767e-06
0.01416129
6.854305e-06
0.0141623
6.313951e-06
0.0141634
5.595932e-06
0.01416454
4.629321e-06
0.0141656
3.331315e-06
1.632916e-06
0.01412351
1.591052e-06
0.01412449
3.662966e-06
0.01412538
4.816435e-06
0.01412619
5.480096e-06
0.01412699
6.063776e-06
0.01412776
6.546129e-06
0.01412846
6.918934e-06
0.01412912
7.219139e-06
0.01412974
7.468005e-06
0.01413032
7.675365e-06
0.01413086
7.849482e-06
0.01413138
7.997202e-06
0.01413186
8.12359e-06
0.01413232
8.232486e-06
0.01413277
8.326915e-06
0.01413319
8.409275e-06
0.0141336
8.48148e-06
0.01413399
8.545072e-06
0.01413437
8.601307e-06
0.01413474
8.651216e-06
0.0141351
8.695653e-06
0.01413545
8.735327e-06
0.01413579
8.770836e-06
0.01413612
8.802686e-06
0.01413645
8.831303e-06
0.01413677
8.857055e-06
0.01413708
8.880256e-06
0.01413739
8.901177e-06
0.0141377
8.920055e-06
0.014138
8.937094e-06
0.0141383
8.952472e-06
0.01413859
8.966347e-06
0.01413889
8.978854e-06
0.01413917
8.990116e-06
0.01413946
9.000239e-06
0.01413975
9.009315e-06
0.01414003
9.017429e-06
0.01414031
9.024652e-06
0.01414059
9.03105e-06
0.01414086
9.036679e-06
0.01414114
9.041587e-06
0.01414142
9.045819e-06
0.01414169
9.049412e-06
0.01414196
9.052398e-06
0.01414224
9.054803e-06
0.01414251
9.056651e-06
0.01414278
9.05796e-06
0.01414305
9.058744e-06
0.01414332
9.059012e-06
0.01414359
9.058771e-06
0.01414386
9.058024e-06
0.01414413
9.056769e-06
0.01414441
9.055001e-06
0.01414468
9.052711e-06
0.01414495
9.049885e-06
0.01414522
9.046507e-06
0.0141455
9.042555e-06
0.01414577
9.038004e-06
0.01414605
9.032821e-06
0.01414632
9.026971e-06
0.0141466
9.020411e-06
0.01414688
9.013093e-06
0.01414717
9.004961e-06
0.01414745
8.995953e-06
0.01414774
8.985997e-06
0.01414802
8.975009e-06
0.01414832
8.962899e-06
0.01414861
8.94956e-06
0.01414891
8.934873e-06
0.01414921
8.918702e-06
0.01414951
8.900892e-06
0.01414982
8.881265e-06
0.01415014
8.859617e-06
0.01415046
8.835716e-06
0.01415079
8.809291e-06
0.01415112
8.780029e-06
0.01415146
8.747567e-06
0.01415181
8.711478e-06
0.01415217
8.671261e-06
0.01415253
8.626323e-06
0.01415291
8.575955e-06
0.0141533
8.519308e-06
0.01415371
8.455356e-06
0.01415413
8.382845e-06
0.01415457
8.300233e-06
0.01415503
8.205602e-06
0.01415552
8.096549e-06
0.01415603
7.970021e-06
0.01415657
7.822104e-06
0.01415714
7.647723e-06
0.01415775
7.44023e-06
0.01415841
7.190839e-06
0.01415911
6.887853e-06
0.01415986
6.515673e-06
0.01416066
6.053593e-06
0.0141615
5.474579e-06
0.01416235
4.744714e-06
0.01416315
3.825175e-06
0.01416381
2.677581e-06
1.303227e-06
0.01412328
1.642558e-06
0.01412386
3.082281e-06
0.01412465
4.02873e-06
0.01412542
4.712869e-06
0.01412617
5.318555e-06
0.01412688
5.832373e-06
0.01412756
6.246899e-06
0.01412819
6.587837e-06
0.01412878
6.873843e-06
0.01412934
7.114976e-06
0.01412987
7.31945e-06
0.01413037
7.494231e-06
0.01413085
7.6447e-06
0.01413131
7.775036e-06
0.01413175
7.88857e-06
0.01413217
7.987979e-06
0.01413258
8.075425e-06
0.01413297
8.152668e-06
0.01413335
8.221151e-06
0.01413372
8.28207e-06
0.01413408
8.336419e-06
0.01413443
8.385034e-06
0.01413477
8.428618e-06
0.0141351
8.467769e-06
0.01413543
8.502999e-06
0.01413575
8.534743e-06
0.01413607
8.56338e-06
0.01413638
8.589235e-06
0.01413669
8.612594e-06
0.01413699
8.633703e-06
0.01413729
8.652779e-06
0.01413759
8.670012e-06
0.01413788
8.685568e-06
0.01413817
8.699595e-06
0.01413846
8.712222e-06
0.01413874
8.723565e-06
0.01413903
8.733723e-06
0.01413931
8.742787e-06
0.01413959
8.750834e-06
0.01413987
8.757935e-06
0.01414015
8.764149e-06
0.01414042
8.769531e-06
0.0141407
8.774125e-06
0.01414097
8.777971e-06
0.01414124
8.781103e-06
0.01414152
8.783547e-06
0.01414179
8.785328e-06
0.01414206
8.78646e-06
0.01414233
8.786959e-06
0.01414261
8.786829e-06
0.01414288
8.786076e-06
0.01414315
8.784697e-06
0.01414342
8.782686e-06
0.01414369
8.780031e-06
0.01414397
8.776718e-06
0.01414424
8.772724e-06
0.01414452
8.768024e-06
0.01414479
8.762585e-06
0.01414507
8.75637e-06
0.01414535
8.749335e-06
0.01414562
8.741427e-06
0.01414591
8.732587e-06
0.01414619
8.722749e-06
0.01414647
8.711836e-06
0.01414676
8.699758e-06
0.01414705
8.686419e-06
0.01414734
8.671704e-06
0.01414763
8.655487e-06
0.01414793
8.637622e-06
0.01414823
8.617946e-06
0.01414853
8.596272e-06
0.01414884
8.572386e-06
0.01414916
8.546044e-06
0.01414947
8.516968e-06
0.0141498
8.484835e-06
0.01415013
8.449274e-06
0.01415047
8.409854e-06
0.01415081
8.366072e-06
0.01415117
8.317342e-06
0.01415153
8.26297e-06
0.0141519
8.202138e-06
0.01415229
8.133868e-06
0.01415269
8.056989e-06
0.0141531
7.970088e-06
0.01415353
7.871443e-06
0.01415398
7.758948e-06
0.01415444
7.629997e-06
0.01415493
7.481354e-06
0.01415544
7.308959e-06
0.01415598
7.107696e-06
0.01415655
6.871083e-06
0.01415715
6.590889e-06
0.01415778
6.256683e-06
0.01415844
5.855353e-06
0.01415913
5.370726e-06
0.01415982
4.783628e-06
0.01416049
4.07279e-06
0.0141611
3.218992e-06
0.01416157
2.208622e-06
1.067338e-06
0.01412435
1.226905e-06
0.01412487
2.566555e-06
0.01412544
3.457528e-06
0.01412603
4.129477e-06
0.01412661
4.731038e-06
0.0141272
5.249474e-06
0.01412777
5.679402e-06
0.01412831
6.040227e-06
0.01412884
6.347273e-06
0.01412935
6.609602e-06
0.01412983
6.834682e-06
0.0141303
7.028961e-06
0.01413074
7.19759e-06
0.01413117
7.344676e-06
0.01413159
7.47356e-06
0.01413199
7.586977e-06
0.01413238
7.687171e-06
0.01413275
7.775998e-06
0.01413312
7.854999e-06
0.01413348
7.925466e-06
0.01413382
7.988482e-06
0.01413416
8.044967e-06
0.0141345
8.095699e-06
0.01413482
8.141346e-06
0.01413514
8.182479e-06
0.01413546
8.219593e-06
0.01413577
8.253114e-06
0.01413607
8.283415e-06
0.01413637
8.310817e-06
0.01413667
8.335605e-06
0.01413697
8.358027e-06
0.01413726
8.378302e-06
0.01413755
8.396621e-06
0.01413783
8.413154e-06
0.01413812
8.428052e-06
0.0141384
8.441447e-06
0.01413868
8.453457e-06
0.01413896
8.464184e-06
0.01413924
8.473721e-06
0.01413951
8.482148e-06
0.01413979
8.489535e-06
0.01414006
8.495945e-06
0.01414033
8.50143e-06
0.0141406
8.506037e-06
0.01414087
8.509804e-06
0.01414115
8.512764e-06
0.01414142
8.514942e-06
0.01414169
8.516359e-06
0.01414196
8.517029e-06
0.01414223
8.516961e-06
0.01414249
8.516159e-06
0.01414276
8.514619e-06
0.01414304
8.512336e-06
0.01414331
8.509294e-06
0.01414358
8.505477e-06
0.01414385
8.500859e-06
0.01414412
8.495409e-06
0.01414439
8.489089e-06
0.01414467
8.481856e-06
0.01414495
8.473657e-06
0.01414522
8.464433e-06
0.0141455
8.454113e-06
0.01414578
8.44262e-06
0.01414606
8.429863e-06
0.01414635
8.415741e-06
0.01414663
8.400138e-06
0.01414692
8.382924e-06
0.01414721
8.363952e-06
0.01414751
8.343054e-06
0.01414781
8.320041e-06
0.01414811
8.294697e-06
0.01414841
8.266777e-06
0.01414872
8.236004e-06
0.01414904
8.202058e-06
0.01414936
8.164572e-06
0.01414968
8.123127e-06
0.01415002
8.077237e-06
0.01415036
8.026339e-06
0.0141507
7.969776e-06
0.01415106
7.906783e-06
0.01415143
7.836456e-06
0.0141518
7.757731e-06
0.01415219
7.669343e-06
0.01415259
7.569779e-06
0.014153
7.457227e-06
0.01415343
7.329496e-06
0.01415388
7.183929e-06
0.01415434
7.017288e-06
0.01415483
6.825614e-06
0.01415533
6.604057e-06
0.01415585
6.346684e-06
0.0141564
6.046262e-06
0.01415696
5.694068e-06
0.01415754
5.279781e-06
0.01415812
4.791592e-06
0.01415868
4.216824e-06
0.01415921
3.543213e-06
0.01415967
2.762619e-06
0.01416
1.872629e-06
8.989486e-07
0.01412446
1.195427e-06
0.01412476
2.266531e-06
0.0141252
3.025099e-06
0.01412568
3.652327e-06
0.01412619
4.22659e-06
0.0141267
4.73156e-06
0.01412722
5.162068e-06
0.01412773
5.531591e-06
0.01412823
5.851326e-06
0.01412871
6.128407e-06
0.01412917
6.369058e-06
0.01412962
6.578876e-06
0.01413006
6.762524e-06
0.01413048
6.923849e-06
0.01413089
7.066064e-06
0.01413128
7.191855e-06
0.01413166
7.303474e-06
0.01413204
7.402809e-06
0.0141324
7.491452e-06
0.01413275
7.570749e-06
0.0141331
7.641847e-06
0.01413344
7.705721e-06
0.01413377
7.763208e-06
0.0141341
7.815029e-06
0.01413442
7.861805e-06
0.01413473
7.904074e-06
0.01413505
7.942306e-06
0.01413535
7.976909e-06
0.01413565
8.008242e-06
0.01413595
8.036619e-06
0.01413625
8.062316e-06
0.01413654
8.085578e-06
0.01413683
8.106618e-06
0.01413712
8.125629e-06
0.0141374
8.142778e-06
0.01413769
8.158215e-06
0.01413797
8.172071e-06
0.01413825
8.184465e-06
0.01413853
8.195499e-06
0.0141388
8.205264e-06
0.01413908
8.213841e-06
0.01413935
8.221299e-06
0.01413963
8.2277e-06
0.0141399
8.233094e-06
0.01414017
8.237527e-06
0.01414044
8.241035e-06
0.01414071
8.243647e-06
0.01414098
8.245387e-06
0.01414126
8.246271e-06
0.01414153
8.246308e-06
0.0141418
8.245504e-06
0.01414207
8.243855e-06
0.01414234
8.241353e-06
0.01414261
8.237983e-06
0.01414288
8.233724e-06
0.01414315
8.228548e-06
0.01414343
8.22242e-06
0.0141437
8.215297e-06
0.01414397
8.207129e-06
0.01414425
8.197857e-06
0.01414453
8.187413e-06
0.01414481
8.17572e-06
0.01414509
8.162687e-06
0.01414537
8.148215e-06
0.01414565
8.132188e-06
0.01414594
8.114477e-06
0.01414622
8.094935e-06
0.01414651
8.073398e-06
0.01414681
8.049678e-06
0.0141471
8.023564e-06
0.0141474
7.994816e-06
0.01414771
7.963164e-06
0.01414802
7.928298e-06
0.01414833
7.889869e-06
0.01414864
7.847473e-06
0.01414897
7.800653e-06
0.0141493
7.748879e-06
0.01414963
7.691544e-06
0.01414997
7.627943e-06
0.01415032
7.557258e-06
0.01415068
7.478535e-06
0.01415105
7.390658e-06
0.01415142
7.292314e-06
0.01415181
7.181954e-06
0.01415221
7.057746e-06
0.01415262
6.917509e-06
0.01415305
6.758649e-06
0.01415349
6.57807e-06
0.01415394
6.37208e-06
0.01415441
6.136285e-06
0.01415489
5.865489e-06
0.01415538
5.553608e-06
0.01415588
5.193651e-06
0.01415638
4.777823e-06
0.01415688
4.297854e-06
0.01415735
3.745777e-06
0.01415778
3.115128e-06
0.01415814
2.403809e-06
0.01415839
1.614635e-06
7.701811e-07
0.01412504
9.998674e-07
0.01412533
1.978062e-06
0.0141257
2.664954e-06
0.0141261
3.247887e-06
0.01412654
3.794269e-06
0.01412699
4.283606e-06
0.01412744
4.709136e-06
0.01412789
5.080564e-06
0.01412834
5.406247e-06
0.01412877
5.691779e-06
0.0141292
5.942335e-06
0.01412962
6.162737e-06
0.01413002
6.357135e-06
0.01413041
6.52905e-06
0.0141308
6.681485e-06
0.01413117
6.817006e-06
0.01413154
6.937794e-06
0.0141319
7.045709e-06
0.01413224
7.142338e-06
0.01413259
7.229041e-06
0.01413292
7.306985e-06
0.01413325
7.377175e-06
0.01413357
7.440479e-06
0.01413389
7.497649e-06
0.0141342
7.549339e-06
0.01413451
7.59612e-06
0.01413481
7.63849e-06
0.01413511
7.676885e-06
0.01413541
7.711691e-06
0.0141357
7.743246e-06
0.01413599
7.771848e-06
0.01413628
7.797762e-06
0.01413656
7.821222e-06
0.01413685
7.842435e-06
0.01413713
7.861586e-06
0.01413741
7.878838e-06
0.01413769
7.894336e-06
0.01413796
7.908208e-06
0.01413824
7.920568e-06
0.01413851
7.931516e-06
0.01413878
7.94114e-06
0.01413905
7.949518e-06
0.01413933
7.956717e-06
0.0141396
7.962793e-06
0.01413987
7.967797e-06
0.01414013
7.971767e-06
0.0141404
7.974738e-06
0.01414067
7.976733e-06
0.01414094
7.977773e-06
0.01414121
7.977866e-06
0.01414148
7.977019e-06
0.01414175
7.975227e-06
0.01414201
7.972482e-06
0.01414228
7.968766e-06
0.01414255
7.964057e-06
0.01414282
7.958323e-06
0.01414309
7.951526e-06
0.01414337
7.943617e-06
0.01414364
7.934542e-06
0.01414391
7.924236e-06
0.01414419
7.912623e-06
0.01414446
7.899617e-06
0.01414474
7.88512e-06
0.01414502
7.869022e-06
0.0141453
7.851195e-06
0.01414558
7.831499e-06
0.01414587
7.809772e-06
0.01414616
7.785835e-06
0.01414645
7.759483e-06
0.01414674
7.730488e-06
0.01414704
7.698589e-06
0.01414734
7.663494e-06
0.01414764
7.624871e-06
0.01414795
7.582343e-06
0.01414826
7.535482e-06
0.01414857
7.4838e-06
0.0141489
7.426739e-06
0.01414922
7.36366e-06
0.01414956
7.293828e-06
0.0141499
7.216398e-06
0.01415025
7.13039e-06
0.0141506
7.03467e-06
0.01415097
6.927919e-06
0.01415134
6.808601e-06
0.01415172
6.674922e-06
0.01415212
6.524786e-06
0.01415252
6.355742e-06
0.01415293
6.164932e-06
0.01415336
5.949028e-06
0.01415379
5.704186e-06
0.01415423
5.426013e-06
0.01415467
5.109569e-06
0.01415512
4.749452e-06
0.01415555
4.34e-06
0.01415598
3.875687e-06
0.01415637
3.351841e-06
0.01415672
2.765606e-06
0.01415701
2.117921e-06
0.01415721
1.413418e-06
6.701936e-07
0.01412528
9.355055e-07
0.01412549
1.778167e-06
0.01412577
2.385418e-06
0.0141261
2.923356e-06
0.01412646
3.435422e-06
0.01412684
3.900347e-06
0.01412724
4.311594e-06
0.01412764
4.676222e-06
0.01412805
5.000236e-06
0.01412845
5.28772e-06
0.01412885
5.542705e-06
0.01412925
5.769126e-06
0.01412963
5.970484e-06
0.01413001
6.149843e-06
0.01413038
6.30989e-06
0.01413075
6.452968e-06
0.0141311
6.581114e-06
0.01413145
6.696093e-06
0.0141318
6.799439e-06
0.01413213
6.892479e-06
0.01413246
6.976369e-06
0.01413279
7.052114e-06
0.01413311
7.12059e-06
0.01413342
7.182563e-06
0.01413373
7.238704e-06
0.01413404
7.289602e-06
0.01413434
7.335773e-06
0.01413464
7.377675e-06
0.01413494
7.415711e-06
0.01413523
7.450236e-06
0.01413552
7.481568e-06
0.01413581
7.509986e-06
0.01413609
7.53574e-06
0.01413637
7.559052e-06
0.01413666
7.580117e-06
0.01413694
7.599112e-06
0.01413721
7.616192e-06
0.01413749
7.631496e-06
0.01413777
7.645146e-06
0.01413804
7.657251e-06
0.01413831
7.667905e-06
0.01413858
7.677193e-06
0.01413886
7.685186e-06
0.01413913
7.691948e-06
0.0141394
7.697532e-06
0.01413967
7.70198e-06
0.01413994
7.70533e-06
0.01414021
7.707608e-06
0.01414047
7.708833e-06
0.01414074
7.709019e-06
0.01414101
7.70817e-06
0.01414128
7.706283e-06
0.01414155
7.703346e-06
0.01414182
7.699344e-06
0.01414209
7.694249e-06
0.01414236
7.688028e-06
0.01414263
7.680639e-06
0.0141429
7.67203e-06
0.01414317
7.662142e-06
0.01414345
7.650904e-06
0.01414372
7.638234e-06
0.014144
7.624039e-06
0.01414427
7.608215e-06
0.01414455
7.59064e-06
0.01414483
7.571179e-06
0.01414511
7.54968e-06
0.0141454
7.525971e-06
0.01414568
7.499859e-06
0.01414597
7.471126e-06
0.01414626
7.439529e-06
0.01414656
7.404793e-06
0.01414685
7.366607e-06
0.01414715
7.324622e-06
0.01414746
7.278444e-06
0.01414777
7.227625e-06
0.01414808
7.171659e-06
0.01414839
7.109971e-06
0.01414872
7.041904e-06
0.01414904
6.966712e-06
0.01414938
6.883539e-06
0.01414971
6.791406e-06
0.01415006
6.68919e-06
0.01415041
6.5756e-06
0.01415077
6.449149e-06
0.01415114
6.308132e-06
0.01415151
6.150584e-06
0.01415189
5.974255e-06
0.01415228
5.776574e-06
0.01415268
5.554626e-06
0.01415308
5.305139e-06
0.01415348
5.024497e-06
0.01415388
4.708803e-06
0.01415427
4.353999e-06
0.01415466
3.956108e-06
0.01415502
3.51161e-06
0.01415536
3.018031e-06
0.01415565
2.474654e-06
0.01415588
1.883855e-06
0.01415604
1.250709e-06
5.896876e-07
0.01412566
8.258457e-07
0.01412584
1.59306e-06
0.01412609
2.143553e-06
0.01412638
2.638542e-06
0.0141267
3.117052e-06
0.01412704
3.557683e-06
0.0141274
3.953286e-06
0.01412777
4.308809e-06
0.01412814
4.628446e-06
0.01412851
4.915027e-06
0.01412888
5.171608e-06
0.01412925
5.401343e-06
0.01412961
5.60715e-06
0.01412997
5.791664e-06
0.01413032
5.957256e-06
0.01413067
6.106046e-06
0.01413101
6.239909e-06
0.01413134
6.360499e-06
0.01413167
6.469273e-06
0.014132
6.567511e-06
0.01413232
6.656337e-06
0.01413263
6.736742e-06
0.01413295
6.809595e-06
0.01413325
6.875663e-06
0.01413355
6.935623e-06
0.01413385
6.990071e-06
0.01413415
7.039538e-06
0.01413444
7.084491e-06
0.01413473
7.125345e-06
0.01413502
7.162472e-06
0.01413531
7.196198e-06
0.01413559
7.226817e-06
0.01413587
7.25459e-06
0.01413615
7.279748e-06
0.01413643
7.302501e-06
0.0141367
7.323032e-06
0.01413698
7.341506e-06
0.01413725
7.35807e-06
0.01413752
7.372854e-06
0.01413779
7.385973e-06
0.01413806
7.397529e-06
0.01413833
7.407609e-06
0.0141386
7.416293e-06
0.01413887
7.423646e-06
0.01413914
7.429725e-06
0.01413941
7.434578e-06
0.01413967
7.438241e-06
0.01413994
7.440745e-06
0.01414021
7.44211e-06
0.01414047
7.44235e-06
0.01414074
7.441469e-06
0.01414101
7.439464e-06
0.01414127
7.436324e-06
0.01414154
7.43203e-06
0.01414181
7.426554e-06
0.01414208
7.41986e-06
0.01414234
7.411904e-06
0.01414261
7.402629e-06
0.01414288
7.391973e-06
0.01414316
7.37986e-06
0.01414343
7.366203e-06
0.0141437
7.350903e-06
0.01414397
7.333848e-06
0.01414425
7.31491e-06
0.01414453
7.293947e-06
0.01414481
7.270798e-06
0.01414509
7.24528e-06
0.01414537
7.217192e-06
0.01414565
7.186305e-06
0.01414594
7.152364e-06
0.01414623
7.115083e-06
0.01414652
7.07414e-06
0.01414682
7.029174e-06
0.01414712
6.979778e-06
0.01414742
6.925495e-06
0.01414773
6.865809e-06
0.01414804
6.800137e-06
0.01414835
6.72782e-06
0.01414867
6.648113e-06
0.01414899
6.560169e-06
0.01414932
6.463028e-06
0.01414965
6.355601e-06
0.01414999
6.236651e-06
0.01415034
6.104772e-06
0.01415069
5.958374e-06
0.01415104
5.795659e-06
0.0141514
5.614604e-06
0.01415176
5.412949e-06
0.01415213
5.188197e-06
0.0141525
4.937624e-06
0.01415286
4.658325e-06
0.01415323
4.347298e-06
0.01415358
4.001584e-06
0.01415392
3.618496e-06
0.01415423
3.19594e-06
0.01415452
2.732872e-06
0.01415476
2.22979e-06
0.01415496
1.689615e-06
0.01415509
1.117169e-06
5.239058e-07
0.0141259
7.639405e-07
0.01412605
1.448457e-06
0.01412625
1.945286e-06
0.01412649
2.402052e-06
0.01412676
2.848208e-06
0.01412706
3.263158e-06
0.01412737
3.640096e-06
0.0141277
3.982639e-06
0.01412803
4.293718e-06
0.01412837
4.575243e-06
0.01412871
4.829481e-06
0.01412906
5.058915e-06
0.0141294
5.26592e-06
0.01412973
5.452703e-06
0.01413007
5.621306e-06
0.0141304
5.773592e-06
0.01413073
5.911242e-06
0.01413106
6.035767e-06
0.01413138
6.148514e-06
0.01413169
6.250686e-06
0.01413201
6.343352e-06
0.01413231
6.427463e-06
0.01413262
6.503865e-06
0.01413292
6.573306e-06
0.01413322
6.636456e-06
0.01413352
6.693908e-06
0.01413381
6.746191e-06
0.0141341
6.793776e-06
0.01413439
6.837085e-06
0.01413467
6.876492e-06
0.01413496
6.912334e-06
0.01413524
6.94491e-06
0.01413552
6.974489e-06
0.0141358
7.00131e-06
0.01413607
7.025588e-06
0.01413635
7.047516e-06
0.01413662
7.067264e-06
0.0141369
7.084986e-06
0.01413717
7.100816e-06
0.01413744
7.114876e-06
0.01413771
7.127272e-06
0.01413798
7.138096e-06
0.01413825
7.147432e-06
0.01413852
7.155347e-06
0.01413878
7.161903e-06
0.01413905
7.167148e-06
0.01413932
7.171123e-06
0.01413959
7.173858e-06
0.01413985
7.175376e-06
0.01414012
7.17569e-06
0.01414039
7.174805e-06
0.01414065
7.172718e-06
0.01414092
7.169418e-06
0.01414119
7.164883e-06
0.01414145
7.159086e-06
0.01414172
7.151987e-06
0.01414199
7.143539e-06
0.01414226
7.133685e-06
0.01414253
7.122357e-06
0.0141428
7.109475e-06
0.01414307
7.094949e-06
0.01414334
7.078676e-06
0.01414362
7.060536e-06
0.01414389
7.040399e-06
0.01414417
7.018113e-06
0.01414444
6.993511e-06
0.01414472
6.966405e-06
0.014145
6.936586e-06
0.01414528
6.903816e-06
0.01414557
6.867835e-06
0.01414586
6.828347e-06
0.01414614
6.785025e-06
0.01414644
6.737499e-06
0.01414673
6.68536e-06
0.01414703
6.628145e-06
0.01414733
6.565337e-06
0.01414763
6.496357e-06
0.01414794
6.420554e-06
0.01414825
6.337194e-06
0.01414857
6.245456e-06
0.01414888
6.144415e-06
0.01414921
6.033033e-06
0.01414953
5.910145e-06
0.01414986
5.774448e-06
0.0141502
5.624484e-06
0.01415053
5.458638e-06
0.01415087
5.275124e-06
0.01415121
5.071995e-06
0.01415156
4.847149e-06
0.01415189
4.598363e-06
0.01415223
4.32335e-06
0.01415256
4.019851e-06
0.01415287
3.68577e-06
0.01415317
3.319378e-06
0.01415345
2.919565e-06
0.01415369
2.486188e-06
0.0141539
2.020393e-06
0.01415407
1.525199e-06
0.01415418
1.004964e-06
4.688713e-07
0.01412618
6.916899e-07
0.01412631
1.317373e-06
0.01412649
1.77097e-06
0.0141267
2.192041e-06
0.01412694
2.607175e-06
0.01412721
2.99694e-06
0.0141275
3.354722e-06
0.0141278
3.683134e-06
0.01412811
3.984152e-06
0.01412842
4.25894e-06
0.01412874
4.509091e-06
0.01412907
4.736496e-06
0.01412939
4.943039e-06
0.01412971
5.130532e-06
0.01413003
5.300699e-06
0.01413035
5.455153e-06
0.01413066
5.595382e-06
0.01413098
5.722745e-06
0.01413129
5.838477e-06
0.01413159
5.943692e-06
0.0141319
6.039397e-06
0.0141322
6.126495e-06
0.0141325
6.205797e-06
0.01413279
6.27803e-06
0.01413308
6.343846e-06
0.01413337
6.403828e-06
0.01413366
6.458502e-06
0.01413395
6.508335e-06
0.01413423
6.55375e-06
0.01413451
6.595124e-06
0.01413479
6.632796e-06
0.01413507
6.66707e-06
0.01413534
6.69822e-06
0.01413562
6.72649e-06
0.01413589
6.752101e-06
0.01413616
6.775249e-06
0.01413643
6.796111e-06
0.0141367
6.814845e-06
0.01413697
6.831591e-06
0.01413724
6.846473e-06
0.01413751
6.859603e-06
0.01413778
6.871076e-06
0.01413804
6.880978e-06
0.01413831
6.889381e-06
0.01413857
6.896347e-06
0.01413884
6.901929e-06
0.0141391
6.906167e-06
0.01413937
6.909094e-06
0.01413963
6.910734e-06
0.0141399
6.9111e-06
0.01414016
6.910197e-06
0.01414043
6.908024e-06
0.01414069
6.904566e-06
0.01414096
6.899803e-06
0.01414122
6.893705e-06
0.01414149
6.886232e-06
0.01414175
6.877334e-06
0.01414202
6.866952e-06
0.01414229
6.855014e-06
0.01414256
6.84144e-06
0.01414282
6.826134e-06
0.01414309
6.808989e-06
0.01414336
6.789884e-06
0.01414364
6.76868e-06
0.01414391
6.745225e-06
0.01414418
6.719345e-06
0.01414446
6.690848e-06
0.01414474
6.659519e-06
0.01414501
6.625118e-06
0.01414529
6.587377e-06
0.01414558
6.546e-06
0.01414586
6.500653e-06
0.01414615
6.450969e-06
0.01414644
6.396537e-06
0.01414673
6.336896e-06
0.01414702
6.271538e-06
0.01414732
6.199892e-06
0.01414762
6.121324e-06
0.01414792
6.035126e-06
0.01414822
5.94051e-06
0.01414853
5.836599e-06
0.01414884
5.722419e-06
0.01414916
5.596889e-06
0.01414947
5.458817e-06
0.01414979
5.306892e-06
0.01415011
5.139682e-06
0.01415043
4.955637e-06
0.01415075
4.753102e-06
0.01415106
4.530339e-06
0.01415138
4.285566e-06
0.01415168
4.017015e-06
0.01415198
3.723028e-06
0.01415226
3.402174e-06
0.01415253
3.053417e-06
0.01415277
2.676316e-06
0.01415299
2.271271e-06
0.01415317
1.839735e-06
0.01415331
1.384594e-06
0.0141534
9.096686e-07
4.223421e-07
0.0141264
6.389099e-07
0.01412651
1.207369e-06
0.01412666
1.621747e-06
0.01412685
2.011209e-06
0.01412706
2.397833e-06
0.01412729
2.763439e-06
0.01412755
3.101886e-06
0.01412781
3.41512e-06
0.01412809
3.704452e-06
0.01412838
3.970524e-06
0.01412868
4.214432e-06
0.01412898
4.437603e-06
0.01412928
4.641519e-06
0.01412958
4.827652e-06
0.01412988
4.997445e-06
0.01413019
5.152277e-06
0.01413049
5.293448e-06
0.01413079
5.422164e-06
0.01413109
5.539539e-06
0.01413138
5.646593e-06
0.01413168
5.744256e-06
0.01413197
5.833374e-06
0.01413226
5.914712e-06
0.01413255
5.988965e-06
0.01413284
6.056758e-06
0.01413312
6.118658e-06
0.01413341
6.175174e-06
0.01413369
6.226767e-06
0.01413397
6.273852e-06
0.01413424