/*--------------------------------*- C++ -*----------------------------------*\
| =========                 |                                                 |
| \\      /  F ield         | OpenFOAM: The Open Source CFD Toolbox           |
|  \\    /   O peration     | Version:  2.3.0                                 |
|   \\  /    A nd           | Web:      www.OpenFOAM.org                      |
|    \\/     M anipulation  |                                                 |
\*---------------------------------------------------------------------------*/
FoamFile
{
    version     2.0;
    format      ascii;
    class       volScalarField;
    location    "9900/wall";
    object      T;
}
// * * * * * * * * * * * * * * * * * * * * * * * * * * * * * * * * * * * * * //

dimensions      [0 0 0 1 0 0 0];

internalField   nonuniform List<scalar> 
2000
(
809.6064
809.5953
809.5743
809.5447
809.5081
809.4654
809.4175
809.3647
809.3076
809.2466
809.1819
809.114
809.043
808.9692
808.8927
808.8138
808.7325
808.6492
808.5638
808.4765
808.3875
808.2968
808.2045
808.1108
808.0157
807.9193
807.8217
807.723
807.6232
807.5224
807.4207
807.3181
807.2147
807.1105
807.0056
806.9002
806.7941
806.6875
806.5804
806.4729
806.365
806.2568
806.1482
806.0395
805.9305
805.8214
805.7121
805.6028
805.4935
805.3841
805.2749
805.1657
805.0567
804.9478
804.8392
804.7309
804.6228
804.5151
804.4078
804.301
804.1946
804.0887
803.9835
803.8788
803.7748
803.6716
803.5691
803.4674
803.3666
803.2667
803.1678
803.0699
802.9731
802.8775
802.7832
802.6901
802.5984
802.5081
802.4193
802.3322
802.2468
802.1632
802.0815
802.0018
801.9242
801.8489
801.7761
801.7058
801.6384
801.5739
801.5126
801.4547
801.4007
801.3507
801.3053
801.2649
801.2301
801.2018
801.181
801.1694
802.9947
802.9855
802.9677
802.9423
802.9101
802.8719
802.8285
802.7803
802.7278
802.6713
802.6112
802.5478
802.4813
802.4119
802.3398
802.2653
802.1884
802.1093
802.0283
801.9453
801.8605
801.774
801.686
801.5964
801.5055
801.4132
801.3197
801.2251
801.1293
801.0326
800.9349
800.8363
800.7369
800.6367
800.5359
800.4343
800.3322
800.2295
800.1264
800.0228
799.9188
799.8145
799.7098
799.6049
799.4998
799.3945
799.2892
799.1837
799.0782
798.9727
798.8673
798.762
798.6568
798.5518
798.447
798.3425
798.2383
798.1344
798.031
797.928
797.8254
797.7234
797.622
797.5212
797.4211
797.3217
797.2231
797.1253
797.0284
796.9324
796.8374
796.7435
796.6507
796.559
796.4686
796.3795
796.2918
796.2056
796.1209
796.0378
795.9564
795.8769
795.7993
795.7237
795.6503
795.5792
795.5105
795.4445
795.3812
795.321
795.264
795.2104
795.1606
795.115
795.0738
795.0377
795.0071
794.9828
794.9656
794.9565
796.3924
796.3845
796.3691
796.3468
796.3183
796.284
796.2446
796.2006
796.1522
796.1
796.0441
795.9849
795.9227
795.8575
795.7897
795.7194
795.6467
795.5719
795.495
795.4162
795.3355
795.2532
795.1692
795.0838
794.9969
794.9087
794.8192
794.7286
794.6369
794.5441
794.4504
794.3558
794.2603
794.1641
794.0671
793.9695
793.8713
793.7725
793.6732
793.5735
793.4734
793.3729
793.2721
793.171
793.0697
792.9683
792.8667
792.7651
792.6634
792.5617
792.4601
792.3586
792.2572
792.156
792.055
791.9543
791.8539
791.7538
791.6542
791.555
791.4563
791.3581
791.2605
791.1635
791.0672
790.9717
790.8769
790.7829
790.6899
790.5978
790.5066
790.4166
790.3276
790.2399
790.1534
790.0682
789.9844
789.9021
789.8213
789.7422
789.6648
789.5893
789.5157
789.4441
789.3747
789.3076
789.243
789.181
789.1218
789.0656
789.0125
788.963
788.9172
788.8754
788.8381
788.8056
788.7785
788.7572
788.7426
788.7351
789.7981
789.7912
789.7777
789.758
789.7324
789.7015
789.6657
789.6253
789.5808
789.5325
789.4806
789.4255
789.3672
789.3062
789.2424
789.1762
789.1076
789.0368
788.9639
788.8892
788.8126
788.7342
788.6543
788.5729
788.49
788.4058
788.3203
788.2336
788.1458
788.057
787.9671
787.8764
787.7849
787.6925
787.5994
787.5057
787.4113
787.3163
787.2209
787.125
787.0287
786.932
786.835
786.7377
786.6403
786.5426
786.4448
786.347
786.2491
786.1511
786.0533
785.9555
785.8579
785.7605
785.6632
785.5663
785.4696
785.3734
785.2775
785.182
785.0871
784.9927
784.8988
784.8056
784.7131
784.6214
784.5304
784.4402
784.351
784.2626
784.1753
784.0891
784.004
783.9201
783.8374
783.756
783.6761
783.5977
783.5208
783.4455
783.372
783.3003
783.2306
783.1629
783.0974
783.0342
782.9735
782.9153
782.8599
782.8075
782.7583
782.7124
782.6702
782.632
782.5981
782.5688
782.5445
782.5258
782.513
782.5066
783.211
783.2049
783.1928
783.1752
783.1521
783.1241
783.0915
783.0545
783.0136
782.9689
782.9207
782.8693
782.8149
782.7577
782.6979
782.6355
782.5709
782.504
782.4351
782.3643
782.2916
782.2172
782.1412
782.0637
781.9847
781.9044
781.8228
781.74
781.6561
781.5711
781.4852
781.3983
781.3106
781.222
781.1328
781.0428
780.9522
780.8611
780.7694
780.6773
780.5847
780.4918
780.3986
780.3051
780.2114
780.1175
780.0234
779.9293
779.8351
779.7409
779.6468
779.5528
779.4589
779.3652
779.2717
779.1784
779.0855
778.993
778.9008
778.8091
778.7178
778.6272
778.5371
778.4476
778.3588
778.2708
778.1835
778.0971
778.0116
777.927
777.8435
777.761
777.6797
777.5995
777.5206
777.443
777.3669
777.2922
777.2191
777.1477
777.0779
777.01
776.9441
776.8802
776.8184
776.759
776.7019
776.6475
776.5957
776.5469
776.5012
776.4588
776.42
776.3849
776.354
776.3275
776.3057
776.289
776.2777
776.2721
776.6301
776.6247
776.6139
776.598
776.5772
776.5517
776.5219
776.488
776.4503
776.409
776.3643
776.3165
776.2657
776.2122
776.1561
776.0976
776.0367
775.9737
775.9086
775.8416
775.7727
775.7022
775.63
775.5563
775.4812
775.4047
775.3269
775.2479
775.1678
775.0866
775.0044
774.9214
774.8374
774.7526
774.6671
774.5809
774.4941
774.4067
774.3188
774.2304
774.1416
774.0524
773.9629
773.8731
773.7831
773.6929
773.6025
773.5121
773.4216
773.3311
773.2407
773.1504
773.0601
772.9701
772.8803
772.7907
772.7015
772.6126
772.5241
772.4361
772.3485
772.2615
772.1751
772.0894
772.0043
771.9199
771.8364
771.7536
771.6718
771.591
771.5111
771.4323
771.3547
771.2782
771.203
771.1292
771.0567
770.9858
770.9164
770.8486
770.7826
770.7184
770.6561
770.5958
770.5377
770.4819
770.4284
770.3775
770.3292
770.2838
770.2414
770.2022
770.1665
770.1344
770.1061
770.0821
770.0624
770.0474
770.0373
770.0323
770.055
770.05
770.0403
770.0259
770.0071
769.9839
769.9566
769.9256
769.8908
769.8527
769.8113
769.7669
769.7196
769.6696
769.6171
769.5622
769.505
769.4456
769.3842
769.3209
769.2558
769.189
769.1206
769.0507
768.9793
768.9065
768.8325
768.7572
768.6809
768.6034
768.525
768.4456
768.3654
768.2844
768.2026
768.1201
768.037
767.9533
767.869
767.7843
767.6992
767.6137
767.5278
767.4417
767.3553
767.2688
767.1821
767.0954
767.0085
766.9217
766.8349
766.7482
766.6616
766.5753
766.4891
766.4032
766.3176
766.2323
766.1475
766.0631
765.9792
765.8958
765.813
765.7309
765.6495
765.5687
765.4888
765.4098
765.3316
765.2544
765.1781
765.103
765.029
764.9562
764.8846
764.8144
764.7456
764.6783
764.6125
764.5483
764.4859
764.4253
764.3666
764.3099
764.2553
764.2029
764.1529
764.1053
764.0604
764.0182
763.9789
763.9428
763.9099
763.8805
763.8547
763.8328
763.815
763.8015
763.7925
763.788
763.4849
763.4805
763.4717
763.4586
763.4415
763.4204
763.3955
763.367
763.3351
763.2999
763.2616
763.2204
763.1764
763.1298
763.0808
763.0293
762.9757
762.9199
762.8621
762.8024
762.741
762.6778
762.6131
762.5468
762.479
762.41
762.3396
762.268
762.1953
762.1216
762.0468
761.9711
761.8946
761.8172
761.739
761.6602
761.5807
761.5007
761.4201
761.339
761.2575
761.1756
761.0934
761.0109
760.9282
760.8453
760.7622
760.6791
760.5959
760.5126
760.4295
760.3464
760.2634
760.1806
760.098
760.0157
759.9337
759.8521
759.7708
759.69
759.6097
759.53
759.4508
759.3722
759.2944
759.2173
759.1409
759.0655
758.9909
758.9172
758.8446
758.7731
758.7026
758.6334
758.5654
758.4988
758.4335
758.3698
758.3075
758.2469
758.188
758.1309
758.0756
758.0223
757.9712
757.9221
757.8754
757.8311
757.7893
757.7502
757.7139
757.6806
757.6504
757.6234
757.5999
757.58
757.5639
757.5517
757.5435
757.5395
756.9195
756.9155
756.9075
756.8957
756.8802
756.861
756.8383
756.8122
756.7829
756.7505
756.7151
756.677
756.6362
756.5928
756.5471
756.499
756.4488
756.3965
756.3422
756.286
756.2281
756.1685
756.1073
756.0446
755.9805
755.915
755.8483
755.7803
755.7112
755.6411
755.5699
755.4978
755.4249
755.3511
755.2766
755.2013
755.1255
755.049
754.972
754.8945
754.8166
754.7383
754.6597
754.5808
754.5016
754.4223
754.3428
754.2632
754.1836
754.1039
754.0243
753.9448
753.8654
753.7862
753.7072
753.6284
753.55
753.4719
753.3942
753.3169
753.2402
753.164
753.0883
753.0133
752.939
752.8654
752.7927
752.7207
752.6497
752.5796
752.5105
752.4425
752.3756
752.3099
752.2454
752.1823
752.1205
752.0602
752.0014
751.9443
751.8888
751.8351
751.7832
751.7333
751.6854
751.6396
751.5961
751.5549
751.5162
751.48
751.4465
751.4159
751.3881
751.3635
751.3421
751.324
751.3094
751.2984
751.291
751.2874
750.3583
750.3547
750.3475
750.3369
750.3228
750.3053
750.2847
750.2608
750.234
750.2042
750.1717
750.1365
750.0987
750.0585
750.0159
749.9711
749.9242
749.8753
749.8244
749.7717
749.7172
749.6611
749.6034
749.5442
749.4836
749.4216
749.3584
749.294
749.2285
749.1619
749.0943
749.0257
748.9563
748.8861
748.8151
748.7434
748.6711
748.5982
748.5248
748.4508
748.3765
748.3017
748.2266
748.1513
748.0756
747.9998
747.9239
747.8478
747.7717
747.6956
747.6195
747.5435
747.4676
747.3919
747.3164
747.2412
747.1663
747.0917
747.0175
746.9438
746.8705
746.7978
746.7257
746.6542
746.5834
746.5133
746.444
746.3755
746.308
746.2414
746.1758
746.1112
746.0478
745.9855
745.9245
745.8648
745.8065
745.7496
745.6942
745.6404
745.5883
745.5379
745.4893
745.4426
745.3979
745.3553
745.3149
745.2767
745.2409
745.2076
745.1768
745.1487
745.1233
745.1009
745.0814
745.065
745.0519
745.0419
745.0353
745.0321
743.801
743.7977
743.7913
743.7817
743.769
743.7532
743.7344
743.7128
743.6883
743.6611
743.6312
743.5988
743.564
743.5268
743.4873
743.4457
743.402
743.3563
743.3087
743.2594
743.2083
743.1555
743.1013
743.0455
742.9883
742.9298
742.8701
742.8092
742.7471
742.684
742.6199
742.5548
742.4889
742.4222
742.3547
742.2865
742.2177
742.1483
742.0783
742.0079
741.937
741.8658
741.7942
741.7223
741.6502
741.5779
741.5054
741.4329
741.3602
741.2876
741.215
741.1425
741.0701
740.9978
740.9258
740.8541
740.7826
740.7115
740.6408
740.5705
740.5007
740.4315
740.3628
740.2948
740.2274
740.1608
740.0949
740.0299
739.9658
739.9026
739.8404
739.7793
739.7193
739.6604
739.6028
739.5464
739.4915
739.4379
739.3859
739.3354
739.2865
739.2394
739.194
739.1505
739.1089
739.0694
739.0319
738.9967
738.9637
738.933
738.9048
738.8792
738.8561
738.8358
738.8182
738.8034
738.7915
738.7826
738.7767
738.7738
737.2471
737.2442
737.2384
737.2298
737.2185
737.2043
737.1874
737.1678
737.1456
737.1208
737.0936
737.0639
737.0319
736.9976
736.9611
736.9226
736.882
736.8395
736.7952
736.749
736.7013
736.6518
736.6009
736.5485
736.4947
736.4396
736.3833
736.3257
736.2671
736.2074
736.1467
736.0851
736.0226
735.9593
735.8953
735.8306
735.7652
735.6992
735.6327
735.5658
735.4984
735.4305
735.3624
735.294
735.2253
735.1564
735.0874
735.0183
734.9491
734.8799
734.8108
734.7417
734.6727
734.6039
734.5354
734.467
734.399
734.3313
734.264
734.1972
734.1308
734.065
733.9997
733.9351
733.8711
733.8079
733.7455
733.6838
733.6231
733.5633
733.5045
733.4467
733.39
733.3345
733.2802
733.2272
733.1755
733.1252
733.0764
733.0292
732.9835
732.9395
732.8973
732.8569
732.8183
732.7818
732.7472
732.7148
732.6846
732.6565
732.6309
732.6076
732.5867
732.5683
732.5525
732.5393
732.5287
732.5208
732.5155
732.513
730.6963
730.6937
730.6887
730.6811
730.671
730.6584
730.6433
730.6258
730.6058
730.5833
730.5586
730.5316
730.5023
730.4708
730.4373
730.4017
730.3642
730.3248
730.2836
730.2407
730.1961
730.15
730.1023
730.0532
730.0027
729.9509
729.8979
729.8437
729.7884
729.7321
729.6748
729.6166
729.5575
729.4976
729.4369
729.3756
729.3136
729.2511
729.188
729.1244
729.0604
728.996
728.9312
728.8662
728.801
728.7355
728.6699
728.6042
728.5384
728.4726
728.4069
728.3412
728.2756
728.2102
728.145
728.0801
728.0154
727.9512
727.8872
727.8238
727.7608
727.6983
727.6364
727.5752
727.5146
727.4547
727.3956
727.3373
727.2799
727.2234
727.1679
727.1134
727.06
727.0078
726.9567
726.907
726.8585
726.8115
726.7659
726.7218
726.6793
726.6384
726.5992
726.5618
726.5262
726.4926
726.4609
726.4312
726.4036
726.3782
726.3549
726.3339
726.3152
726.2988
726.2847
726.273
726.2637
726.2567
726.2521
726.2499
724.1483
724.146
724.1417
724.1351
724.1263
724.1153
724.1019
724.0864
724.0685
724.0485
724.0262
724.0017
723.9751
723.9464
723.9158
723.8831
723.8486
723.8122
723.7741
723.7343
723.6928
723.6499
723.6054
723.5595
723.5122
723.4637
723.414
723.3631
723.3111
723.2581
723.2041
723.1492
723.0934
723.0368
722.9795
722.9216
722.8629
722.8037
722.744
722.6838
722.6231
722.5621
722.5007
722.439
722.3771
722.315
722.2528
722.1904
722.128
722.0656
722.0032
721.9409
721.8787
721.8166
721.7548
721.6932
721.6319
721.5709
721.5104
721.4502
721.3906
721.3314
721.2729
721.2149
721.1576
721.1011
721.0452
720.9902
720.9361
720.8829
720.8306
720.7794
720.7293
720.6803
720.6324
720.5859
720.5406
720.4967
720.4542
720.4132
720.3738
720.3359
720.2998
720.2653
720.2327
720.2019
720.1729
720.146
720.121
720.0981
720.0772
720.0585
720.0418
720.0274
720.015
720.0048
719.9967
719.9907
719.9868
719.9849
717.6026
717.6008
717.5971
717.5916
717.5841
717.5746
717.5631
717.5495
717.5338
717.516
717.4962
717.4742
717.4503
717.4243
717.3964
717.3667
717.335
717.3016
717.2665
717.2297
717.1914
717.1515
717.1102
717.0674
717.0234
716.978
716.9315
716.8838
716.8351
716.7853
716.7346
716.6829
716.6304
716.5772
716.5231
716.4684
716.4131
716.3572
716.3008
716.2439
716.1865
716.1288
716.0707
716.0124
715.9538
715.895
715.8361
715.7771
715.718
715.6589
715.5998
715.5408
715.4819
715.4232
715.3646
715.3064
715.2484
715.1907
715.1334
715.0766
715.0202
714.9644
714.9091
714.8544
714.8004
714.747
714.6945
714.6427
714.5918
714.5418
714.4928
714.4448
714.3978
714.352
714.3073
714.2638
714.2217
714.1809
714.1415
714.1035
714.0671
714.0322
713.999
713.9675
713.9377
713.9096
713.8834
713.8591
713.8367
713.8163
713.7978
713.7813
713.7668
713.7542
713.7436
713.7349
713.7281
713.7231
713.7198
713.7183
711.059
711.0576
711.0547
711.0502
711.0441
711.0363
711.0266
711.015
711.0015
710.986
710.9685
710.9491
710.9277
710.9044
710.8793
710.8523
710.8235
710.793
710.7609
710.7271
710.6917
710.6549
710.6166
710.577
710.536
710.4938
710.4504
710.4059
710.3604
710.3138
710.2662
710.2178
710.1685
710.1185
710.0677
710.0163
709.9642
709.9115
709.8584
709.8047
709.7506
709.6962
709.6414
709.5863
709.531
709.4755
709.4199
709.3641
709.3083
709.2525
709.1967
709.1409
709.0853
709.0298
708.9746
708.9196
708.8648
708.8104
708.7564
708.7028
708.6497
708.5971
708.545
708.4936
708.4427
708.3926
708.3433
708.2947
708.247
708.2002
708.1543
708.1094
708.0656
708.0228
707.9813
707.9409
707.9018
707.8641
707.8277
707.7927
707.7592
707.7273
707.697
707.6683
707.6412
707.616
707.5925
707.5708
707.5509
707.5329
707.5168
707.5025
707.4901
707.4795
707.4706
707.4635
707.458
707.4541
707.4516
707.4504
704.517
704.5161
704.514
704.5108
704.5062
704.5
704.4922
704.4826
704.4713
704.4581
704.443
704.4261
704.4073
704.3866
704.3642
704.34
704.314
704.2863
704.2571
704.2262
704.1938
704.16
704.1247
704.0881
704.0502
704.0111
703.9708
703.9294
703.8869
703.8435
703.7991
703.7538
703.7077
703.6608
703.6132
703.565
703.5161
703.4667
703.4167
703.3663
703.3154
703.2642
703.2126
703.1608
703.1087
703.0564
703.004
702.9515
702.8989
702.8463
702.7938
702.7413
702.6889
702.6366
702.5846
702.5328
702.4813
702.4301
702.3793
702.3289
702.279
702.2296
702.1807
702.1324
702.0848
702.0378
701.9916
701.9462
701.9016
701.8579
701.8151
701.7733
701.7326
701.6929
701.6544
701.6171
701.581
701.5462
701.5128
701.4807
701.4502
701.4211
701.3936
701.3677
701.3435
701.3209
701.3
701.2809
701.2636
701.248
701.2342
701.2222
701.2119
701.2033
701.1963
701.1909
701.1868
701.184
701.1823
701.1816
697.9762
697.9758
697.9749
697.973
697.97
697.9657
697.9598
697.9524
697.9432
697.9323
697.9197
697.9052
697.8889
697.8709
697.8511
697.8296
697.8064
697.7815
697.7551
697.7271
697.6976
697.6667
697.6344
697.6007
697.5658
697.5297
697.4925
697.4541
697.4147
697.3744
697.3331
697.2909
697.2479
697.2042
697.1597
697.1146
697.0689
697.0226
696.9758
696.9285
696.8808
696.8328
696.7844
696.7358
696.6869
696.6378
696.5886
696.5393
696.4899
696.4405
696.3911
696.3418
696.2926
696.2435
696.1947
696.1461
696.0977
696.0497
696.0021
695.9549
695.9081
695.8618
695.8161
695.7709
695.7264
695.6826
695.6395
695.5972
695.5557
695.515
695.4753
695.4366
695.3988
695.3622
695.3267
695.2923
695.2592
695.2273
695.1968
695.1677
695.14
695.1137
695.089
695.0659
695.0443
695.0244
695.0062
694.9897
694.9748
694.9617
694.9503
694.9406
694.9325
694.9259
694.9209
694.9172
694.9147
694.9132
694.9125
694.9122
691.4359
691.4364
691.4368
691.4366
691.4354
691.433
691.4293
691.424
691.4171
691.4086
691.3983
691.3863
691.3726
691.3572
691.34
691.3212
691.3007
691.2786
691.2549
691.2297
691.2031
691.175
691.1456
691.1149
691.0829
691.0498
691.0155
690.9801
690.9438
690.9064
690.8682
690.8291
690.7891
690.7485
690.7071
690.6651
690.6225
690.5793
690.5356
690.4915
690.4469
690.402
690.3568
690.3113
690.2655
690.2196
690.1735
690.1273
690.0811
690.0349
689.9886
689.9425
689.8964
689.8505
689.8048
689.7594
689.7142
689.6693
689.6248
689.5807
689.537
689.4938
689.4512
689.4091
689.3677
689.3269
689.2869
689.2476
689.2092
689.1715
689.1348
689.0991
689.0643
689.0307
688.9981
688.9666
688.9364
688.9075
688.8798
688.8535
688.8286
688.8051
688.7832
688.7627
688.7439
688.7266
688.711
688.697
688.6847
688.674
688.665
688.6576
688.6517
688.6474
688.6444
688.6426
688.6419
688.6419
688.6424
688.6429
684.8953
684.8974
684.8997
684.9014
684.9022
684.902
684.9004
684.8974
684.8929
684.8868
684.8789
684.8695
684.8583
684.8454
684.8308
684.8146
684.7968
684.7774
684.7565
684.7341
684.7102
684.685
684.6584
684.6305
684.6015
684.5712
684.5399
684.5074
684.474
684.4396
684.4044
684.3683
684.3314
684.2937
684.2554
684.2164
684.1769
684.1367
684.0961
684.0551
684.0136
683.9718
683.9297
683.8872
683.8446
683.8018
683.7588
683.7158
683.6726
683.6295
683.5864
683.5433
683.5004
683.4576
683.415
683.3726
683.3305
683.2887
683.2473
683.2063
683.1657
683.1256
683.086
683.047
683.0086
682.9709
682.9338
682.8976
682.8621
682.8274
682.7937
682.7609
682.7291
682.6983
682.6686
682.6401
682.6127
682.5866
682.5617
682.5382
682.5161
682.4953
682.4761
682.4583
682.4421
682.4275
682.4144
682.403
682.3932
682.385
682.3784
682.3733
682.3698
682.3677
682.3669
682.3673
682.3686
682.3705
682.3726
682.3743
)
;

boundaryField
{
    leftLet
    {
        type            zeroGradient;
    }
    rightLet
    {
        type            zeroGradient;
    }
    frontAndBack
    {
        type            empty;
    }
    wall_to_bottomAir
    {
        type            compressible::turbulentTemperatureCoupledBaffleMixed;
        refValue        nonuniform List<scalar> 
100
(
1199.252
1199.071
1198.775
1198.411
1198.056
1197.708
1197.36
1197.011
1196.662
1196.314
1195.966
1195.619
1195.271
1194.924
1194.578
1194.231
1193.885
1193.539
1193.193
1192.848
1192.503
1192.158
1191.814
1191.469
1191.125
1190.781
1190.438
1190.095
1189.752
1189.409
1189.066
1188.724
1188.382
1188.04
1187.699
1187.358
1187.017
1186.676
1186.335
1185.995
1185.655
1185.315
1184.976
1184.636
1184.297
1183.958
1183.62
1183.281
1182.943
1182.605
1182.268
1181.93
1181.593
1181.256
1180.92
1180.583
1180.247
1179.911
1179.575
1179.24
1178.905
1178.57
1178.235
1177.9
1177.566
1177.232
1176.898
1176.565
1176.232
1175.898
1175.566
1175.233
1174.901
1174.569
1174.237
1173.905
1173.574
1173.243
1172.912
1172.581
1172.251
1171.921
1171.591
1171.262
1170.932
1170.603
1170.275
1169.946
1169.618
1169.29
1168.962
1168.635
1168.308
1167.981
1167.655
1167.328
1167.003
1166.677
1166.352
1166.027
)
;
        refGradient     uniform 0;
        valueFraction   nonuniform List<scalar> 
100
(
0.008498584
0.008498584
0.008498584
0.008498584
0.008498584
0.008498584
0.008498584
0.008498584
0.008498584
0.008498584
0.008498584
0.008498584
0.008498584
0.008498584
0.008498584
0.008498584
0.008498584
0.008498584
0.008498584
0.008498584
0.008498584
0.008498584
0.008498584
0.008498584
0.008498584
0.008498584
0.008498584
0.008498584
0.008498584
0.008498584
0.008498584
0.008498584
0.008498584
0.008498584
0.008498584
0.008498584
0.008498584
0.008498584
0.008498584
0.008498584
0.008498584
0.008498584
0.008498584
0.008498584
0.008498584
0.008498584
0.008498584
0.008498584
0.008498584
0.008498584
0.008498584
0.008498584
0.008498584
0.008498584
0.008498584
0.008498584
0.008498584
0.008498584
0.008498584
0.008498584
0.008498584
0.008498584
0.008498584
0.008498584
0.008498584
0.008498584
0.008498584
0.008498584
0.008498584
0.008498584
0.008498584
0.008498584
0.008498584
0.008498584
0.008498584
0.008498584
0.008498584
0.008498584
0.008498584
0.008498584
0.008498584
0.008498584
0.008498584
0.008498584
0.008498584
0.008498584
0.008498584
0.008498584
0.008498584
0.008498584
0.008498584
0.008498584
0.008498584
0.008498584
0.008498584
0.008498584
0.008498584
0.008498584
0.008498584
0.008498584
)
;
        value           nonuniform List<scalar> 
100
(
812.9177
812.9051
812.8818
812.8494
812.81
812.7648
812.7143
812.659
812.5994
812.5359
812.4689
812.3986
812.3252
812.2491
812.1703
812.0891
812.0056
811.92
811.8324
811.7429
811.6517
811.5589
811.4645
811.3686
811.2714
811.1729
811.0732
810.9724
810.8705
810.7677
810.6639
810.5593
810.4538
810.3476
810.2408
810.1333
810.0252
809.9166
809.8076
809.6981
809.5882
809.478
809.3675
809.2568
809.1458
809.0347
808.9235
808.8123
808.701
808.5897
808.4785
808.3674
808.2564
808.1456
808.0351
807.9248
807.8148
807.7052
807.5959
807.4871
807.3788
807.271
807.1638
807.0572
806.9512
806.846
806.7415
806.6379
806.5351
806.4332
806.3323
806.2324
806.1337
806.036
805.9396
805.8445
805.7508
805.6585
805.5677
805.4785
805.391
805.3052
805.2214
805.1396
805.0599
804.9825
804.9074
804.835
804.7653
804.6985
804.635
804.5749
804.5185
804.4662
804.4184
804.3755
804.3383
804.3075
804.2841
804.2698
)
;
        Tnbr            T;
        thicknessLayers 0();
        kappaLayers     0();
        kappa           solidThermo;
        kappaName       none;
    }
    wall_to_topAir
    {
        type            compressible::turbulentTemperatureCoupledBaffleMixed;
        refValue        nonuniform List<scalar> 
100
(
299.9719
300.1813
300.3417
300.4729
300.6076
300.7454
300.8827
301.0197
301.1569
301.294
301.4312
301.5684
301.7056
301.8428
301.98
302.1172
302.2545
302.3918
302.5291
302.6664
302.8037
302.941
303.0784
303.2157
303.3531
303.4905
303.6279
303.7653
303.9027
304.0401
304.1775
304.315
304.4524
304.5899
304.7273
304.8648
305.0023
305.1398
305.2773
305.4148
305.5523
305.6898
305.8273
305.9649
306.1024
306.2399
306.3775
306.515
306.6526
306.7901
306.9277
307.0653
307.2029
307.3404
307.478
307.6156
307.7532
307.8908
308.0285
308.1661
308.3037
308.4413
308.579
308.7166
308.8543
308.9919
309.1296
309.2672
309.4049
309.5426
309.6803
309.818
309.9557
310.0934
310.2311
310.3689
310.5066
310.6444
310.7821
310.9199
311.0577
311.1955
311.3333
311.4711
311.6089
311.7467
311.8846
312.0224
312.1603
312.2982
312.4361
312.574
312.7119
312.8499
312.9878
313.1258
313.2637
313.4017
313.5396
313.6775
)
;
        refGradient     uniform 0;
        valueFraction   nonuniform List<scalar> 
100
(
0.008498584
0.008498584
0.008498584
0.008498584
0.008498584
0.008498584
0.008498584
0.008498584
0.008498584
0.008498584
0.008498584
0.008498584
0.008498584
0.008498584
0.008498584
0.008498584
0.008498584
0.008498584
0.008498584
0.008498584
0.008498584
0.008498584
0.008498584
0.008498584
0.008498584
0.008498584
0.008498584
0.008498584
0.008498584
0.008498584
0.008498584
0.008498584
0.008498584
0.008498584
0.008498584
0.008498584
0.008498584
0.008498584
0.008498584
0.008498584
0.008498584
0.008498584
0.008498584
0.008498584
0.008498584
0.008498584
0.008498584
0.008498584
0.008498584
0.008498584
0.008498584
0.008498584
0.008498584
0.008498584
0.008498584
0.008498584
0.008498584
0.008498584
0.008498584
0.008498584
0.008498584
0.008498584
0.008498584
0.008498584
0.008498584
0.008498584
0.008498584
0.008498584
0.008498584
0.008498584
0.008498584
0.008498584
0.008498584
0.008498584
0.008498584
0.008498584
0.008498584
0.008498584
0.008498584
0.008498584
0.008498584
0.008498584
0.008498584
0.008498584
0.008498584
0.008498584
0.008498584
0.008498584
0.008498584
0.008498584
0.008498584
0.008498584
0.008498584
0.008498584
0.008498584
0.008498584
0.008498584
0.008498584
0.008498584
0.008498584
)
;
        value           nonuniform List<scalar> 
100
(
681.6239
681.6277
681.6314
681.6342
681.6361
681.6371
681.6367
681.6349
681.6316
681.6266
681.6201
681.6118
681.6019
681.5903
681.577
681.5621
681.5456
681.5275
681.508
681.4869
681.4644
681.4405
681.4154
681.3889
681.3613
681.3324
681.3025
681.2715
681.2396
681.2067
681.1729
681.1382
681.1028
681.0666
681.0298
680.9923
680.9543
680.9157
680.8766
680.837
680.7971
680.7568
680.7162
680.6753
680.6342
680.5929
680.5515
680.5099
680.4684
680.4268
680.3852
680.3437
680.3023
680.261
680.2199
680.1791
680.1385
680.0982
680.0583
680.0188
679.9797
679.9411
679.9031
679.8656
679.8287
679.7924
679.7569
679.7221
679.6881
679.6549
679.6226
679.5913
679.5609
679.5315
679.5033
679.4761
679.4502
679.4254
679.402
679.3798
679.359
679.3397
679.3217
679.3053
679.2904
679.2771
679.2653
679.2551
679.2466
679.2396
679.2342
679.2304
679.2281
679.2272
679.2276
679.2291
679.2315
679.2346
679.2379
679.2408
)
;
        Tnbr            T;
        thicknessLayers 0();
        kappaLayers     0();
        kappa           solidThermo;
        kappaName       none;
    }
}


// ************************************************************************* //
