/*--------------------------------*- C++ -*----------------------------------*\
| =========                 |                                                 |
| \\      /  F ield         | OpenFOAM: The Open Source CFD Toolbox           |
|  \\    /   O peration     | Version:  2.3.0                                 |
|   \\  /    A nd           | Web:      www.OpenFOAM.org                      |
|    \\/     M anipulation  |                                                 |
\*---------------------------------------------------------------------------*/
FoamFile
{
    version     2.0;
    format      ascii;
    class       surfaceScalarField;
    location    "9800/bottomAir";
    object      phi;
}
// * * * * * * * * * * * * * * * * * * * * * * * * * * * * * * * * * * * * * //

dimensions      [1 0 -1 0 0 0 0];

internalField   nonuniform List<scalar> 
7860
(
0.006644049
-1.218176e-06
0.006644404
-3.545232e-07
0.006644494
-8.96067e-08
0.006644607
-1.122043e-07
0.00664469
-8.232756e-08
0.006644745
-5.390663e-08
0.00664479
-4.547433e-08
0.006644833
-4.269683e-08
0.006644874
-4.124829e-08
0.006644916
-4.127616e-08
0.006644958
-4.231572e-08
0.006645002
-4.384142e-08
0.006645047
-4.562449e-08
0.006645095
-4.755064e-08
0.006645144
-4.954071e-08
0.006645195
-5.154078e-08
0.006645249
-5.351766e-08
0.006645304
-5.544941e-08
0.006645361
-5.732149e-08
0.006645421
-5.912443e-08
0.006645481
-6.085201e-08
0.006645544
-6.250082e-08
0.006645608
-6.406879e-08
0.006645673
-6.55556e-08
0.00664574
-6.696143e-08
0.006645808
-6.82876e-08
0.006645878
-6.953556e-08
0.006645948
-7.070749e-08
0.00664602
-7.18055e-08
0.006646093
-7.283219e-08
0.006646167
-7.378998e-08
0.006646241
-7.46816e-08
0.006646317
-7.550956e-08
0.006646393
-7.627649e-08
0.00664647
-7.698486e-08
0.006646548
-7.763713e-08
0.006646626
-7.823557e-08
0.006646704
-7.87824e-08
0.006646784
-7.927965e-08
0.006646863
-7.972922e-08
0.006646943
-8.013288e-08
0.006647024
-8.049218e-08
0.006647105
-8.08086e-08
0.006647186
-8.108333e-08
0.006647267
-8.131752e-08
0.006647349
-8.151201e-08
0.00664743
-8.166761e-08
0.006647512
-8.17848e-08
0.006647594
-8.186405e-08
0.006647676
-8.190547e-08
0.006647758
-8.190919e-08
0.006647839
-8.187495e-08
0.006647921
-8.180254e-08
0.006648003
-8.169134e-08
0.006648084
-8.154077e-08
0.006648166
-8.134983e-08
0.006648247
-8.111761e-08
0.006648328
-8.084275e-08
0.006648408
-8.052397e-08
0.006648488
-8.015953e-08
0.006648568
-7.97478e-08
0.006648647
-7.928671e-08
0.006648726
-7.877425e-08
0.006648804
-7.8208e-08
0.006648882
-7.758564e-08
0.006648959
-7.690442e-08
0.006649035
-7.616169e-08
0.00664911
-7.535443e-08
0.006649185
-7.447971e-08
0.006649258
-7.353428e-08
0.006649331
-7.251501e-08
0.006649402
-7.141848e-08
0.006649472
-7.024146e-08
0.006649541
-6.898046e-08
0.006649609
-6.763227e-08
0.006649675
-6.619347e-08
0.00664974
-6.4661e-08
0.006649803
-6.303171e-08
0.006649864
-6.130289e-08
0.006649923
-5.947184e-08
0.006649981
-5.753641e-08
0.006650036
-5.549462e-08
0.00665009
-5.334514e-08
0.006650141
-5.108692e-08
0.00665019
-4.871974e-08
0.006650236
-4.624376e-08
0.006650279
-4.366011e-08
0.00665032
-4.097041e-08
0.006650359
-3.817737e-08
0.006650394
-3.52843e-08
0.006650426
-3.229568e-08
0.006650455
-2.921672e-08
0.006650481
-2.605387e-08
0.006650504
-2.281459e-08
0.006650524
-1.950801e-08
0.00665054
-1.614545e-08
0.006650553
-1.274199e-08
0.006650562
-9.323348e-09
0.006650568
-5.923195e-09
-2.676581e-09
0.00664306
-6.612413e-07
0.006643064
-3.570052e-07
0.006643127
-1.517493e-07
0.006643144
-1.286575e-07
0.006643172
-1.092594e-07
0.006643206
-8.824077e-08
0.006643241
-8.013661e-08
0.006643277
-7.851618e-08
0.006643315
-7.904114e-08
0.006643355
-8.106928e-08
0.006643396
-8.415846e-08
0.00664344
-8.782599e-08
0.006643486
-9.179145e-08
0.006643535
-9.590092e-08
0.006643585
-1.000494e-07
0.006643638
-1.041649e-07
0.006643692
-1.081992e-07
0.006643749
-1.121202e-07
0.006643807
-1.159061e-07
0.006643868
-1.195423e-07
0.00664393
-1.230201e-07
0.006643993
-1.263343e-07
0.006644059
-1.294827e-07
0.006644126
-1.324651e-07
0.006644194
-1.352834e-07
0.006644263
-1.379402e-07
0.006644334
-1.404393e-07
0.006644406
-1.427849e-07
0.006644479
-1.44982e-07
0.006644554
-1.470356e-07
0.006644629
-1.489509e-07
0.006644705
-1.507334e-07
0.006644781
-1.523884e-07
0.006644859
-1.53921e-07
0.006644937
-1.553363e-07
0.006645016
-1.566393e-07
0.006645096
-1.578346e-07
0.006645176
-1.589267e-07
0.006645257
-1.599196e-07
0.006645338
-1.608172e-07
0.006645419
-1.61623e-07
0.006645501
-1.623402e-07
0.006645583
-1.629716e-07
0.006645665
-1.635199e-07
0.006645748
-1.639871e-07
0.006645831
-1.643751e-07
0.006645914
-1.646853e-07
0.006645997
-1.649189e-07
0.00664608
-1.650767e-07
0.006646163
-1.651591e-07
0.006646247
-1.651661e-07
0.00664633
-1.650975e-07
0.006646413
-1.649525e-07
0.006646496
-1.647303e-07
0.006646579
-1.644293e-07
0.006646662
-1.640479e-07
0.006646744
-1.635839e-07
0.006646826
-1.63035e-07
0.006646908
-1.623981e-07
0.006646989
-1.616704e-07
0.006647071
-1.60848e-07
0.006647151
-1.599272e-07
0.006647231
-1.589037e-07
0.006647311
-1.577729e-07
0.00664739
-1.565298e-07
0.006647468
-1.551693e-07
0.006647546
-1.536858e-07
0.006647622
-1.520734e-07
0.006647698
-1.503261e-07
0.006647773
-1.484376e-07
0.006647847
-1.464012e-07
0.00664792
-1.442105e-07
0.006647991
-1.418587e-07
0.006648062
-1.39339e-07
0.006648131
-1.366447e-07
0.006648198
-1.337692e-07
0.006648264
-1.30706e-07
0.006648329
-1.274491e-07
0.006648391
-1.239927e-07
0.006648452
-1.203316e-07
0.006648511
-1.164612e-07
0.006648568
-1.123778e-07
0.006648623
-1.080783e-07
0.006648675
-1.035608e-07
0.006648725
-9.88246e-08
0.006648773
-9.387023e-08
0.006648818
-8.869954e-08
0.00664886
-8.331609e-08
0.0066489
-7.772487e-08
0.006648936
-7.193282e-08
0.00664897
-6.594848e-08
0.006649001
-5.978243e-08
0.006649028
-5.344702e-08
0.006649052
-4.695672e-08
0.006649073
-4.032798e-08
0.00664909
-3.357952e-08
0.006649104
-2.673233e-08
0.006649115
-1.981064e-08
0.006649122
-1.283993e-08
-5.853699e-09
0.006643333
-3.679315e-07
0.006643231
-2.535433e-07
0.006643233
-1.530352e-07
0.006643243
-1.375728e-07
0.006643263
-1.290918e-07
0.006643294
-1.183892e-07
0.006643328
-1.140901e-07
0.006643364
-1.145646e-07
0.006643402
-1.172049e-07
0.006643442
-1.212755e-07
0.006643484
-1.263804e-07
0.006643528
-1.321092e-07
0.006643575
-1.381746e-07
0.006643623
-1.44393e-07
0.006643674
-1.506366e-07
0.006643726
-1.56814e-07
0.006643781
-1.628612e-07
0.006643837
-1.687339e-07
0.006643896
-1.744017e-07
0.006643956
-1.798442e-07
0.006644018
-1.850485e-07
0.006644082
-1.900073e-07
0.006644147
-1.947175e-07
0.006644213
-1.991792e-07
0.006644281
-2.033947e-07
0.006644351
-2.073684e-07
0.006644421
-2.111058e-07
0.006644493
-2.146135e-07
0.006644566
-2.178987e-07
0.00664464
-2.209692e-07
0.006644715
-2.238327e-07
0.00664479
-2.264974e-07
0.006644867
-2.289713e-07
0.006644944
-2.312622e-07
0.006645022
-2.333777e-07
0.006645101
-2.353251e-07
0.00664518
-2.371116e-07
0.00664526
-2.387437e-07
0.00664534
-2.402276e-07
0.006645421
-2.41569e-07
0.006645502
-2.427733e-07
0.006645583
-2.438451e-07
0.006645665
-2.447889e-07
0.006645747
-2.456083e-07
0.006645829
-2.463067e-07
0.006645912
-2.468867e-07
0.006645995
-2.473506e-07
0.006646077
-2.477001e-07
0.00664616
-2.479363e-07
0.006646243
-2.480598e-07
0.006646326
-2.480708e-07
0.006646409
-2.479688e-07
0.006646492
-2.477528e-07
0.006646574
-2.474212e-07
0.006646657
-2.469721e-07
0.006646739
-2.464027e-07
0.006646821
-2.4571e-07
0.006646903
-2.448903e-07
0.006646985
-2.439392e-07
0.006647066
-2.428521e-07
0.006647146
-2.416236e-07
0.006647227
-2.402479e-07
0.006647307
-2.387185e-07
0.006647386
-2.370286e-07
0.006647464
-2.351708e-07
0.006647542
-2.331371e-07
0.00664762
-2.309192e-07
0.006647696
-2.285083e-07
0.006647772
-2.258954e-07
0.006647846
-2.230707e-07
0.00664792
-2.200246e-07
0.006647992
-2.16747e-07
0.006648064
-2.132278e-07
0.006648134
-2.094567e-07
0.006648203
-2.054235e-07
0.00664827
-2.011182e-07
0.006648336
-1.96531e-07
0.0066484
-1.916527e-07
0.006648462
-1.864745e-07
0.006648523
-1.809885e-07
0.006648582
-1.751876e-07
0.006648638
-1.69066e-07
0.006648693
-1.626189e-07
0.006648745
-1.558435e-07
0.006648795
-1.487384e-07
0.006648843
-1.413042e-07
0.006648887
-1.335437e-07
0.00664893
-1.254619e-07
0.006648969
-1.170664e-07
0.006649005
-1.083673e-07
0.006649039
-9.937747e-08
0.006649069
-9.011258e-08
0.006649096
-8.059114e-08
0.00664912
-7.083455e-08
0.006649141
-6.086708e-08
0.006649158
-5.071584e-08
0.006649171
-4.041044e-08
0.006649182
-2.99829e-08
0.006649188
-1.946357e-08
-8.883112e-09
0.006643423
-2.106397e-07
0.006643364
-1.934594e-07
0.006643367
-1.552987e-07
0.006643378
-1.480511e-07
0.006643395
-1.455981e-07
0.00664342
-1.424655e-07
0.006643449
-1.428108e-07
0.006643481
-1.465236e-07
0.006643516
-1.521626e-07
0.006643553
-1.590466e-07
0.006643594
-1.667951e-07
0.006643637
-1.750645e-07
0.006643682
-1.835904e-07
0.00664373
-1.921906e-07
0.00664378
-2.007349e-07
0.006643832
-2.091294e-07
0.006643886
-2.173068e-07
0.006643943
-2.252203e-07
0.006644001
-2.328376e-07
0.006644061
-2.401374e-07
0.006644123
-2.471066e-07
0.006644187
-2.537387e-07
0.006644252
-2.600317e-07
0.006644319
-2.659875e-07
0.006644387
-2.716107e-07
0.006644456
-2.769079e-07
0.006644527
-2.818874e-07
0.006644599
-2.865586e-07
0.006644672
-2.909317e-07
0.006644746
-2.950174e-07
0.006644821
-2.988265e-07
0.006644897
-3.023701e-07
0.006644973
-3.05659e-07
0.006645051
-3.08704e-07
0.006645129
-3.115152e-07
0.006645208
-3.141027e-07
0.006645287
-3.164759e-07
0.006645367
-3.186437e-07
0.006645447
-3.206145e-07
0.006645528
-3.223959e-07
0.006645609
-3.23995e-07
0.006645691
-3.254183e-07
0.006645772
-3.266714e-07
0.006645855
-3.277596e-07
0.006645937
-3.28687e-07
0.006646019
-3.294574e-07
0.006646102
-3.300737e-07
0.006646185
-3.305383e-07
0.006646268
-3.308526e-07
0.006646351
-3.310174e-07
0.006646434
-3.31033e-07
0.006646517
-3.308987e-07
0.006646599
-3.306133e-07
0.006646682
-3.301746e-07
0.006646765
-3.295799e-07
0.006646847
-3.288258e-07
0.006646929
-3.279081e-07
0.006647011
-3.268218e-07
0.006647093
-3.255613e-07
0.006647174
-3.241203e-07
0.006647255
-3.224915e-07
0.006647335
-3.206672e-07
0.006647415
-3.186388e-07
0.006647495
-3.163972e-07
0.006647573
-3.139324e-07
0.006647651
-3.112339e-07
0.006647729
-3.082904e-07
0.006647805
-3.050902e-07
0.006647881
-3.016211e-07
0.006647956
-2.978702e-07
0.00664803
-2.938243e-07
0.006648102
-2.8947e-07
0.006648174
-2.847936e-07
0.006648244
-2.797813e-07
0.006648313
-2.744192e-07
0.006648381
-2.68694e-07
0.006648447
-2.625922e-07
0.006648511
-2.561013e-07
0.006648574
-2.492094e-07
0.006648635
-2.419056e-07
0.006648694
-2.341802e-07
0.006648751
-2.26025e-07
0.006648806
-2.174337e-07
0.006648858
-2.084018e-07
0.006648908
-1.989273e-07
0.006648956
-1.890108e-07
0.006649001
-1.786556e-07
0.006649044
-1.678682e-07
0.006649083
-1.566586e-07
0.00664912
-1.450399e-07
0.006649153
-1.330292e-07
0.006649184
-1.206474e-07
0.006649211
-1.079187e-07
0.006649235
-9.487171e-08
0.006649256
-8.153817e-08
0.006649273
-6.795354e-08
0.006649287
-5.41561e-08
0.006649297
-4.018734e-08
0.006649304
-2.608731e-08
-1.191225e-08
0.006643491
-1.419424e-07
0.006643453
-1.548232e-07
0.006643445
-1.4598e-07
0.006643447
-1.497351e-07
0.006643458
-1.557548e-07
0.006643477
-1.611485e-07
0.006643502
-1.678786e-07
0.006643532
-1.763352e-07
0.006643566
-1.859341e-07
0.006643603
-1.962677e-07
0.006643643
-2.070884e-07
0.006643686
-2.181719e-07
0.006643732
-2.29328e-07
0.00664378
-2.404123e-07
0.006643831
-2.513162e-07
0.006643883
-2.619583e-07
0.006643938
-2.722784e-07
0.006643995
-2.822331e-07
0.006644054
-2.917926e-07
0.006644115
-3.009375e-07
0.006644177
-3.096564e-07
0.006644241
-3.179446e-07
0.006644307
-3.258022e-07
0.006644374
-3.332332e-07
0.006644443
-3.402449e-07
0.006644513
-3.468466e-07
0.006644584
-3.530495e-07
0.006644656
-3.588659e-07
0.006644729
-3.643092e-07
0.006644804
-3.693931e-07
0.006644879
-3.741315e-07
0.006644955
-3.785383e-07
0.006645032
-3.826276e-07
0.006645109
-3.864126e-07
0.006645188
-3.899065e-07
0.006645267
-3.931219e-07
0.006645346
-3.960705e-07
0.006645426
-3.987636e-07
0.006645507
-4.012116e-07
0.006645588
-4.034243e-07
0.006645669
-4.054104e-07
0.006645751
-4.071781e-07
0.006645833
-4.087346e-07
0.006645915
-4.10086e-07
0.006645998
-4.11238e-07
0.006646081
-4.121951e-07
0.006646163
-4.12961e-07
0.006646246
-4.135386e-07
0.006646329
-4.139297e-07
0.006646413
-4.141354e-07
0.006646496
-4.141558e-07
0.006646579
-4.139903e-07
0.006646662
-4.136372e-07
0.006646745
-4.130939e-07
0.006646827
-4.123571e-07
0.00664691
-4.114223e-07
0.006646992
-4.102844e-07
0.006647074
-4.089371e-07
0.006647156
-4.073735e-07
0.006647238
-4.055854e-07
0.006647319
-4.035641e-07
0.006647399
-4.012997e-07
0.006647479
-3.987816e-07
0.006647559
-3.959981e-07
0.006647638
-3.929369e-07
0.006647716
-3.895846e-07
0.006647794
-3.859272e-07
0.006647871
-3.8195e-07
0.006647947
-3.776374e-07
0.006648022
-3.729733e-07
0.006648096
-3.679411e-07
0.006648169
-3.625237e-07
0.006648241
-3.567038e-07
0.006648312
-3.504639e-07
0.006648381
-3.437865e-07
0.006648449
-3.366543e-07
0.006648515
-3.290505e-07
0.00664858
-3.209587e-07
0.006648643
-3.123638e-07
0.006648705
-3.032517e-07
0.006648764
-2.936098e-07
0.006648821
-2.834274e-07
0.006648877
-2.72696e-07
0.00664893
-2.614095e-07
0.00664898
-2.49565e-07
0.006649029
-2.371627e-07
0.006649074
-2.242062e-07
0.006649117
-2.107034e-07
0.006649157
-1.966662e-07
0.006649194
-1.82111e-07
0.006649228
-1.670588e-07
0.006649259
-1.515356e-07
0.006649286
-1.355717e-07
0.006649311
-1.192027e-07
0.006649332
-1.024685e-07
0.006649349
-8.541324e-08
0.006649363
-6.808474e-08
0.006649373
-5.053479e-08
0.00664938
-3.281338e-08
-1.499231e-08
0.006643493
-9.968045e-08
0.006643469
-1.305628e-07
0.006643466
-1.414003e-07
0.006643472
-1.55e-07
0.006643485
-1.685094e-07
0.006643505
-1.808157e-07
0.006643531
-1.931336e-07
0.006643561
-2.060585e-07
0.006643594
-2.194939e-07
0.006643631
-2.332524e-07
0.006643671
-2.471879e-07
0.006643714
-2.611559e-07
0.00664376
-2.750185e-07
0.006643808
-2.886606e-07
0.006643858
-3.019906e-07
0.006643911
-3.149374e-07
0.006643966
-3.274471e-07
0.006644024
-3.39481e-07
0.006644083
-3.510123e-07
0.006644144
-3.620243e-07
0.006644206
-3.725087e-07
0.006644271
-3.824631e-07
0.006644337
-3.918908e-07
0.006644404
-4.007989e-07
0.006644473
-4.091978e-07
0.006644543
-4.171002e-07
0.006644615
-4.245207e-07
0.006644687
-4.314751e-07
0.006644761
-4.379801e-07
0.006644836
-4.440528e-07
0.006644911
-4.497106e-07
0.006644988
-4.549706e-07
0.006645065
-4.598499e-07
0.006645143
-4.643649e-07
0.006645221
-4.685315e-07
0.0066453
-4.72365e-07
0.00664538
-4.758797e-07
0.00664546
-4.790894e-07
0.006645541
-4.820065e-07
0.006645622
-4.846428e-07
0.006645704
-4.870091e-07
0.006645786
-4.89115e-07
0.006645868
-4.909692e-07
0.00664595
-4.925793e-07
0.006646033
-4.939519e-07
0.006646116
-4.950925e-07
0.006646199
-4.960055e-07
0.006646282
-4.966945e-07
0.006646365
-4.971616e-07
0.006646449
-4.974083e-07
0.006646532
-4.974345e-07
0.006646615
-4.972396e-07
0.006646698
-4.968215e-07
0.006646781
-4.961772e-07
0.006646864
-4.953026e-07
0.006646947
-4.941925e-07
0.00664703
-4.928405e-07
0.006647112
-4.912394e-07
0.006647194
-4.893806e-07
0.006647275
-4.872546e-07
0.006647357
-4.848506e-07
0.006647438
-4.821569e-07
0.006647518
-4.791605e-07
0.006647598
-4.758477e-07
0.006647677
-4.722033e-07
0.006647756
-4.682115e-07
0.006647834
-4.638551e-07
0.006647911
-4.591164e-07
0.006647987
-4.539765e-07
0.006648062
-4.48416e-07
0.006648137
-4.424146e-07
0.00664821
-4.359516e-07
0.006648283
-4.290058e-07
0.006648354
-4.21556e-07
0.006648423
-4.135806e-07
0.006648492
-4.050585e-07
0.006648559
-3.959688e-07
0.006648624
-3.862917e-07
0.006648688
-3.760081e-07
0.00664875
-3.651004e-07
0.006648809
-3.535529e-07
0.006648867
-3.41352e-07
0.006648923
-3.284866e-07
0.006648977
-3.149489e-07
0.006649028
-3.007345e-07
0.006649077
-2.858428e-07
0.006649123
-2.702777e-07
0.006649166
-2.540478e-07
0.006649206
-2.371671e-07
0.006649244
-2.196548e-07
0.006649278
-2.015359e-07
0.00664931
-1.828412e-07
0.006649338
-1.636074e-07
0.006649362
-1.438772e-07
0.006649384
-1.236988e-07
0.006649401
-1.031256e-07
0.006649415
-8.221574e-08
0.006649426
-6.103248e-08
0.006649433
-3.963729e-08
-1.812105e-08
0.006643498
-8.161235e-08
0.006643488
-1.19836e-07
0.006643488
-1.404286e-07
0.006643495
-1.609441e-07
0.006643507
-1.806913e-07
0.006643526
-1.990672e-07
0.00664355
-2.167946e-07
0.006643578
-2.34416e-07
0.006643611
-2.520206e-07
0.006643647
-2.695395e-07
0.006643687
-2.868957e-07
0.006643729
-3.040058e-07
0.006643775
-3.207808e-07
0.006643824
-3.371397e-07
0.006643875
-3.530152e-07
0.006643928
-3.683538e-07
0.006643983
-3.831147e-07
0.006644041
-3.97269e-07
0.006644101
-4.107977e-07
0.006644162
-4.236905e-07
0.006644226
-4.359443e-07
0.006644291
-4.475622e-07
0.006644357
-4.585518e-07
0.006644425
-4.689248e-07
0.006644495
-4.786959e-07
0.006644566
-4.878819e-07
0.006644637
-4.965015e-07
0.00664471
-5.045746e-07
0.006644785
-5.121217e-07
0.00664486
-5.191636e-07
0.006644936
-5.257213e-07
0.006645012
-5.318155e-07
0.00664509
-5.374664e-07
0.006645168
-5.426937e-07
0.006645247
-5.475162e-07
0.006645327
-5.51952e-07
0.006645407
-5.560181e-07
0.006645487
-5.597305e-07
0.006645568
-5.631041e-07
0.00664565
-5.661525e-07
0.006645732
-5.688885e-07
0.006645814
-5.713233e-07
0.006645896
-5.734671e-07
0.006645979
-5.753288e-07
0.006646062
-5.769161e-07
0.006646145
-5.782354e-07
0.006646228
-5.79292e-07
0.006646312
-5.800898e-07
0.006646395
-5.806316e-07
0.006646479
-5.809188e-07
0.006646562
-5.809517e-07
0.006646646
-5.807292e-07
0.006646729
-5.802491e-07
0.006646812
-5.795078e-07
0.006646896
-5.785006e-07
0.006646979
-5.772214e-07
0.006647061
-5.756628e-07
0.006647144
-5.738163e-07
0.006647226
-5.716719e-07
0.006647308
-5.692185e-07
0.00664739
-5.664436e-07
0.006647471
-5.633333e-07
0.006647552
-5.598727e-07
0.006647632
-5.560453e-07
0.006647711
-5.518338e-07
0.00664779
-5.472192e-07
0.006647869
-5.421816e-07
0.006647946
-5.366999e-07
0.006648023
-5.307521e-07
0.006648099
-5.243151e-07
0.006648174
-5.173651e-07
0.006648248
-5.098773e-07
0.006648321
-5.018269e-07
0.006648392
-4.931882e-07
0.006648462
-4.839357e-07
0.006648531
-4.740441e-07
0.006648599
-4.634884e-07
0.006648665
-4.522445e-07
0.006648729
-4.402893e-07
0.006648792
-4.276015e-07
0.006648852
-4.141615e-07
0.006648911
-3.999526e-07
0.006648967
-3.849609e-07
0.006649022
-3.69176e-07
0.006649073
-3.525917e-07
0.006649123
-3.352063e-07
0.006649169
-3.170235e-07
0.006649213
-2.980526e-07
0.006649255
-2.783088e-07
0.006649293
-2.578142e-07
0.006649328
-2.365975e-07
0.00664936
-2.146945e-07
0.006649388
-1.921483e-07
0.006649413
-1.690088e-07
0.006649435
-1.453329e-07
0.006649453
-1.211839e-07
0.006649467
-9.663064e-08
0.006649478
-7.174831e-08
0.006649485
-4.66102e-08
-2.132401e-08
0.006643485
-7.100563e-08
0.006643481
-1.150738e-07
0.006643485
-1.428294e-07
0.006643494
-1.691578e-07
0.006643508
-1.946436e-07
0.006643528
-2.186021e-07
0.006643553
-2.414131e-07
0.006643582
-2.635729e-07
0.006643615
-2.852631e-07
0.006643652
-3.064951e-07
0.006643693
-3.272506e-07
0.006643736
-3.474964e-07
0.006643782
-3.67184e-07
0.006643831
-3.862624e-07
0.006643883
-4.04686e-07
0.006643937
-4.224175e-07
0.006643993
-4.394283e-07
0.006644051
-4.556989e-07
0.006644112
-4.71218e-07
0.006644174
-4.859818e-07
0.006644238
-4.99993e-07
0.006644304
-5.132598e-07
0.006644371
-5.257951e-07
0.006644439
-5.376151e-07
0.006644509
-5.487392e-07
0.006644581
-5.591889e-07
0.006644653
-5.689872e-07
0.006644727
-5.781581e-07
0.006644801
-5.867263e-07
0.006644877
-5.947166e-07
0.006644953
-6.021538e-07
0.00664503
-6.090621e-07
0.006645108
-6.154654e-07
0.006645187
-6.213865e-07
0.006645266
-6.268473e-07
0.006645346
-6.318687e-07
0.006645426
-6.364704e-07
0.006645507
-6.406709e-07
0.006645588
-6.444873e-07
0.00664567
-6.479355e-07
0.006645752
-6.510299e-07
0.006645835
-6.537834e-07
0.006645917
-6.562079e-07
0.006646
-6.583135e-07
0.006646084
-6.60109e-07
0.006646167
-6.616018e-07
0.00664625
-6.627979e-07
0.006646334
-6.637018e-07
0.006646418
-6.643166e-07
0.006646501
-6.64644e-07
0.006646585
-6.646844e-07
0.006646669
-6.644365e-07
0.006646752
-6.638978e-07
0.006646836
-6.630643e-07
0.006646919
-6.619304e-07
0.006647003
-6.604894e-07
0.006647086
-6.587328e-07
0.006647168
-6.566508e-07
0.006647251
-6.54232e-07
0.006647333
-6.514637e-07
0.006647415
-6.483316e-07
0.006647497
-6.448199e-07
0.006647578
-6.409113e-07
0.006647658
-6.365872e-07
0.006647738
-6.318273e-07
0.006647817
-6.2661e-07
0.006647896
-6.209123e-07
0.006647974
-6.1471e-07
0.006648051
-6.079775e-07
0.006648128
-6.006881e-07
0.006648203
-5.928141e-07
0.006648278
-5.84327e-07
0.006648351
-5.751974e-07
0.006648423
-5.653956e-07
0.006648494
-5.548917e-07
0.006648564
-5.436558e-07
0.006648632
-5.316584e-07
0.006648698
-5.188708e-07
0.006648763
-5.052657e-07
0.006648827
-4.908173e-07
0.006648888
-4.755021e-07
0.006648947
-4.592994e-07
0.006649005
-4.421918e-07
0.006649059
-4.241662e-07
0.006649112
-4.052139e-07
0.006649162
-3.853318e-07
0.00664921
-3.645225e-07
0.006649254
-3.427954e-07
0.006649296
-3.201672e-07
0.006649335
-2.966621e-07
0.006649371
-2.723124e-07
0.006649403
-2.47159e-07
0.006649432
-2.212511e-07
0.006649458
-1.946465e-07
0.00664948
-1.67411e-07
0.006649499
-1.396184e-07
0.006649513
-1.113493e-07
0.006649524
-8.269212e-08
0.006649531
-5.373339e-08
-2.460181e-08
0.006643473
-6.781286e-08
0.006643475
-1.161269e-07
0.006643482
-1.4875e-07
0.006643493
-1.797541e-07
0.006643509
-2.101469e-07
0.00664353
-2.389961e-07
0.006643555
-2.664419e-07
0.006643585
-2.929196e-07
0.006643618
-3.186213e-07
0.006643655
-3.435789e-07
0.006643696
-3.677957e-07
0.006643739
-3.912618e-07
0.006643786
-4.139517e-07
0.006643835
-4.35834e-07
0.006643888
-4.568795e-07
0.006643942
-4.770647e-07
0.006643999
-4.963731e-07
0.006644058
-5.147949e-07
0.006644119
-5.32328e-07
0.006644182
-5.489764e-07
0.006644247
-5.647502e-07
0.006644313
-5.796642e-07
0.006644381
-5.937375e-07
0.00664445
-6.069925e-07
0.006644521
-6.19454e-07
0.006644593
-6.31149e-07
0.006644666
-6.421056e-07
0.00664474
-6.523528e-07
0.006644815
-6.619198e-07
0.006644891
-6.708358e-07
0.006644968
-6.791299e-07
0.006645046
-6.868302e-07
0.006645124
-6.939641e-07
0.006645203
-7.00558e-07
0.006645283
-7.066371e-07
0.006645363
-7.122252e-07
0.006645444
-7.173448e-07
0.006645525
-7.220169e-07
0.006645607
-7.262609e-07
0.006645689
-7.300949e-07
0.006645772
-7.335351e-07
0.006645854
-7.365963e-07
0.006645938
-7.392917e-07
0.006646021
-7.416328e-07
0.006646104
-7.436295e-07
0.006646188
-7.452901e-07
0.006646272
-7.466215e-07
0.006646356
-7.476286e-07
0.00664644
-7.483151e-07
0.006646524
-7.486828e-07
0.006646608
-7.48732e-07
0.006646692
-7.484615e-07
0.006646776
-7.478685e-07
0.006646859
-7.469483e-07
0.006646943
-7.456948e-07
0.006647027
-7.441004e-07
0.00664711
-7.421557e-07
0.006647193
-7.398494e-07
0.006647276
-7.371691e-07
0.006647359
-7.341001e-07
0.006647441
-7.306266e-07
0.006647523
-7.267306e-07
0.006647605
-7.223926e-07
0.006647686
-7.175917e-07
0.006647766
-7.123048e-07
0.006647846
-7.065075e-07
0.006647925
-7.001738e-07
0.006648004
-6.932761e-07
0.006648081
-6.857852e-07
0.006648158
-6.776707e-07
0.006648234
-6.689009e-07
0.00664831
-6.594431e-07
0.006648384
-6.492637e-07
0.006648457
-6.383282e-07
0.006648528
-6.266021e-07
0.006648599
-6.140508e-07
0.006648668
-6.006397e-07
0.006648735
-5.863353e-07
0.006648801
-5.711053e-07
0.006648865
-5.549191e-07
0.006648927
-5.377486e-07
0.006648987
-5.195685e-07
0.006649046
-5.003577e-07
0.006649102
-4.800992e-07
0.006649155
-4.587815e-07
0.006649206
-4.36399e-07
0.006649255
-4.129531e-07
0.0066493
-3.884527e-07
0.006649343
-3.629152e-07
0.006649383
-3.363667e-07
0.006649419
-3.08843e-07
0.006649452
-2.803896e-07
0.006649482
-2.510621e-07
0.006649509
-2.209263e-07
0.006649531
-1.900574e-07
0.00664955
-1.585405e-07
0.006649565
-1.264683e-07
0.006649576
-9.39432e-08
0.006649584
-6.106559e-08
-2.798373e-08
0.006643455
-6.734268e-08
0.00664346
-1.20024e-07
0.006643469
-1.569357e-07
0.006643482
-1.921546e-07
0.0066435
-2.27127e-07
0.006643522
-2.606165e-07
0.006643548
-2.925363e-07
0.006643578
-3.232532e-07
0.006643613
-3.529382e-07
0.006643651
-3.81619e-07
0.006643692
-4.093068e-07
0.006643737
-4.360069e-07
0.006643785
-4.61711e-07
0.006643835
-4.864043e-07
0.006643888
-5.10073e-07
0.006643944
-5.327073e-07
0.006644002
-5.543024e-07
0.006644062
-5.748597e-07
0.006644124
-5.943863e-07
0.006644187
-6.12895e-07
0.006644253
-6.304039e-07
0.00664432
-6.469352e-07
0.006644389
-6.625149e-07
0.006644459
-6.771719e-07
0.00664453
-6.909371e-07
0.006644603
-7.038434e-07
0.006644677
-7.159242e-07
0.006644752
-7.272139e-07
0.006644827
-7.377465e-07
0.006644904
-7.47556e-07
0.006644981
-7.566757e-07
0.00664506
-7.651378e-07
0.006645139
-7.729737e-07
0.006645218
-7.802132e-07
0.006645298
-7.868847e-07
0.006645379
-7.930153e-07
0.00664546
-7.986301e-07
0.006645542
-8.037529e-07
0.006645624
-8.084053e-07
0.006645707
-8.126074e-07
0.00664579
-8.163776e-07
0.006645873
-8.197322e-07
0.006645956
-8.22686e-07
0.00664604
-8.252518e-07
0.006646123
-8.274405e-07
0.006646207
-8.292616e-07
0.006646291
-8.307224e-07
0.006646376
-8.318287e-07
0.00664646
-8.325843e-07
0.006646544
-8.329914e-07
0.006646628
-8.330504e-07
0.006646713
-8.327598e-07
0.006646797
-8.321165e-07
0.006646881
-8.311156e-07
0.006646965
-8.297501e-07
0.006647049
-8.280116e-07
0.006647133
-8.258896e-07
0.006647216
-8.233719e-07
0.006647299
-8.204443e-07
0.006647382
-8.170909e-07
0.006647465
-8.132937e-07
0.006647547
-8.09033e-07
0.006647629
-8.042871e-07
0.006647711
-7.990323e-07
0.006647791
-7.932432e-07
0.006647872
-7.868923e-07
0.006647952
-7.799505e-07
0.006648031
-7.723867e-07
0.006648109
-7.641682e-07
0.006648187
-7.552606e-07
0.006648263
-7.456282e-07
0.006648339
-7.352337e-07
0.006648414
-7.24039e-07
0.006648488
-7.12005e-07
0.00664856
-6.990918e-07
0.006648631
-6.852597e-07
0.006648701
-6.704689e-07
0.006648769
-6.546804e-07
0.006648836
-6.378564e-07
0.006648901
-6.199609e-07
0.006648964
-6.009605e-07
0.006649026
-5.808249e-07
0.006649085
-5.59528e-07
0.006649142
-5.370486e-07
0.006649196
-5.133713e-07
0.006649248
-4.884875e-07
0.006649298
-4.623965e-07
0.006649344
-4.351061e-07
0.006649388
-4.066336e-07
0.006649429
-3.770067e-07
0.006649466
-3.462641e-07
0.0066495
-3.14456e-07
0.006649531
-2.816444e-07
0.006649558
-2.479032e-07
0.006649581
-2.133177e-07
0.006649601
-1.779848e-07
0.006649616
-1.420109e-07
0.006649628
-1.055139e-07
0.006649635
-6.86097e-08
-3.147123e-08
0.006643436
-6.956128e-08
0.006643444
-1.265873e-07
0.006643455
-1.673697e-07
0.00664347
-2.065605e-07
0.00664349
-2.458449e-07
0.006643513
-2.836977e-07
0.006643541
-3.198627e-07
0.006643572
-3.546558e-07
0.006643607
-3.882191e-07
0.006643646
-4.205633e-07
0.006643689
-4.516954e-07
0.006643734
-4.81625e-07
0.006643783
-5.103517e-07
0.006643834
-5.378703e-07
0.006643888
-5.641774e-07
0.006643945
-5.892736e-07
0.006644003
-6.131644e-07
0.006644064
-6.358607e-07
0.006644127
-6.57379e-07
0.006644192
-6.777409e-07
0.006644258
-6.969729e-07
0.006644326
-7.151052e-07
0.006644396
-7.321712e-07
0.006644467
-7.482071e-07
0.006644539
-7.632507e-07
0.006644613
-7.773412e-07
0.006644687
-7.905181e-07
0.006644763
-8.028215e-07
0.006644839
-8.142908e-07
0.006644917
-8.249649e-07
0.006644995
-8.348819e-07
0.006645074
-8.440783e-07
0.006645153
-8.525895e-07
0.006645233
-8.60449e-07
0.006645314
-8.676889e-07
0.006645395
-8.743391e-07
0.006645477
-8.804279e-07
0.006645559
-8.859815e-07
0.006645642
-8.910241e-07
0.006645725
-8.955779e-07
0.006645808
-8.996631e-07
0.006645892
-9.03298e-07
0.006645975
-9.064986e-07
0.006646059
-9.092791e-07
0.006646144
-9.116518e-07
0.006646228
-9.136267e-07
0.006646312
-9.152121e-07
0.006646397
-9.164143e-07
0.006646482
-9.172375e-07
0.006646566
-9.176842e-07
0.006646651
-9.177548e-07
0.006646736
-9.174477e-07
0.00664682
-9.167595e-07
0.006646905
-9.156847e-07
0.006646989
-9.14216e-07
0.006647073
-9.123438e-07
0.006647158
-9.100568e-07
0.006647242
-9.073417e-07
0.006647325
-9.041827e-07
0.006647409
-9.005625e-07
0.006647492
-8.964612e-07
0.006647575
-8.918572e-07
0.006647657
-8.867265e-07
0.006647739
-8.81043e-07
0.006647821
-8.747785e-07
0.006647902
-8.679027e-07
0.006647982
-8.603832e-07
0.006648062
-8.521854e-07
0.006648141
-8.43273e-07
0.006648219
-8.336075e-07
0.006648297
-8.231488e-07
0.006648373
-8.118551e-07
0.006648449
-7.996835e-07
0.006648524
-7.865895e-07
0.006648597
-7.725282e-07
0.006648669
-7.574541e-07
0.00664874
-7.413216e-07
0.006648809
-7.240857e-07
0.006648877
-7.057026e-07
0.006648943
-6.861302e-07
0.006649008
-6.65329e-07
0.00664907
-6.432627e-07
0.006649131
-6.198997e-07
0.006649189
-5.952135e-07
0.006649245
-5.691841e-07
0.006649298
-5.417988e-07
0.006649349
-5.130538e-07
0.006649396
-4.829549e-07
0.006649441
-4.515188e-07
0.006649483
-4.18774e-07
0.006649521
-3.847616e-07
0.006649557
-3.495363e-07
0.006649588
-3.131663e-07
0.006649616
-2.757339e-07
0.00664964
-2.373351e-07
0.00664966
-1.980793e-07
0.006649676
-1.580873e-07
0.006649688
-1.174939e-07
0.006649696
-7.643149e-08
-3.509705e-08
0.006643414
-7.304686e-08
0.006643423
-1.347577e-07
0.006643436
-1.794001e-07
0.006643453
-2.224966e-07
0.006643474
-2.659982e-07
0.006643499
-3.081212e-07
0.006643528
-3.484635e-07
0.00664356
-3.872954e-07
0.006643597
-4.247247e-07
0.006643637
-4.607363e-07
0.00664368
-4.953253e-07
0.006643727
-5.284991e-07
0.006643777
-5.602606e-07
0.00664383
-5.906116e-07
0.006643885
-6.195574e-07
0.006643943
-6.471083e-07
0.006644003
-6.7328e-07
0.006644065
-6.980938e-07
0.006644129
-7.215762e-07
0.006644195
-7.437587e-07
0.006644263
-7.646768e-07
0.006644332
-7.843698e-07
0.006644402
-8.028796e-07
0.006644474
-8.202502e-07
0.006644548
-8.36527e-07
0.006644622
-8.517561e-07
0.006644697
-8.659838e-07
0.006644774
-8.792561e-07
0.006644851
-8.916183e-07
0.006644929
-9.031146e-07
0.006645008
-9.137879e-07
0.006645088
-9.236794e-07
0.006645168
-9.328285e-07
0.006645249
-9.412728e-07