/*--------------------------------*- C++ -*----------------------------------*\
| =========                 |                                                 |
| \\      /  F ield         | OpenFOAM: The Open Source CFD Toolbox           |
|  \\    /   O peration     | Version:  2.3.0                                 |
|   \\  /    A nd           | Web:      www.OpenFOAM.org                      |
|    \\/     M anipulation  |                                                 |
\*---------------------------------------------------------------------------*/
FoamFile
{
    version     2.0;
    format      ascii;
    class       surfaceScalarField;
    location    "9900/topAir";
    object      phi;
}
// * * * * * * * * * * * * * * * * * * * * * * * * * * * * * * * * * * * * * //

dimensions      [1 0 -1 0 0 0 0];

internalField   nonuniform List<scalar> 
7860
(
0.009502988
4.801635e-06
0.009498757
4.232566e-06
0.009495385
3.374825e-06
0.00949193
3.457028e-06
0.009488332
3.600224e-06
0.009484689
3.643401e-06
0.009481017
3.672061e-06
0.009477314
3.704107e-06
0.009473582
3.731242e-06
0.00946983
3.75267e-06
0.009466059
3.77028e-06
0.009462274
3.784986e-06
0.009458477
3.797252e-06
0.009454669
3.807519e-06
0.009450852
3.816156e-06
0.009447029
3.823447e-06
0.009443199
3.829616e-06
0.009439364
3.834842e-06
0.009435524
3.839269e-06
0.009431681
3.843013e-06
0.009427835
3.846172e-06
0.009423986
3.848824e-06
0.009420134
3.851036e-06
0.009416281
3.852862e-06
0.009412427
3.85435e-06
0.009408571
3.855538e-06
0.009404715
3.856462e-06
0.009400857
3.857149e-06
0.009397
3.857625e-06
0.009393142
3.857912e-06
0.009389283
3.858028e-06
0.009385425
3.85799e-06
0.009381567
3.857812e-06
0.00937771
3.857507e-06
0.009373853
3.857086e-06
0.009369996
3.856559e-06
0.00936614
3.855933e-06
0.009362285
3.855217e-06
0.00935843
3.854418e-06
0.009354576
3.85354e-06
0.009350724
3.852589e-06
0.009346872
3.85157e-06
0.009343022
3.850486e-06
0.009339172
3.84934e-06
0.009335324
3.848135e-06
0.009331477
3.846874e-06
0.009327631
3.845558e-06
0.009323787
3.844188e-06
0.009319944
3.842765e-06
0.009316103
3.84129e-06
0.009312263
3.839763e-06
0.009308425
3.838184e-06
0.009304588
3.836552e-06
0.009300753
3.834866e-06
0.00929692
3.833124e-06
0.009293089
3.831325e-06
0.009289259
3.829466e-06
0.009285432
3.827545e-06
0.009281606
3.825557e-06
0.009277783
3.8235e-06
0.009273961
3.821368e-06
0.009270142
3.819157e-06
0.009266325
3.816859e-06
0.009262511
3.814469e-06
0.009258699
3.811979e-06
0.009254889
3.80938e-06
0.009251083
3.806662e-06
0.009247279
3.803813e-06
0.009243478
3.800821e-06
0.00923968
3.797671e-06
0.009235886
3.794346e-06
0.009232095
3.790826e-06
0.009228308
3.78709e-06
0.009224525
3.783112e-06
0.009220746
3.778862e-06
0.009216971
3.774305e-06
0.009213202
3.769401e-06
0.009209438
3.764102e-06
0.00920568
3.758351e-06
0.009201927
3.752081e-06
0.009198182
3.745208e-06
0.009194445
3.737634e-06
0.009190715
3.729236e-06
0.009186995
3.719863e-06
0.009183286
3.709322e-06
0.009179589
3.697368e-06
0.009175905
3.683684e-06
0.009172237
3.667848e-06
0.009168588
3.649289e-06
0.009164961
3.627212e-06
0.00916136
3.600475e-06
0.009157793
3.567374e-06
0.009154267
3.525252e-06
0.009150798
3.469739e-06
0.009147404
3.39331e-06
0.009144123
3.281769e-06
0.009141013
3.10911e-06
0.0091382
2.813277e-06
0.009135897
2.302708e-06
1.16032e-06
0.009512861
6.636269e-07
0.009514413
2.68231e-06
0.009514897
2.8932e-06
0.009515398
2.958165e-06
0.009515862
3.138203e-06
0.009516239
3.26721e-06
0.009516558
3.353564e-06
0.009516838
3.424319e-06
0.009517086
3.48281e-06
0.009517308
3.530277e-06
0.009517509
3.569485e-06
0.009517691
3.602457e-06
0.009517858
3.63047e-06
0.009518011
3.654488e-06
0.009518152
3.675265e-06
0.009518281
3.693381e-06
0.009518401
3.709286e-06
0.009518513
3.723337e-06
0.009518616
3.735816e-06
0.009518712
3.746956e-06
0.009518801
3.756945e-06
0.009518883
3.765937e-06
0.00951896
3.774061e-06
0.009519032
3.781427e-06
0.009519098
3.788124e-06
0.009519159
3.79423e-06
0.009519215
3.799812e-06
0.009519267
3.804926e-06
0.009519315
3.809622e-06
0.009519359
3.813941e-06
0.009519399
3.817921e-06
0.009519435
3.821594e-06
0.009519468
3.824988e-06
0.009519497
3.828128e-06
0.009519523
3.831036e-06
0.009519546
3.83373e-06
0.009519566
3.836227e-06
0.009519582
3.838543e-06
0.009519596
3.84069e-06
0.009519607
3.842679e-06
0.009519614
3.84452e-06
0.00951962
3.846222e-06
0.009519622
3.847793e-06
0.009519622
3.849238e-06
0.00951962
3.850563e-06
0.009519615
3.851772e-06
0.009519608
3.852869e-06
0.009519598
3.853857e-06
0.009519586
3.854737e-06
0.009519572
3.855509e-06
0.009519555
3.856175e-06
0.009519537
3.856734e-06
0.009519516
3.857185e-06
0.009519493
3.857524e-06
0.009519468
3.85775e-06
0.009519442
3.857859e-06
0.009519413
3.857845e-06
0.009519383
3.857703e-06
0.009519351
3.857427e-06
0.009519318
3.857008e-06
0.009519283
3.856437e-06
0.009519246
3.855704e-06
0.009519208
3.854797e-06
0.009519169
3.853702e-06
0.009519128
3.852404e-06
0.009519087
3.850886e-06
0.009519044
3.849127e-06
0.009519001
3.847104e-06
0.009518957
3.844793e-06
0.009518913
3.842164e-06
0.009518868
3.839183e-06
0.009518823
3.835811e-06
0.009518778
3.832006e-06
0.009518733
3.827715e-06
0.009518689
3.82288e-06
0.009518646
3.817432e-06
0.009518604
3.811292e-06
0.009518564
3.804364e-06
0.009518526
3.796536e-06
0.00951849
3.787675e-06
0.009518457
3.777621e-06
0.009518429
3.766177e-06
0.009518405
3.753105e-06
0.009518387
3.738109e-06
0.009518375
3.720819e-06
0.009518372
3.700762e-06
0.009518378
3.677331e-06
0.009518396
3.649729e-06
0.009518429
3.616893e-06
0.009518478
3.57737e-06
0.00951855
3.529134e-06
0.009518648
3.469287e-06
0.009518779
3.393567e-06
0.009518954
3.295524e-06
0.009519182
3.165161e-06
0.009519477
2.986344e-06
0.009519853
2.733383e-06
0.009520306
2.360316e-06
0.009520806
1.80294e-06
8.971349e-07
0.009509984
9.681423e-07
0.009510795
1.87343e-06
0.009511414
2.27654e-06
0.009511877
2.49812e-06
0.00951229
2.726453e-06
0.009512654
2.904254e-06
0.009512976
3.031392e-06
0.009513269
3.131888e-06
0.009513537
3.214375e-06
0.009513786
3.282065e-06
0.009514017
3.338293e-06
0.009514233
3.385715e-06
0.009514437
3.426136e-06
0.009514631
3.460888e-06
0.009514815
3.491006e-06
0.009514991
3.517294e-06
0.009515159
3.540384e-06
0.009515322
3.560776e-06
0.009515478
3.578878e-06
0.00951563
3.595017e-06
0.009515777
3.609466e-06
0.009515921
3.622448e-06
0.00951606
3.634152e-06
0.009516197
3.644735e-06
0.00951633
3.65433e-06
0.009516461
3.663052e-06
0.00951659
3.670997e-06
0.009516717
3.67825e-06
0.009516841
3.684883e-06
0.009516964
3.690959e-06
0.009517085
3.696532e-06
0.009517205
3.701651e-06
0.009517324
3.706357e-06
0.009517441
3.710688e-06
0.009517557
3.714675e-06
0.009517672
3.718347e-06
0.009517787
3.721728e-06
0.0095179
3.724842e-06
0.009518013
3.727707e-06
0.009518126
3.73034e-06
0.009518237
3.732756e-06
0.009518348
3.734968e-06
0.009518459
3.736987e-06
0.00951857
3.738823e-06
0.00951868
3.740483e-06
0.009518789
3.741973e-06
0.009518899
3.743301e-06
0.009519008
3.744468e-06
0.009519117
3.745478e-06
0.009519226
3.746333e-06
0.009519336
3.747033e-06
0.009519445
3.747578e-06
0.009519554
3.747964e-06
0.009519663
3.74819e-06
0.009519773
3.748251e-06
0.009519882
3.748141e-06
0.009519992
3.747854e-06
0.009520103
3.747381e-06
0.009520213
3.746712e-06
0.009520324
3.745836e-06
0.009520436
3.744739e-06
0.009520548
3.743407e-06
0.009520661
3.741821e-06
0.009520775
3.739963e-06
0.009520889
3.737809e-06
0.009521005
3.735333e-06
0.009521122
3.732508e-06
0.009521239
3.729299e-06
0.009521358
3.72567e-06
0.009521479
3.721577e-06
0.009521601
3.716973e-06
0.009521725
3.7118e-06
0.009521851
3.705996e-06
0.009521979
3.699486e-06
0.00952211
3.692186e-06
0.009522243
3.683997e-06
0.00952238
3.674802e-06
0.00952252
3.664467e-06
0.009522663
3.652831e-06
0.009522811
3.639703e-06
0.009522964
3.624856e-06
0.009523122
3.608013e-06
0.009523287
3.588839e-06
0.009523458
3.56692e-06
0.009523637
3.541743e-06
0.009523825
3.512661e-06
0.009524023
3.478851e-06
0.009524234
3.439247e-06
0.009524458
3.392454e-06
0.009524699
3.336611e-06
0.009524959
3.269194e-06
0.009525241
3.186723e-06
0.009525551
3.084313e-06
0.009525891
2.954998e-06
0.009526268
2.788759e-06
0.009526683
2.571047e-06
0.009527135
2.281287e-06
0.009527605
1.890558e-06
0.009528042
1.365305e-06
6.76233e-07
0.009511043
6.259639e-07
0.009511454
1.46417e-06
0.009511813
1.920179e-06
0.009512134
2.179212e-06
0.00951245
2.411518e-06
0.009512751
2.604109e-06
0.009513031
2.752418e-06
0.009513291
2.871966e-06
0.009513534
2.971328e-06
0.009513762
3.054246e-06
0.009513976
3.123982e-06
0.009514178
3.183273e-06
0.00951437
3.234125e-06
0.009514552
3.278058e-06
0.009514727
3.316268e-06
0.009514894
3.349706e-06
0.009515055
3.37913e-06
0.009515211
3.405149e-06
0.009515361
3.428261e-06
0.009515507
3.448875e-06
0.009515649
3.467327e-06
0.009515787
3.483899e-06
0.009515922
3.498828e-06
0.009516055
3.512312e-06
0.009516184
3.524523e-06
0.009516312
3.535604e-06
0.009516437
3.54568e-06
0.00951656
3.554859e-06
0.009516682
3.563233e-06
0.009516801
3.570884e-06
0.00951692
3.577882e-06
0.009517037
3.584289e-06
0.009517153
3.590158e-06
0.009517268
3.595538e-06
0.009517382
3.60047e-06
0.009517496
3.604992e-06
0.009517608
3.609135e-06
0.00951772
3.612929e-06
0.009517831
3.616398e-06
0.009517942
3.619564e-06
0.009518052
3.622447e-06
0.009518162
3.625064e-06
0.009518271
3.627429e-06
0.009518381
3.629554e-06
0.00951849
3.63145e-06
0.009518598
3.633125e-06
0.009518707
3.634586e-06
0.009518816
3.635839e-06
0.009518924
3.636887e-06
0.009519033
3.637731e-06
0.009519141
3.638374e-06
0.00951925
3.638812e-06
0.009519359
3.639045e-06
0.009519468
3.639068e-06
0.009519577
3.638875e-06
0.009519687
3.63846e-06
0.009519797
3.637812e-06
0.009519907
3.636922e-06
0.009520018
3.635776e-06
0.00952013
3.634359e-06
0.009520242
3.632654e-06
0.009520355
3.630642e-06
0.009520468
3.628298e-06
0.009520582
3.625599e-06
0.009520698
3.622513e-06
0.009520814
3.619009e-06
0.009520931
3.615048e-06
0.00952105
3.610588e-06
0.00952117
3.605579e-06
0.009521292
3.599968e-06
0.009521415
3.59369e-06
0.00952154
3.586675e-06
0.009521667
3.57884e-06
0.009521797
3.57009e-06
0.009521928
3.560316e-06
0.009522063
3.549392e-06
0.009522201
3.537171e-06
0.009522342
3.523481e-06
0.009522486
3.508118e-06
0.009522635
3.490845e-06
0.009522788
3.471374e-06
0.009522947
3.449363e-06
0.009523112
3.424397e-06
0.009523282
3.39597e-06
0.009523461
3.363459e-06
0.009523647
3.32609e-06
0.009523843
3.282891e-06
0.00952405
3.232628e-06
0.009524269
3.173718e-06
0.009524501
3.104109e-06
0.009524749
3.02111e-06
0.009525015
2.921161e-06
0.009525299
2.799526e-06
0.009525604
2.649877e-06
0.009525929
2.463813e-06
0.00952627
2.230347e-06
0.009526616
1.935675e-06
0.009526942
1.563905e-06
0.009527208
1.099302e-06
5.418187e-07
0.009510904
6.612572e-07
0.009511137
1.233313e-06
0.009511453
1.606973e-06
0.009511758
1.876424e-06
0.009512054
2.116491e-06
0.009512339
2.320673e-06
0.009512606
2.485346e-06
0.009512858
2.620942e-06
0.009513094
2.734929e-06
0.009513317
2.831207e-06
0.009513528
2.912991e-06
0.009513728
2.983037e-06
0.009513918
3.04347e-06
0.0095141
3.095938e-06
0.009514274
3.141755e-06
0.009514442
3.181981e-06
0.009514603
3.21747e-06
0.009514759
3.24892e-06
0.00951491
3.276901e-06
0.009515057
3.301888e-06
0.0095152
3.324274e-06
0.009515339
3.344391e-06
0.009515475
3.362518e-06
0.009515609
3.378891e-06
0.009515739
3.393714e-06
0.009515868
3.407159e-06
0.009515994
3.419376e-06
0.009516118
3.430494e-06
0.00951624
3.440627e-06
0.009516361
3.449872e-06
0.009516481
3.458315e-06
0.009516599
3.466031e-06
0.009516716
3.473086e-06
0.009516832
3.479538e-06
0.009516947
3.485438e-06
0.009517061
3.490832e-06
0.009517174
3.495759e-06
0.009517287
3.500254e-06
0.009517399
3.504349e-06
0.00951751
3.508071e-06
0.009517621
3.511442e-06
0.009517731
3.514485e-06
0.009517842
3.517216e-06
0.009517951
3.519652e-06
0.009518061
3.521804e-06
0.00951817
3.523684e-06
0.00951828
3.5253e-06
0.009518389
3.526658e-06
0.009518498
3.527763e-06
0.009518607
3.528618e-06
0.009518716
3.529224e-06
0.009518825
3.529578e-06
0.009518934
3.529679e-06
0.009519044
3.529521e-06
0.009519154
3.529098e-06
0.009519264
3.5284e-06
0.009519374
3.527417e-06
0.009519485
3.526135e-06
0.009519596
3.52454e-06
0.009519708
3.522611e-06
0.00951982
3.52033e-06
0.009519933
3.51767e-06
0.009520047
3.514605e-06
0.009520161
3.511103e-06
0.009520276
3.507129e-06
0.009520393
3.502642e-06
0.00952051
3.497596e-06
0.009520629
3.491941e-06
0.009520749
3.485616e-06
0.00952087
3.478556e-06
0.009520993
3.470685e-06
0.009521118
3.461916e-06
0.009521244
3.452151e-06
0.009521373
3.441276e-06
0.009521504
3.429162e-06
0.009521638
3.415658e-06
0.009521775
3.40059e-06
0.009521914
3.383756e-06
0.009522058
3.364916e-06
0.009522205
3.343793e-06
0.009522356
3.320053e-06
0.009522512
3.293303e-06
0.009522673
3.263069e-06
0.00952284
3.22878e-06
0.009523014
3.189738e-06
0.009523195
3.145093e-06
0.009523384
3.09379e-06
0.009523582
3.034518e-06
0.00952379
2.965634e-06
0.009524009
2.885066e-06
0.00952424
2.790185e-06
0.009524484
2.677654e-06
0.00952474
2.543238e-06
0.009525008
2.381612e-06
0.009525286
2.186202e-06
0.009525567
1.949203e-06
0.009525841
1.66195e-06
0.009526088
1.316577e-06
0.00952628
9.075092e-07
4.450962e-07
0.009511353
4.869917e-07
0.009511565
1.02323e-06
0.009511797
1.377417e-06
0.009512032
1.64355e-06
0.009512268
1.882518e-06
0.009512501
2.088839e-06
0.009512727
2.260004e-06
0.009512944
2.403769e-06
0.009513153
2.526255e-06
0.009513353
2.631028e-06
0.009513544
2.721033e-06
0.009513728
2.798829e-06
0.009513905
2.866457e-06
0.009514075
2.925545e-06
0.00951424
2.977418e-06
0.009514398
3.023161e-06
0.009514552
3.063664e-06
0.009514701
3.099664e-06
0.009514846
3.131771e-06
0.009514987
3.160498e-06
0.009515125
3.186276e-06
0.009515259
3.209468e-06
0.009515391
3.230384e-06
0.009515521
3.249288e-06
0.009515648
3.266408e-06
0.009515773
3.281939e-06
0.009515896
3.29605e-06
0.009516017
3.308889e-06
0.009516137
3.320584e-06
0.009516256
3.331246e-06
0.009516373
3.340976e-06
0.009516489
3.349857e-06
0.009516604
3.357968e-06
0.009516718
3.365375e-06
0.009516831
3.372136e-06
0.009516944
3.378305e-06
0.009517056
3.383928e-06
0.009517167
3.389046e-06
0.009517277
3.393693e-06
0.009517387
3.397903e-06
0.009517497
3.401702e-06
0.009517606
3.405115e-06
0.009517715
3.408162e-06
0.009517824
3.410862e-06
0.009517932
3.413229e-06
0.009518041
3.415275e-06
0.009518149
3.417012e-06
0.009518257
3.418445e-06
0.009518365
3.419581e-06
0.009518473
3.420422e-06
0.009518582
3.420969e-06
0.00951869
3.421222e-06
0.009518798
3.421175e-06
0.009518907
3.420825e-06
0.009519016
3.420162e-06
0.009519125
3.419177e-06
0.009519235
3.417855e-06
0.009519345
3.416183e-06
0.009519455
3.414141e-06
0.009519566
3.411709e-06
0.009519677
3.408861e-06
0.009519789
3.405569e-06
0.009519902
3.401802e-06
0.009520016
3.397522e-06
0.00952013
3.392688e-06
0.009520245
3.387253e-06
0.009520362
3.381165e-06
0.009520479
3.374363e-06
0.009520598
3.36678e-06
0.009520718
3.358338e-06
0.00952084
3.348951e-06
0.009520963
3.338519e-06
0.009521089
3.326929e-06
0.009521216
3.314053e-06
0.009521345
3.299742e-06
0.009521477
3.283826e-06
0.009521612
3.266109e-06
0.009521749
3.246363e-06
0.009521889
3.224322e-06
0.009522034
3.199676e-06
0.009522182
3.172061e-06
0.009522334
3.141045e-06
0.009522491
3.106117e-06
0.009522653
3.066666e-06
0.009522821
3.021956e-06
0.009522994
2.971102e-06
0.009523175
2.913027e-06
0.009523363
2.846421e-06
0.009523559
2.769679e-06
0.009523763
2.680835e-06
0.009523976
2.577484e-06
0.009524197
2.45669e-06
0.009524425
2.314912e-06
0.009524659
2.147958e-06
0.009524894
1.951025e-06
0.009525124
1.718949e-06
0.00952534
1.446725e-06
0.009525525
1.130999e-06
0.009525662
7.707388e-07
3.763281e-07
0.009511387
4.787972e-07
0.009511507
9.045335e-07
0.009511682
1.205632e-06
0.009511872
1.454799e-06
0.009512074
1.683068e-06
0.009512279
1.883876e-06
0.009512485
2.055137e-06
0.009512686
2.202231e-06
0.009512883
2.329623e-06
0.009513074
2.440135e-06
0.009513258
2.536225e-06
0.009513437
2.62011e-06
0.00951361
2.693637e-06
0.009513777
2.758326e-06
0.009513938
2.815448e-06
0.009514095
2.866068e-06
0.009514248
2.911075e-06
0.009514396
2.951218e-06
0.00951454
2.987127e-06
0.009514681
3.019336e-06
0.009514819
3.048298e-06
0.009514954
3.074401e-06
0.009515086
3.097975e-06
0.009515216
3.119307e-06
0.009515343
3.138643e-06
0.009515469
3.156197e-06
0.009515593
3.172154e-06
0.009515715
3.186676e-06
0.009515835
3.199906e-06
0.009515954
3.211968e-06
0.009516072
3.222971e-06
0.009516189
3.233012e-06
0.009516305
3.242176e-06
0.009516419
3.250538e-06
0.009516533
3.258166e-06
0.009516646
3.265117e-06
0.009516759
3.271445e-06
0.009516871
3.277195e-06
0.009516982
3.282407e-06
0.009517092
3.287119e-06
0.009517203
3.29136e-06
0.009517313
3.295159e-06
0.009517422
3.298539e-06
0.009517531
3.30152e-06
0.00951764
3.30412e-06
0.009517749
3.306353e-06
0.009517858
3.308229e-06
0.009517967
3.309759e-06
0.009518075
3.310946e-06
0.009518184
3.311796e-06
0.009518292
3.312309e-06
0.009518401
3.312484e-06
0.00951851
3.312317e-06
0.009518619
3.311801e-06
0.009518728
3.310927e-06
0.009518838
3.309683e-06
0.009518947
3.308056e-06
0.009519057
3.306027e-06
0.009519168
3.303576e-06
0.009519279
3.300678e-06
0.00951939
3.297305e-06
0.009519503
3.293427e-06
0.009519615
3.289006e-06
0.009519729
3.284002e-06
0.009519843
3.278367e-06
0.009519958
3.272049e-06
0.009520074
3.264988e-06
0.009520192
3.257118e-06
0.00952031
3.248363e-06
0.00952043
3.238637e-06
0.009520551
3.227842e-06
0.009520673
3.21587e-06
0.009520798
3.202594e-06
0.009520924
3.187874e-06
0.009521052
3.171546e-06
0.009521182
3.153424e-06
0.009521315
3.133295e-06
0.009521451
3.110913e-06
0.009521589
3.085991e-06
0.00952173
3.058201e-06
0.009521875
3.027154e-06
0.009522024
2.9924e-06
0.009522177
2.953406e-06
0.009522334
2.909547e-06
0.009522496
2.860079e-06
0.009522663
2.80412e-06
0.009522835
2.740619e-06
0.009523013
2.66832e-06
0.009523197
2.585727e-06
0.009523387
2.491058e-06
0.009523582
2.382203e-06
0.009523782
2.256694e-06
0.009523985
2.111689e-06
0.009524189
1.944018e-06
0.00952439
1.750316e-06
0.009524581
1.527335e-06
0.009524756
1.272432e-06
0.009524902
9.847341e-07
0.009525007
6.653671e-07
3.23522e-07
0.009511625
3.981475e-07
0.009511743
7.883699e-07
0.00951189
1.061544e-06
0.009512053
1.293329e-06
0.009512227
1.510688e-06
0.009512407
1.705422e-06
0.009512587
1.874852e-06
0.009512767
2.022842e-06
0.009512944
2.152708e-06
0.009513117
2.266664e-06
0.009513287
2.366756e-06
0.009513452
2.454894e-06
0.009513612
2.532722e-06
0.009513769
2.601634e-06
0.009513921
2.662823e-06
0.00951407
2.717303e-06
0.009514215
2.765941e-06
0.009514356
2.809474e-06
0.009514494
2.848533e-06
0.00951463
2.883657e-06
0.009514763
2.91531e-06
0.009514893
2.943889e-06
0.009515021
2.969741e-06
0.009515147
2.993163e-06
0.009515271
3.014416e-06
0.009515393
3.033725e-06
0.009515514
3.051289e-06
0.009515633
3.067281e-06
0.009515751
3.081853e-06
0.009515868
3.095139e-06
0.009515983
3.107259e-06
0.009516098
3.118316e-06
0.009516212
3.128404e-06
0.009516325
3.137605e-06
0.009516437
3.14599e-06
0.009516548
3.153626e-06
0.009516659
3.160569e-06
0.009516769
3.166869e-06
0.009516879
3.172572e-06
0.009516988
3.177717e-06
0.009517097
3.182338e-06
0.009517206
3.186466e-06
0.009517314
3.190127e-06
0.009517422
3.193343e-06
0.00951753
3.196133e-06
0.009517638
3.198514e-06
0.009517745
3.200496e-06
0.009517853
3.202091e-06
0.009517961
3.203304e-06
0.009518068
3.204139e-06
0.009518176
3.204598e-06
0.009518284
3.204679e-06
0.009518392
3.204378e-06
0.0095185
3.203687e-06
0.009518608
3.202596e-06
0.009518716
3.201093e-06
0.009518825
3.19916e-06
0.009518935
3.19678e-06
0.009519044
3.193928e-06
0.009519154
3.190579e-06
0.009519265
3.186701e-06
0.009519376
3.182259e-06
0.009519488
3.177214e-06
0.0095196
3.171519e-06
0.009519713
3.165125e-06
0.009519827
3.157972e-06
0.009519942
3.149996e-06
0.009520058
3.141124e-06
0.009520175
3.131273e-06
0.009520294
3.12035e-06
0.009520413
3.108249e-06
0.009520534
3.094853e-06
0.009520657
3.080026e-06
0.009520781
3.063616e-06
0.009520907
3.04545e-06
0.009521035
3.02533e-06
0.009521165
3.00303e-06
0.009521298
2.978291e-06
0.009521433
2.950817e-06
0.009521571
2.920263e-06
0.009521712
2.886235e-06
0.009521856
2.848272e-06
0.009522004
2.805841e-06
0.009522155
2.758319e-06
0.00952231
2.70498e-06
0.009522469
2.644974e-06
0.009522632
2.577307e-06
0.0095228
2.500822e-06
0.009522971
2.414168e-06
0.009523146
2.315785e-06
0.009523325
2.203891e-06
0.009523505
2.076479e-06
0.009523685
1.931353e-06
0.009523863
1.766211e-06
0.009524035
1.578802e-06
0.009524195
1.36722e-06
0.009524337
1.130292e-06
0.009524453
8.683812e-07
0.009524535
5.833554e-07
2.825668e-07
0.009511717
3.740034e-07
0.009511799
7.092201e-07
0.009511912
9.505611e-07
0.009512043
1.164721e-06
0.009512186
1.3686e-06
0.009512339
1.553688e-06
0.009512497
1.717457e-06
0.009512657
1.862733e-06
0.009512818
1.991897e-06
0.009512978
2.106574e-06
0.009513136
2.208364e-06
0.009513292
2.298829e-06
0.009513445
2.379358e-06
0.009513596
2.451167e-06
0.009513743
2.51532e-06
0.009513887
2.572747e-06
0.009514029
2.624256e-06
0.009514167
2.670547e-06
0.009514303
2.712228e-06
0.009514437
2.749826e-06
0.009514568
2.783798e-06
0.009514697
2.814545e-06
0.009514825
2.842413e-06
0.00951495
2.867707e-06
0.009515073
2.890692e-06
0.009515195
2.911602e-06
0.009515316
2.930642e-06
0.009515435
2.947993e-06
0.009515553
2.963815e-06
0.00951567
2.97825e-06
0.009515785
2.991422e-06
0.0095159
3.003442e-06
0.009516014
3.01441e-06
0.009516127
3.024412e-06
0.009516239
3.033527e-06
0.009516351
3.041824e-06
0.009516462
3.049364e-06
0.009516573
3.056202e-06
0.009516683
3.062387e-06
0.009516793
3.06796e-06
0.009516902
3.072959e-06
0.009517011
3.077417e-06
0.00951712
3.081362e-06
0.009517228
3.084819e-06
0.009517336
3.087808e-06
0.009517444
3.090346e-06
0.009517552
3.092447e-06
0.00951766
3.094121e-06
0.009517768
3.095376e-06
0.009517876
3.096215e-06
0.009517984
3.096641e-06
0.009518092
3.09665e-06
0.0095182
3.096239e-06
0.009518308
3.095399e-06
0.009518417
3.094121e-06
0.009518525
3.092389e-06
0.009518634
3.090186e-06
0.009518744
3.087491e-06
0.009518853
3.08428e-06
0.009518963
3.080522e-06
0.009519074
3.076186e-06
0.009519185
3.071233e-06
0.009519296
3.06562e-06
0.009519408
3.059298e-06
0.009519521
3.052212e-06
0.009519635
3.0443e-06
0.009519749
3.035493e-06
0.009519865
3.025711e-06
0.009519981
3.014867e-06
0.009520099
3.002861e-06
0.009520217
2.989583e-06
0.009520337
2.974906e-06
0.009520458
2.958689e-06
0.009520581
2.940773e-06
0.009520706
2.920975e-06
0.009520832
2.899091e-06
0.00952096
2.874888e-06
0.00952109
2.848101e-06
0.009521223
2.818425e-06
0.009521357
2.785516e-06
0.009521495
2.748976e-06
0.009521634
2.708351e-06
0.009521777
2.663117e-06
0.009521923
2.612673e-06
0.009522071
2.556326e-06
0.009522223
2.493281e-06
0.009522378
2.422625e-06
0.009522535
2.343315e-06
0.009522695
2.254169e-06
0.009522857
2.153858e-06
0.00952302
2.040915e-06
0.009523183
1.913755e-06
0.009523343
1.770729e-06
0.009523499
1.610219e-06
0.009523647
1.430788e-06
0.009523783
1.231427e-06
0.009523902
1.011834e-06
0.009523997
7.729683e-07
0.009524063
5.168841e-07
2.494791e-07
0.009511868
3.294417e-07
0.009511944
6.351758e-07
0.009512043
8.541303e-07
0.009512158
1.051242e-06
0.009512287
1.24182e-06
0.009512424
1.417295e-06
0.009512567
1.574887e-06
0.009512713
1.716583e-06
0.009512861
1.844044e-06
0.009513009
1.958393e-06
0.009513157
2.060843e-06
0.009513303
2.152645e-06
0.009513447
2.234957e-06
0.009513589
2.308822e-06
0.009513729
2.375183e-06
0.009513867
2.434878e-06
0.009514002
2.488652e-06
0.009514135
2.537162e-06
0.009514266
2.580985e-06
0.009514395
2.62063e-06
0.009514522
2.656544e-06
0.009514647
2.68912e-06
0.009514771
2.718702e-06
0.009514893
2.745596e-06
0.009515013
2.770071e-06
0.009515132
2.792363e-06
0.00951525
2.812682e-06
0.009515367
2.831215e-06
0.009515482
2.848126e-06
0.009515597
2.863562e-06
0.009515711
2.877653e-06
0.009515823
2.890516e-06
0.009515935
2.902253e-06
0.009516047
2.912956e-06
0.009516157
2.922708e-06
0.009516268
2.931582e-06
0.009516377
2.939643e-06
0.009516486
2.946949e-06
0.009516595
2.95355e-06
0.009516703
2.959492e-06
0.009516812
2.964816e-06
0.009516919
2.969555e-06
0.009517027
2.973741e-06
0.009517134
2.977399e-06
0.009517241
2.980551e-06
0.009517348
2.983215e-06
0.009517455
2.985407e-06
0.009517562
2.987136e-06
0.009517669
2.988412e-06
0.009517776
2.989238e-06
0.009517883
2.989615e-06
0.00951799
2.989543e-06
0.009518097
2.989016e-06
0.009518205
2.988025e-06
0.009518312
2.986559e-06
0.00951842
2.984602e-06
0.009518528
2.982137e-06
0.009518636
2.979141e-06
0.009518745
2.975586e-06
0.009518854
2.971443e-06
0.009518964
2.966676e-06
0.009519073
2.961244e-06
0.009519184
2.955102e-06
0.009519295
2.948198e-06
0.009519407
2.940473e-06
0.009519519
2.931862e-06
0.009519632
2.922292e-06
0.009519746
2.91168e-06
0.009519861
2.899934e-06
0.009519977
2.88695e-06
0.009520094
2.872612e-06
0.009520212
2.856789e-06
0.009520331
2.839335e-06
0.009520452
2.820087e-06
0.009520574
2.798857e-06
0.009520698
2.775437e-06
0.009520823
2.749591e-06
0.00952095
2.721052e-06
0.009521079
2.689518e-06
0.00952121
2.654646e-06
0.009521343
2.616047e-06
0.009521478
2.57328e-06
0.009521615
2.525843e-06
0.009521755
2.473167e-06
0.009521896
2.414606e-06
0.00952204
2.349433e-06
0.009522186
2.276826e-06
0.009522333
2.195869e-06
0.009522482
2.105548e-06
0.009522631
2.004757e-06
0.00952278
1.892316e-06
0.009522926
1.767006e-06
0.009523069
1.627623e-06
0.009523206
1.473072e-06
0.009523335
1.302499e-06
0.009523451
1.115476e-06
0.00952355
9.121975e-07
0.009523629
6.938439e-07
0.009523684
4.623685e-07
2.224314e-07
0.009511965
3.05317e-07
0.009512024
5.778392e-07
0.009512106
7.754311e-07
0.009512202
9.574467e-07
0.00951231
1.135249e-06
0.009512427
1.300577e-06
0.009512552
1.450795e-06
0.009512681
1.587358e-06
0.009512814
1.711425e-06
0.009512948
1.823756e-06
0.009513084
1.925255e-06
0.009513219
2.016908e-06
0.009513354
2.099659e-06
0.009513489
2.174385e-06
0.009513622
2.241897e-06
0.009513753
2.302935e-06
0.009513884
2.358167e-06
0.009514012
2.408193e-06
0.00951414
2.453549e-06
0.009514265
2.494711e-06
0.00951439
2.532106e-06
0.009514512
2.56611e-06
0.009514634
2.597059e-06
0.009514754
2.625252e-06
0.009514873
2.650953e-06
0.009514991
2.674399e-06
0.009515107
2.695798e-06
0.009515223
2.715339e-06
0.009515338
2.733188e-06
0.009515452
2.749494e-06
0.009515565
2.76439e-06
0.009515677
2.777995e-06
0.009515789
2.790414e-06
0.0095159
2.801744e-06
0.009516011
2.812069e-06
0.009516121
2.821465e-06
0.00951623
2.829998e-06
0.009516339
2.837731e-06
0.009516448
2.844715e-06
0.009516557
2.850999e-06
0.009516665
2.856624e-06
0.009516773
2.861627e-06
0.00951688
2.866039e-06
0.009516988
2.869888e-06
0.009517095
2.873198e-06
0.009517202
2.875986e-06
0.009517309
2.878269e-06
0.009517416
2.880058e-06
0.009517523
2.881361e-06
0.00951763
2.882184e-06
0.009517737
2.882528e-06
0.009517844
2.88239e-06
0.009517952
2.881765e-06
0.009518059
2.880645e-06
0.009518166
2.879017e-06
0.009518274
2.876866e-06
0.009518382
2.874171e-06
0.00951849
2.870909e-06
0.009518599
2.867052e-06
0.009518708
2.862567e-06
0.009518817
2.857418e-06
0.009518926
2.851563e-06
0.009519037
2.844952e-06
0.009519147
2.837532e-06
0.009519258
2.829243e-06
0.00951937
2.820015e-06
0.009519483
2.809773e-06
0.009519596
2.798431e-06
0.00951971
2.785894e-06
0.009519825
2.772054e-06
0.009519941
2.756794e-06
0.009520057
2.739979e-06
0.009520175
2.721461e-06
0.009520294
2.701073e-06
0.009520414
2.678627e-06
0.009520536
2.653914e-06
0.009520659
2.6267e-06
0.009520783
2.59672e-06
0.009520909
2.563677e-06
0.009521036
2.527239e-06
0.009521165
2.48703e-06
0.009521296
2.442631e-06
0.009521428
2.393568e-06
0.009521562
2.339313e-06
0.009521697
2.279275e-06
0.009521834
2.2128e-06
0.009521972
2.139163e-06
0.00952211
2.057573e-06
0.009522248
1.967177e-06
0.009522386
1.867072e-06
0.009522522
1.75633e-06
0.009522655
1.634032e-06
0.009522783
1.499325e-06
0.009522905
1.351504e-06
0.009523017
1.190116e-06
0.009523117
1.015098e-06
0.009523203
8.269127e-07
0.00952327
6.267814e-07
0.009523315
4.164719e-07
1.997286e-07
0.009512075
2.762804e-07
0.00951213
5.256104e-07
0.009512201
7.060969e-07
0.009512287
8.739305e-07
0.009512385
1.039414e-06
0.009512491
1.194748e-06
0.009512605
1.337364e-06
0.009512724
1.468318e-06
0.009512847
1.58839e-06
0.009512973
1.698043e-06
0.0095131
1.797915e-06
0.009513228
1.888756e-06
0.009513356
1.971315e-06
0.009513484
2.046313e-06
0.009513611
2.114434e-06
0.009513738
2.176319e-06
0.009513863
2.232559e-06
0.009513987
2.283695e-06
0.009514111
2.330217e-06
0.009514232
2.372568e-06
0.009514353
2.411148e-06
0.009514473
2.446315e-06
0.009514591
2.478393e-06
0.009514709
2.507669e-06
0.009514825
2.534403e-06
0.00951494
2.558827e-06
0.009515055
2.581149e-06
0.009515169
2.601555e-06
0.009515281
2.620213e-06
0.009515394
2.637271e-06
0.009515505
2.652865e-06
0.009515616
2.667115e-06
0.009515726
2.68013e-06
0.009515835
2.692005e-06
0.009515945
2.702829e-06
0.009516053
2.71268e-06
0.009516162
2.721626e-06
0.009516269
2.72973e-06
0.009516377
2.737047e-06
0.009516484
2.743627e-06
0.009516591
2.749512e-06
0.009516698
2.754741e-06
0.009516805
2.759347e-06
0.009516911
2.763359e-06
0.009517018
2.766799e-06
0.009517124
2.769689e-06
0.00951723
2.772045e-06
0.009517336
2.773878e-06
0.009517442
2.775198e-06
0.009517548
2.776008e-06
0.009517654
2.776312e-06
0.009517761
2.776107e-06
0.009517867
2.775386e-06
0.009517974
2.774142e-06
0.00951808
2.772361e-06
0.009518187
2.770026e-06
0.009518294
2.767118e-06
0.009518401
2.763611e-06
0.009518509
2.759477e-06
0.009518617
2.754682e-06
0.009518725
2.749187e-06
0.009518833
2.742948e-06
0.009518942
2.735916e-06
0.009519052
2.728035e-06
0.009519162
2.719242e-06
0.009519272
2.709468e-06
0.009519383
2.698633e-06
0.009519495
2.686651e-06
0.009519608
2.673423e-06
0.009519721
2.658843e-06
0.009519835
2.642788e-06
0.00951995
2.625125e-06
0.009520065
2.605704e-06
0.009520182
2.584358e-06
0.0095203
2.560901e-06
0.009520419
2.535126e-06
0.009520538
2.506803e-06
0.009520659
2.475674e-06
0.009520782
2.441453e-06
0.009520905
2.403819e-06
0.00952103