/*--------------------------------*- C++ -*----------------------------------*\
| =========                 |                                                 |
| \\      /  F ield         | OpenFOAM: The Open Source CFD Toolbox           |
|  \\    /   O peration     | Version:  2.3.0                                 |
|   \\  /    A nd           | Web:      www.OpenFOAM.org                      |
|    \\/     M anipulation  |                                                 |
\*---------------------------------------------------------------------------*/
FoamFile
{
    version     2.0;
    format      ascii;
    class       volVectorField;
    location    "9900/topAir";
    object      U;
}
// * * * * * * * * * * * * * * * * * * * * * * * * * * * * * * * * * * * * * //

dimensions      [0 1 -1 0 0 0 0];

internalField   nonuniform List<vector> 
4000
(
(12.05013 0.003208559 0)
(9.021074 0.003383179 0)
(7.797854 0.002828555 0)
(8.120128 0.002774466 0)
(8.241003 0.002828572 0)
(8.203425 0.00284826 0)
(8.188141 0.002864452 0)
(8.189046 0.002886263 0)
(8.187463 0.002907744 0)
(8.184199 0.002926981 0)
(8.181188 0.002944297 0)
(8.178333 0.002959878 0)
(8.175437 0.002973808 0)
(8.172514 0.002986239 0)
(8.169585 0.002997341 0)
(8.166651 0.003007267 0)
(8.163711 0.003016151 0)
(8.160765 0.003024113 0)
(8.157815 0.003031254 0)
(8.154861 0.003037665 0)
(8.151904 0.003043422 0)
(8.148944 0.003048594 0)
(8.145982 0.003053239 0)
(8.143018 0.003057408 0)
(8.140053 0.003061146 0)
(8.137085 0.003064492 0)
(8.134117 0.003067481 0)
(8.131148 0.003070143 0)
(8.128178 0.003072506 0)
(8.125208 0.003074595 0)
(8.122237 0.00307643 0)
(8.119265 0.003078031 0)
(8.116294 0.003079417 0)
(8.113323 0.003080601 0)
(8.110351 0.003081599 0)
(8.10738 0.003082424 0)
(8.104409 0.003083086 0)
(8.101439 0.003083597 0)
(8.098469 0.003083965 0)
(8.095499 0.0030842 0)
(8.09253 0.003084309 0)
(8.089561 0.0030843 0)
(8.086593 0.003084178 0)
(8.083626 0.00308395 0)
(8.08066 0.003083622 0)
(8.077694 0.003083198 0)
(8.07473 0.003082682 0)
(8.071766 0.003082079 0)
(8.068803 0.003081392 0)
(8.065841 0.003080624 0)
(8.06288 0.003079778 0)
(8.059921 0.003078857 0)
(8.056962 0.003077862 0)
(8.054005 0.003076797 0)
(8.051049 0.003075661 0)
(8.048094 0.003074457 0)
(8.04514 0.003073186 0)
(8.042188 0.003071847 0)
(8.039238 0.003070442 0)
(8.036289 0.003068969 0)
(8.033341 0.00306743 0)
(8.030395 0.003065822 0)
(8.027451 0.003064145 0)
(8.024508 0.003062398 0)
(8.021568 0.003060577 0)
(8.018629 0.003058681 0)
(8.015692 0.003056706 0)
(8.012758 0.003054649 0)
(8.009826 0.003052505 0)
(8.006896 0.003050268 0)
(8.003969 0.003047933 0)
(8.001044 0.003045491 0)
(7.998123 0.003042935 0)
(7.995204 0.003040254 0)
(7.992289 0.003037436 0)
(7.989377 0.003034466 0)
(7.98647 0.003031329 0)
(7.983566 0.003028003 0)
(7.980667 0.003024466 0)
(7.977773 0.003020688 0)
(7.974884 0.003016635 0)
(7.972001 0.003012265 0)
(7.969125 0.003007524 0)
(7.966257 0.003002347 0)
(7.963396 0.002996652 0)
(7.960546 0.002990332 0)
(7.957706 0.002983248 0)
(7.954878 0.002975216 0)
(7.952065 0.00296598 0)
(7.949269 0.002955185 0)
(7.946494 0.002942308 0)
(7.943744 0.002926546 0)
(7.941026 0.002906605 0)
(7.938349 0.002880249 0)
(7.935727 0.002843411 0)
(7.933183 0.002787911 0)
(7.930758 0.002697812 0)
(7.928506 0.002532849 0)
(7.926647 0.002228623 0)
(7.925083 0.001496315 0)
(12.05758 0.00277686 0)
(9.031104 0.003680468 0)
(7.812161 0.003310936 0)
(8.137346 0.003270792 0)
(8.261141 0.00338187 0)
(8.226726 0.003440467 0)
(8.214562 0.003472289 0)
(8.218539 0.003501227 0)
(8.220025 0.003525211 0)
(8.219834 0.003543223 0)
(8.219893 0.003556926 0)
(8.220105 0.003567514 0)
(8.220272 0.003575647 0)
(8.220409 0.003581848 0)
(8.220539 0.003586538 0)
(8.220661 0.003590042 0)
(8.220774 0.0035926 0)
(8.220879 0.003594403 0)
(8.220978 0.003595598 0)
(8.221069 0.0035963 0)
(8.221155 0.003596602 0)
(8.221236 0.003596577 0)
(8.221311 0.003596283 0)
(8.221382 0.003595768 0)
(8.221449 0.003595071 0)
(8.221511 0.003594224 0)
(8.22157 0.003593253 0)
(8.221624 0.00359218 0)
(8.221676 0.003591022 0)
(8.221724 0.003589795 0)
(8.221768 0.003588511 0)
(8.22181 0.00358718 0)
(8.221849 0.00358581 0)
(8.221885 0.00358441 0)
(8.221919 0.003582986 0)
(8.22195 0.003581541 0)
(8.221978 0.00358008 0)
(8.222004 0.003578606 0)
(8.222028 0.003577122 0)
(8.222049 0.003575629 0)
(8.222068 0.00357413 0)
(8.222085 0.003572624 0)
(8.2221 0.003571113 0)
(8.222113 0.003569596 0)
(8.222124 0.003568073 0)
(8.222133 0.003566543 0)
(8.22214 0.003565006 0)
(8.222146 0.003563459 0)
(8.222149 0.003561902 0)
(8.222151 0.003560332 0)
(8.222151 0.003558746 0)
(8.22215 0.003557142 0)
(8.222147 0.003555517 0)
(8.222142 0.003553867 0)
(8.222136 0.003552188 0)
(8.222129 0.003550476 0)
(8.22212 0.003548726 0)
(8.222109 0.003546933 0)
(8.222098 0.00354509 0)
(8.222085 0.003543191 0)
(8.222071 0.003541229 0)
(8.222056 0.003539195 0)
(8.22204 0.00353708 0)
(8.222024 0.003534875 0)
(8.222006 0.003532567 0)
(8.221987 0.003530144 0)
(8.221968 0.003527593 0)
(8.221948 0.003524898 0)
(8.221928 0.00352204 0)
(8.221908 0.003518999 0)
(8.221887 0.003515753 0)
(8.221867 0.003512276 0)
(8.221846 0.003508538 0)
(8.221826 0.003504504 0)
(8.221807 0.003500137 0)
(8.221789 0.003495388 0)
(8.221771 0.003490206 0)
(8.221755 0.003484527 0)
(8.221741 0.003478276 0)
(8.221729 0.003471365 0)
(8.22172 0.003463688 0)
(8.221714 0.003455113 0)
(8.221712 0.003445482 0)
(8.221714 0.003434597 0)
(8.221722 0.003422209 0)
(8.221737 0.003408001 0)
(8.221759 0.003391562 0)
(8.221791 0.00337235 0)
(8.221834 0.003349633 0)
(8.221891 0.003322401 0)
(8.221964 0.003289219 0)
(8.222058 0.003247984 0)
(8.222178 0.003195504 0)
(8.222331 0.003126711 0)
(8.222524 0.003033282 0)
(8.222769 0.002900525 0)
(8.223078 0.002702908 0)
(8.22346 0.0023859 0)
(8.223893 0.001868568 0)
(8.224365 0.0008477773 0)
(12.05521 9.220412e-05 0)
(9.028647 0.001150438 0)
(7.808979 0.001588919 0)
(8.134261 0.001834085 0)
(8.258095 0.002063721 0)
(8.223632 0.002230611 0)
(8.211455 0.002348934 0)
(8.21544 0.002442596 0)
(8.216941 0.002519039 0)
(8.216767 0.002581779 0)
(8.216848 0.002634292 0)
(8.217084 0.002679076 0)
(8.217279 0.002717769 0)
(8.217447 0.002751559 0)
(8.217609 0.00278135 0)
(8.217766 0.002807834 0)
(8.217916 0.002831544 0)
(8.21806 0.002852903 0)
(8.218198 0.002872249 0)
(8.218333 0.002889857 0)
(8.218463 0.002905954 0)
(8.218589 0.002920728 0)
(8.218712 0.002934335 0)
(8.218833 0.002946909 0)
(8.21895 0.002958563 0)
(8.219066 0.002969394 0)
(8.219179 0.002979485 0)
(8.21929 0.002988909 0)
(8.2194 0.00299773 0)
(8.219508 0.003006002 0)
(8.219614 0.003013774 0)
(8.219719 0.003021088 0)
(8.219824 0.003027983 0)
(8.219926 0.003034492 0)
(8.220028 0.003040645 0)
(8.22013 0.003046467 0)
(8.22023 0.003051983 0)
(8.22033 0.003057213 0)
(8.220429 0.003062176 0)
(8.220527 0.003066889 0)
(8.220625 0.003071366 0)
(8.220722 0.00307562 0)
(8.220819 0.003079663 0)
(8.220916 0.003083505 0)
(8.221012 0.003087155 0)
(8.221108 0.003090621 0)
(8.221204 0.003093908 0)
(8.2213 0.003097023 0)
(8.221396 0.00309997 0)
(8.221491 0.003102751 0)
(8.221587 0.00310537 0)
(8.221682 0.003107828 0)
(8.221778 0.003110125 0)
(8.221873 0.003112261 0)
(8.221969 0.003114234 0)
(8.222065 0.003116042 0)
(8.222161 0.003117681 0)
(8.222258 0.003119147 0)
(8.222354 0.003120434 0)
(8.222451 0.003121534 0)
(8.222549 0.003122439 0)
(8.222647 0.00312314 0)
(8.222746 0.003123624 0)
(8.222845 0.003123877 0)
(8.222945 0.003123885 0)
(8.223046 0.00312363 0)
(8.223147 0.003123091 0)
(8.22325 0.003122244 0)
(8.223353 0.003121064 0)
(8.223458 0.003119519 0)
(8.223565 0.003117574 0)
(8.223672 0.00311519 0)
(8.223782 0.00311232 0)
(8.223893 0.003108909 0)
(8.224006 0.003104896 0)
(8.224122 0.003100208 0)
(8.22424 0.003094761 0)
(8.224361 0.003088453 0)
(8.224484 0.003081167 0)
(8.224612 0.003072761 0)
(8.224743 0.003063065 0)
(8.224879 0.003051872 0)
(8.22502 0.00303893 0)
(8.225166 0.003023928 0)
(8.225319 0.003006476 0)
(8.225479 0.00298608 0)
(8.225647 0.002962105 0)
(8.225825 0.002933726 0)
(8.226014 0.002899846 0)
(8.226216 0.002858983 0)
(8.226433 0.002809095 0)
(8.226668 0.002747307 0)
(8.226925 0.002669487 0)
(8.227206 0.002569578 0)
(8.227517 0.002438584 0)
(8.22786 0.002262934 0)
(8.228237 0.002022694 0)
(8.228644 0.001688121 0)
(8.229042 0.001223439 0)
(8.22942 0.0005881538 0)
(12.05623 0.0009085335 0)
(9.029528 0.001791951 0)
(7.809402 0.002186221 0)
(8.134494 0.002388025 0)
(8.258267 0.002572818 0)
(8.223742 0.002721362 0)
(8.211517 0.002831061 0)
(8.215471 0.002917555 0)
(8.216947 0.002988312 0)
(8.216754 0.003046325 0)
(8.216819 0.003094252 0)
(8.217042 0.003134283 0)
(8.217226 0.003167982 0)
(8.217384 0.003196522 0)
(8.217537 0.003220828 0)
(8.217686 0.003241627 0)
(8.217829 0.003259501 0)
(8.217967 0.003274914 0)
(8.2181 0.003288246 0)
(8.218229 0.003299805 0)
(8.218354 0.003309847 0)
(8.218476 0.003318582 0)
(8.218595 0.003326188 0)
(8.218712 0.003332813 0)
(8.218826 0.003338582 0)
(8.218938 0.003343602 0)
(8.219048 0.003347962 0)
(8.219156 0.003351742 0)
(8.219263 0.003355008 0)
(8.219368 0.003357818 0)
(8.219472 0.00336022 0)
(8.219575 0.00336226 0)
(8.219676 0.003363974 0)
(8.219777 0.003365394 0)
(8.219877 0.003366551 0)
(8.219976 0.003367468 0)
(8.220075 0.003368168 0)
(8.220173 0.003368669 0)
(8.22027 0.003368987 0)
(8.220367 0.003369137 0)
(8.220464 0.003369131 0)
(8.22056 0.003368979 0)
(8.220655 0.003368691 0)
(8.220751 0.003368273 0)
(8.220846 0.003367731 0)
(8.220941 0.00336707 0)
(8.221036 0.003366293 0)
(8.221131 0.003365402 0)
(8.221226 0.003364399 0)
(8.221321 0.003363283 0)
(8.221415 0.003362054 0)
(8.22151 0.003360708 0)
(8.221605 0.003359244 0)
(8.2217 0.003357655 0)
(8.221796 0.003355938 0)
(8.221891 0.003354085 0)
(8.221987 0.003352088 0)
(8.222083 0.003349937 0)
(8.22218 0.003347623 0)
(8.222277 0.003345131 0)
(8.222375 0.003342449 0)
(8.222473 0.00333956 0)
(8.222572 0.003336446 0)
(8.222671 0.003333086 0)
(8.222771 0.003329458 0)
(8.222872 0.003325534 0)
(8.222974 0.003321285 0)
(8.223077 0.003316678 0)
(8.223181 0.003311675 0)
(8.223287 0.003306233 0)
(8.223393 0.003300303 0)
(8.223502 0.003293829 0)
(8.223612 0.003286747 0)
(8.223723 0.003278984 0)
(8.223837 0.003270455 0)
(8.223953 0.003261061 0)
(8.224072 0.003250689 0)
(8.224193 0.003239204 0)
(8.224317 0.003226448 0)
(8.224445 0.003212233 0)
(8.224577 0.003196336 0)
(8.224712 0.003178486 0)
(8.224853 0.003158356 0)
(8.224999 0.003135544 0)
(8.22515 0.003109553 0)
(8.225309 0.00307976 0)
(8.225475 0.003045379 0)
(8.225649 0.003005399 0)
(8.225834 0.00295851 0)
(8.226029 0.002902986 0)
(8.226238 0.002836526 0)
(8.22646 0.002756015 0)
(8.226699 0.002657194 0)
(8.226954 0.002534175 0)
(8.227228 0.002378805 0)
(8.227517 0.002179813 0)
(8.227817 0.001922089 0)
(8.228117 0.001586178 0)
(8.228376 0.001150865 0)
(8.228599 0.0006053774 0)
(12.05618 0.0004679642 0)
(9.029391 0.0009688607 0)
(7.809085 0.001273049 0)
(8.134154 0.001484241 0)
(8.257935 0.001682621 0)
(8.223395 0.001852937 0)
(8.211154 0.001989658 0)
(8.215099 0.002102468 0)
(8.21657 0.002197623 0)
(8.216372 0.002278178 0)
(8.216433 0.002346811 0)
(8.216654 0.002405843 0)
(8.216836 0.002457047 0)
(8.216993 0.002501787 0)
(8.217147 0.00254115 0)
(8.217296 0.002576003 0)
(8.217439 0.002607043 0)
(8.217577 0.002634832 0)
(8.21771 0.00265983 0)
(8.21784 0.002682416 0)
(8.217966 0.002702904 0)
(8.218089 0.002721555 0)
(8.218209 0.002738591 0)
(8.218326 0.002754199 0)
(8.218441 0.002768538 0)
(8.218554 0.002781746 0)
(8.218665 0.002793939 0)
(8.218774 0.002805221 0)
(8.218881 0.002815679 0)
(8.218987 0.002825392 0)
(8.219092 0.002834428 0)
(8.219196 0.002842845 0)
(8.219298 0.002850698 0)
(8.2194 0.002858031 0)
(8.219501 0.002864887 0)
(8.219601 0.002871302 0)
(8.2197 0.002877308 0)
(8.219798 0.002882933 0)
(8.219896 0.002888203 0)
(8.219994 0.00289314 0)
(8.220091 0.002897764 0)
(8.220187 0.002902091 0)
(8.220284 0.002906137 0)
(8.22038 0.002909916 0)
(8.220476 0.002913437 0)
(8.220571 0.00291671 0)
(8.220667 0.002919742 0)
(8.220762 0.00292254 0)
(8.220857 0.002925109 0)
(8.220952 0.00292745 0)
(8.221048 0.002929565 0)
(8.221143 0.002931455 0)
(8.221238 0.002933117 0)
(8.221334 0.002934549 0)
(8.22143 0.002935745 0)
(8.221526 0.002936701 0)
(8.221622 0.002937406 0)
(8.221718 0.002937853 0)
(8.221815 0.002938029 0)
(8.221912 0.00293792 0)
(8.22201 0.00293751 0)
(8.222109 0.002936781 0)
(8.222207 0.002935712 0)
(8.222307 0.002934278 0)
(8.222407 0.002932451 0)
(8.222508 0.002930201 0)
(8.22261 0.002927491 0)
(8.222713 0.002924281 0)
(8.222817 0.002920525 0)
(8.222923 0.00291617 0)
(8.223029 0.002911157 0)
(8.223137 0.002905417 0)
(8.223247 0.002898873 0)
(8.223358 0.002891433 0)
(8.223471 0.002882995 0)
(8.223587 0.002873439 0)
(8.223704 0.002862625 0)
(8.223825 0.002850389 0)
(8.223948 0.002836541 0)
(8.224074 0.002820855 0)
(8.224204 0.002803061 0)
(8.224338 0.002782837 0)
(8.224476 0.002759795 0)
(8.224618 0.002733465 0)
(8.224766 0.002703269 0)
(8.224921 0.002668494 0)
(8.225081 0.002628252 0)
(8.225249 0.002581425 0)
(8.225426 0.002526596 0)
(8.225611 0.00246195 0)
(8.225806 0.002385149 0)
(8.226012 0.002293164 0)
(8.226229 0.002182067 0)
(8.226457 0.002046784 0)
(8.226694 0.001880863 0)
(8.226938 0.001676356 0)
(8.227181 0.001424052 0)
(8.227413 0.00111491 0)
(8.227605 0.000741829 0)
(8.227764 0.000313128 0)
(12.05659 0.0005310128 0)
(9.029826 0.001051536 0)
(7.809424 0.001400958 0)
(8.134411 0.001661109 0)
(8.258144 0.001888442 0)
(8.223557 0.002079792 0)
(8.211274 0.002234897 0)
(8.215187 0.002362711 0)
(8.216631 0.002469847 0)
(8.216412 0.002560142 0)
(8.216455 0.002636677 0)
(8.216661 0.002702026 0)
(8.21683 0.002758189 0)
(8.216977 0.002806724 0)
(8.217121 0.002848877 0)
(8.217262 0.002885653 0)
(8.217397 0.002917866 0)
(8.217529 0.002946184 0)
(8.217657 0.002971156 0)
(8.217781 0.002993238 0)
(8.217903 0.003012813 0)
(8.218022 0.003030201 0)
(8.218138 0.003045674 0)
(8.218252 0.003059463 0)
(8.218363 0.003071766 0)
(8.218473 0.003082754 0)
(8.218581 0.003092572 0)
(8.218688 0.003101347 0)
(8.218793 0.00310919 0)
(8.218897 0.003116196 0)
(8.219 0.00312245 0)
(8.219102 0.003128025 0)
(8.219203 0.003132986 0)
(8.219303 0.003137389 0)
(8.219402 0.003141285 0)
(8.2195 0.003144717 0)
(8.219598 0.003147724 0)
(8.219695 0.00315034 0)
(8.219792 0.003152596 0)
(8.219888 0.003154516 0)
(8.219984 0.003156125 0)
(8.22008 0.003157442 0)
(8.220175 0.003158484 0)
(8.22027 0.003159266 0)
(8.220365 0.0031598 0)
(8.22046 0.003160096 0)
(8.220554 0.003160162 0)
(8.220649 0.003160004 0)
(8.220743 0.003159627 0)
(8.220838 0.003159032 0)
(8.220932 0.00315822 0)
(8.221027 0.003157191 0)
(8.221121 0.00315594 0)
(8.221216 0.003154464 0)
(8.221311 0.003152755 0)
(8.221406 0.003150806 0)
(8.221502 0.003148605 0)
(8.221598 0.00314614 0)
(8.221694 0.003143395 0)
(8.22179 0.003140354 0)
(8.221887 0.003136997 0)
(8.221985 0.0031333 0)
(8.222083 0.003129237 0)
(8.222182 0.003124779 0)
(8.222281 0.003119891 0)
(8.222382 0.003114537 0)
(8.222483 0.003108673 0)
(8.222585 0.003102249 0)
(8.222688 0.003095213 0)
(8.222792 0.0030875 0)
(8.222898 0.00307904 0)
(8.223004 0.003069752 0)
(8.223113 0.003059544 0)
(8.223223 0.003048312 0)
(8.223335 0.003035933 0)
(8.223448 0.00302227 0)
(8.223564 0.00300716 0)
(8.223683 0.002990416 0)
(8.223804 0.002971819 0)
(8.223928 0.002951113 0)
(8.224055 0.002927995 0)
(8.224185 0.002902104 0)
(8.22432 0.002873012 0)
(8.224459 0.002840202 0)
(8.224602 0.002803052 0)
(8.224751 0.002760801 0)
(8.224905 0.002712521 0)
(8.225065 0.002657066 0)
(8.225232 0.002593017 0)
(8.225406 0.002518612 0)
(8.225587 0.002431655 0)
(8.225775 0.002329412 0)
(8.22597 0.002208506 0)
(8.226172 0.002064819 0)
(8.226376 0.001893456 0)
(8.22658 0.001688896 0)
(8.226775 0.0014454 0)
(8.226954 0.001158421 0)
(8.227094 0.0008254946 0)
(8.227206 0.0004559682 0)
(12.05668 0.0003941979 0)
(9.029859 0.0007802549 0)
(7.809339 0.001038858 0)
(8.134279 0.001241427 0)
(8.25799 0.001426575 0)
(8.223377 0.001588921 0)
(8.211073 0.001726216 0)
(8.21497 0.001843528 0)
(8.216403 0.001944886 0)
(8.216175 0.00203267 0)
(8.216211 0.002108924 0)
(8.216411 0.002175487 0)
(8.216577 0.00223387 0)
(8.21672 0.002285308 0)
(8.216862 0.002330825 0)
(8.217001 0.002371271 0)
(8.217135 0.002407356 0)
(8.217266 0.002439672 0)
(8.217393 0.002468716 0)
(8.217518 0.002494904 0)
(8.217639 0.002518592 0)
(8.217758 0.002540079 0)
(8.217874 0.002559621 0)
(8.217988 0.00257744 0)
(8.2181 0.002593723 0)
(8.218211 0.002608635 0)
(8.218319 0.002622316 0)
(8.218426 0.002634892 0)
(8.218532 0.002646469 0)
(8.218637 0.002657142 0)
(8.21874 0.002666994 0)
(8.218842 0.002676097 0)
(8.218944 0.002684518 0)
(8.219044 0.002692311 0)
(8.219144 0.002699528 0)
(8.219243 0.002706213 0)
(8.219342 0.002712405 0)
(8.219439 0.002718139 0)
(8.219537 0.002723446 0)
(8.219634 0.002728352 0)
(8.21973 0.002732882 0)
(8.219826 0.002737055 0)
(8.219922 0.002740889 0)
(8.220017 0.0027444 0)
(8.220113 0.0027476 0)
(8.220208 0.0027505 0)
(8.220303 0.002753108 0)
(8.220398 0.00275543 0)
(8.220493 0.00275747 0)
(8.220587 0.002759231 0)
(8.220682 0.002760712 0)
(8.220777 0.002761912 0)
(8.220872 0.002762828 0)
(8.220967 0.002763454 0)
(8.221062 0.002763781 0)
(8.221158 0.002763801 0)
(8.221254 0.002763502 0)
(8.22135 0.002762867 0)
(8.221446 0.002761882 0)
(8.221543 0.002760525 0)
(8.22164 0.002758774 0)
(8.221737 0.002756603 0)
(8.221835 0.002753981 0)
(8.221934 0.002750877 0)
(8.222034 0.00274725 0)
(8.222134 0.002743058 0)
(8.222235 0.002738253 0)
(8.222336 0.002732778 0)
(8.222439 0.002726572 0)
(8.222543 0.002719565 0)
(8.222648 0.002711677 0)
(8.222754 0.002702816 0)
(8.222862 0.002692879 0)
(8.222971 0.00268175 0)
(8.223082 0.002669292 0)
(8.223195 0.002655352 0)
(8.223309 0.002639751 0)
(8.223426 0.002622283 0)
(8.223545 0.002602709 0)
(8.223667 0.00258075 0)
(8.223792 0.002556078 0)
(8.22392 0.002528311 0)
(8.224051 0.002496993 0)
(8.224185 0.002461585 0)
(8.224324 0.002421443 0)
(8.224467 0.002375795 0)
(8.224615 0.002323716 0)
(8.224767 0.002264085 0)
(8.224924 0.002195552 0)
(8.225087 0.002116487 0)
(8.225254 0.002024926 0)
(8.225426 0.00191853 0)
(8.225602 0.001794547 0)
(8.225779 0.001649828 0)
(8.225956 0.001480917 0)
(8.226128 0.001284331 0)
(8.226289 0.001057026 0)
(8.226432 0.0007975749 0)
(8.226541 0.0005065254 0)
(8.226627 0.0001926907 0)
(12.05691 0.0003889571 0)
(9.030094 0.0007519379 0)
(7.809532 0.00101014 0)
(8.134442 0.001230609 0)
(8.258135 0.001436443 0)
(8.2235 0.001619811 0)
(8.211172 0.00177831 0)
(8.215049 0.001915815 0)
(8.216464 0.002035683 0)
(8.216219 0.002140189 0)
(8.216242 0.002231416 0)
(8.216429 0.00231128 0)
(8.216584 0.002381413 0)
(8.216717 0.002443187 0)
(8.216851 0.002497759 0)
(8.216982 0.002546109 0)
(8.21711 0.002589066 0)
(8.217234 0.002627328 0)
(8.217356 0.002661491 0)
(8.217476 0.00269206 0)
(8.217592 0.002719467 0)
(8.217707 0.002744083 0)
(8.21782 0.002766228 0)
(8.21793 0.002786176 0)
(8.218039 0.002804167 0)
(8.218147 0.002820409 0)
(8.218253 0.002835084 0)
(8.218357 0.002848349 0)
(8.218461 0.002860344 0)
(8.218563 0.002871193 0)
(8.218664 0.002881002 0)
(8.218765 0.002889868 0)
(8.218864 0.002897874 0)
(8.218963 0.002905096 0)
(8.219061 0.0029116 0)
(8.219159 0.002917444 0)
(8.219256 0.002922681 0)
(8.219352 0.002927356 0)
(8.219448 0.002931511 0)
(8.219544 0.002935182 0)
(8.219639 0.002938399 0)
(8.219734 0.002941192 0)
(8.219829 0.002943583 0)
(8.219924 0.002945594 0)
(8.220018 0.002947242 0)
(8.220112 0.002948542 0)
(8.220206 0.002949506 0)
(8.2203 0.002950144 0)
(8.220394 0.002950461 0)
(8.220488 0.002950464 0)
(8.220582 0.002950152 0)
(8.220676 0.002949528 0)
(8.22077 0.002948587 0)
(8.220865 0.002947324 0)
(8.220959 0.002945733 0)
(8.221054 0.002943803 0)
(8.221149 0.002941521 0)
(8.221244 0.002938872 0)
(8.221339 0.002935838 0)
(8.221435 0.002932396 0)
(8.221532 0.002928523 0)
(8.221628 0.002924189 0)
(8.221726 0.002919362 0)
(8.221824 0.002914004 0)
(8.221922 0.002908074 0)
(8.222021 0.002901524 0)
(8.222121 0.002894299 0)
(8.222222 0.002886341 0)
(8.222324 0.002877579 0)
(8.222426 0.002867938 0)
(8.22253 0.002857328 0)
(8.222635 0.002845652 0)
(8.222741 0.002832797 0)
(8.222849 0.002818635 0)
(8.222958 0.002803021 0)
(8.223068 0.002785788 0)
(8.223181 0.002766745 0)
(8.223296 0.002745674 0)
(8.223412 0.002722321 0)
(8.223531 0.002696395 0)
(8.223653 0.002667554 0)
(8.223777 0.002635404 0)
(8.223904 0.00259948 0)
(8.224034 0.002559242 0)
(8.224167 0.002514048 0)
(8.224304 0.002463148 0)
(8.224444 0.002405652 0)
(8.224588 0.002340512 0)
(8.224735 0.002266495 0)
(8.224886 0.002182151 0)
(8.22504 0.002085799 0)
(8.225196 0.00197551 0)
(8.225354 0.001849123 0)
(8.22551 0.001704305 0)
(8.225663 0.001538687 0)
(8.225808 0.001350126 0)
(8.225941 0.001137096 0)
(8.226056 0.0008995147 0)
(8.226142 0.0006388032 0)
(8.226209 0.0003620968 0)
(12.05703 0.0003258962 0)
(9.030186 0.0006298001 0)
(7.809561 0.0008436275 0)
(8.134441 0.001027928 0)
(8.258113 0.001201213 0)
(8.223453 0.001356603 0)
(8.211103 0.001492251 0)
(8.214962 0.001611226 0)
(8.216362 0.001716039 0)
(8.216104 0.001808359 0)
(8.216116 0.001889743 0)
(8.216295 0.001961655 0)
(8.216443 0.002025361 0)
(8.21657 0.00208194 0)
(8.216699 0.002132323 0)
(8.216826 0.002177307 0)
(8.216951 0.002217576 0)
(8.217073 0.002253717 0)
(8.217192 0.002286231 0)
(8.21731 0.002315552 0)
(8.217425 0.002342051 0)
(8.217539 0.00236605 0)
(8.21765 0.002387828 0)
(8.21776 0.002407625 0)
(8.217869 0.002425654 0)
(8.217976 0.002442096 0)
(8.218082 0.002457112 0)
(8.218186 0.002470844 0)
(8.218289 0.002483414 0)
(8.218392 0.002494933 0)
(8.218493 0.002505495 0)
(8.218594 0.002515186 0)
(8.218694 0.002524082 0)
(8.218793 0.002532247 0)
(8.218891 0.002539742 0)
(8.218989 0.002546618 0)
(8.219086 0.002552922 0)
(8.219183 0.002558694 0)
(8.219279 0.00256397 0)
(8.219375 0.002568781 0)
(8.219471 0.002573156 0)
(8.219566 0.002577117 0)
(8.219661 0.002580686 0)
(8.219756 0.00258388 0)
(8.21985 0.002586713 0)
(8.219945 0.002589198 0)
(8.220039 0.002591343 0)
(8.220134 0.002593155 0)
(8.220228 0.002594638 0)
(8.220322 0.002595794 0)
(8.220416 0.002596623 0)
(8.22051 0.002597121 0)
(8.220605 0.002597284 0)
(8.220699 0.002597104 0)
(8.220794 0.00259657 0)
(8.220889 0.00259567 0)
(8.220984 0.002594388 0)
(8.221079 0.002592706 0)
(8.221174 0.002590603 0)
(8.22127 0.002588053 0)
(8.221367 0.002585029 0)
(8.221463 0.002581497 0)
(8.22156 0.002577421 0)
(8.221658 0.002572761 0)
(8.221756 0.002567469 0)
(8.221855 0.002561493 0)
(8.221955 0.002554774 0)
(8.222055 0.002547246 0)
(8.222156 0.002538835 0)
(8.222258 0.002529457 0)
(8.222361 0.002519018 0)
(8.222465 0.002507411 0)
(8.22257 0.002494517 0)
(8.222677 0.0024802 0)
(8.222785 0.002464305 0)
(8.222894 0.002446658 0)
(8.223005 0.002427059 0)
(8.223117 0.00240528 0)
(8.223232 0.002381061 0)
(8.223348 0.002354103 0)
(8.223467 0.00232406 0)
(8.223587 0.002290536 0)
(8.22371 0.002253071 0)
(8.223836 0.002211133 0)
(8.223964 0.002164106 0)
(8.224095 0.002111276 0)
(8.224228 0.002051816 0)
(8.224364 0.001984771 0)
(8.224502 0.001909045 0)
(8.224642 0.001823389 0)
(8.224784 0.001726404 0)
(8.224926 0.001616547 0)
(8.225067 0.001492177 0)
(8.225205 0.001351635 0)
(8.225339 0.001193385 0)
(8.225463 0.001016247 0)
(8.225575 0.0008196922 0)
(8.22567 0.0006044117 0)
(8.22574 0.0003722118 0)
(8.225794 0.0001288078 0)
(12.05719 0.000306687 0)
(9.030335 0.0005862091 0)
(7.809679 0.0007876598 0)
(8.134544 0.0009694881 0)
(8.258206 0.001145217 0)
(8.223534 0.001306958 0)
(8.21117 0.001452125 0)
(8.215016 0.001582539 0)
(8.216404 0.001699737 0)
(8.216136 0.001804771 0)
(8.216138 0.001898778 0)
(8.216309 0.001982929 0)
(8.216448 0.002058306 0)
(8.216568 0.002125887 0)
(8.21669 0.002186549 0)
(8.216811 0.002241073 0)
(8.21693 0.002290151 0)
(8.217047 0.002334389 0)
(8.217162 0.002374324 0)
(8.217276 0.002410423 0)
(8.217387 0.002443097 0)
(8.217497 0.002472708 0)
(8.217606 0.002499574 0)
(8.217713 0.002523973 0)
(8.217818 0.002546152 0)
(8.217923 0.002566328 0)
(8.218026 0.002584693 0)
(8.218128 0.002601419 0)
(8.21823 0.002616655 0)
(8.21833 0.002630537 0)
(8.21843 0.002643184 0)
(8.218528 0.002654703 0)
(8.218626 0.002665188 0)
(8.218724 0.002674724 0)
(8.218821 0.002683387 0)
(8.218917 0.002691245 0)
(8.219013 0.002698357 0)
(8.219109 0.002704777 0)
(8.219204 0.002710553 0)
(8.219299 0.002715727 0)
(8.219393 0.002720336 0)
(8.219487 0.002724414 0)
(8.219581 0.002727988 0)
(8.219675 0.002731085 0)
(8.219769 0.002733724 0)
(8.219863 0.002735925 0)
(8.219956 0.002737701 0)
(8.220049 0.002739065 0)
(8.220143 0.002740024 0)
(8.220236 0.002740585 0)
(8.22033 0.00274075 0)
(8.220423 0.00274052 0)
(8.220517 0.002739892 0)
(8.22061 0.002738861 0)
(8.220704 0.002737417 0)
(8.220798 0.00273555 0)
(8.220892 0.002733245 0)
(8.220987 0.002730485 0)
(8.221082 0.002727248 0)
(8.221177 0.002723508 0)
(8.221272 0.002719239 0)
(8.221368 0.002714405 0)
(8.221464 0.00270897 0)
(8.221561 0.002702891 0)
(8.221658 0.002696119 0)
(8.221756 0.002688599 0)
(8.221854 0.002680271 0)
(8.221953 0.002671065 0)
(8.222053 0.002660903 0)
(8.222154 0.002649698 0)
(8.222255 0.002637352 0)
(8.222358 0.002623754 0)
(8.222462 0.002608781 0)
(8.222566 0.002592291 0)
(8.222672 0.002574126 0)
(8.222779 0.002554107 0)
(8.222888 0.00253203 0)
(8.222998 0.002507666 0)
(8.223109 0.002480752 0)
(8.223222 0.00245099 0)
(8.223337 0.002418038 0)
(8.223454 0.00238151 0)
(8.223573 0.002340959 0)
(8.223693 0.00229588 0)
(8.223816 0.002245693 0)
(8.22394 0.002189738 0)
(8.224066 0.002127264 0)
(8.224194 0.002057426 0)
(8.224323 0.001979275 0)
(8.224453 0.001891764 0)
(8.224583 0.001793756 0)
(8.224712 0.001684051 0)
(8.224838 0.001561437 0)
(8.224961 0.001424772 0)
(8.225077 0.001273106 0)
(8.225185 0.001105867 0)
(8.225279 0.0009230645 0)
(8.225359 0.0007256702 0)
(8.225417 0.0005154435 0)
(8.225461 0.000296901 0)
(12.0573 0.0002714841 0)
(9.030432 0.0005177781 0)
(7.809739 0.0006945112 0)
(8.134586 0.0008550926 0)
(8.258235 0.001010647 0)
(8.223546 0.00115391 0)
(8.211164 0.001282681 0)
(8.214995 0.001398548 0)
(8.21637 0.001502809 0)
(8.216089 0.001596353 0)
(8.21608 0.001680153 0)
(8.216241 0.001755222 0)
(8.216372 0.001822501 0)
(8.216485 0.00188284 0)
(8.2166 0.001937011 0)
(8.216716 0.001985703 0)
(8.21683 0.002029527 0)
(8.216943 0.002069024 0)
(8.217054 0.002104671 0)
(8.217165 0.002136889 0)
(8.217274 0.002166047 0)
(8.217381 0.002192468 0)
(8.217488 0.002216441 0)
(8.217593 0.002238216 0)
(8.217698 0.002258016 0)
(8.217801 0.002276037 0)
(8.217903 0.002292453 0)
(8.218005 0.002307416 0)
(8.218105 0.002321064 0)
(8.218205 0.002333516 0)
(8.218304 0.00234488 0)
(8.218403 0.00235525 0)
(8.2185 0.002364712 0)
(8.218598 0.002373341 0)
(8.218694 0.002381203 0)
(8.218791 0.002388358 0)
(8.218886 0.002394859 0)
(8.218982 0.002400751 0)
(8.219077 0.002406077 0)
(8.219172 0.002410873 0)
(8.219266 0.00241517 0)
(8.219361 0.002418995 0)
(8.219455 0.002422373 0)
(8.219549 0.002425324 0)
(8.219642 0.002427863 0)
(8.219736 0.002430005 0)
(8.21983 0.002431761 0)
(8.219923 0.002433137 0)
(8.220017 0.002434138 0)
(8.22011 0.002434768 0)
(8.220204 0.002435024 0)
(8.220297 0.002434903 0)
(8.220391 0.0024344 0)
(8.220484 0.002433505 0)
(8.220578 0.002432207 0)
(8.220672 0.002430491 0)
(8.220766 0.002428338 0)
(8.220861 0.002425728 0)
(8.220955 0.002422636 0)
(8.22105 0.002419033 0)
(8.221145 0.002414887 0)
(8.221241 0.002410162 0)
(8.221337 0.002404816 0)
(8.221433 0.002398801 0)
(8.22153 0.002392066 0)
(8.221627 0.002384553 0)
(8.221725 0.002376194 0)
(8.221824 0.002366918 0)
(8.221923 0.002356642 0)
(8.222023 0.002345274 0)
(8.222123 0.002332713 0)
(8.222225 0.002318842 0)
(8.222327 0.002303534 0)
(8.222431 0.002286644 0)
(8.222535 0.00226801 0)
(8.22264 0.002247452 0)
(8.222747 0.002224763 0)
(8.222855 0.002199714 0)
(8.222964 0.002172045 0)
(8.223074 0.002141461 0)
(8.223186 0.002107633 0)
(8.223299 0.002070185 0)
(8.223414 0.002028695 0)
(8.22353 0.001982689 0)
(8.223647 0.00193163 0)
(8.223765 0.001874919 0)
(8.223885 0.001811889 0)
(8.224005 0.001741802 0)
(8.224126 0.001663854 0)
(8.224246 0.001577181 0)
(8.224366 0.00148088 0)
(8.224483 0.001374038 0)
(8.224598 0.001255784 0)
(8.224707 0.001125366 0)
(8.22481 0.0009822506 0)
(8.224903 0.0008262622 0)
(8.224985 0.0006577258 0)
(8.225053 0.0004777125 0)
(8.225102 0.0002878492 0)
(8.225139 9.173303e-05 0)
(12.05742 0.000251894 0)
(9.030542 0.0004777539 0)
(7.809824 0.0006415321 0)
(8.134662 0.0007938562 0)
(8.258305 0.0009439462 0)
(8.223606 0.001084754 0)
(8.211215 0.001213986 0)
(8.215037 0.001332639 0)
(8.216403 0.001441449 0)
(8.216114 0.001540852 0)
(8.216098 0.001631436 0)
(8.216252 0.001713888 0)
(8.216376 0.00178889 0)
(8.216483 0.001857091 0)
(8.216593 0.001919111 0)
(8.216704 0.001975524 0)
(8.216814 0.002026862 0)
(8.216923 0.002073607 0)
(8.217031 0.0021162 0)
(8.217138 0.002155035 0)
(8.217244 0.00219047 0)
(8.217349 0.002222825 0)
(8.217453 0.002252388 0)
(8.217555 0.002279416 0)
(8.217657 0.002304141 0)
(8.217759 0.002326769 0)
(8.217859 0.002347487 0)
(8.217958 0.002366461 0)
(8.218057 0.002383841 0)
(8.218155 0.002399761 0)
(8.218253 0.002414342 0)
(8.21835 0.002427692 0)
(8.218446 0.002439908 0)
(8.218542 0.002451078 0)
(8.218638 0.002461281 0)
(8.218733 0.002470588 0)
(8.218828 0.002479061 0)
(8.218922 0.002486758 0)
(8.219016 0.002493728 0)
(8.21911 0.002500018 0)
(8.219204 0.002505667 0)
(8.219297 0.00251071 0)
(8.21939 0.002515179 0)
(8.219483 0.0025191 0)
(8.219576 0.002522496 0)
(8.219669 0.002525387 0)
(8.219762 0.002527788 0)
(8.219854 0.002529713 0)
(8.219947 0.002531169 0)
(8.22004 0.002532165 0)
(8.220132 0.002532702 0)
(8.220225 0.00253278 0)
(8.220318 0.002532397 0)
(8.220411 0.002531547 0)
(8.220504 0.002530219 0)
(8.220597 0.002528402 0)
(8.220691 0.002526078 0)
(8.220784 0.002523229 0)
(8.220878 0.002519831 0)
(8.220972 0.002515857 0)
(8.221066 0.002511274 0)
(8.221161 0.002506046 0)
(8.221256 0.002500133 0)
(8.221351 0.002493487 0)
(8.221447 0.002486056 0)
(8.221543 0.00247778 0)
(8.22164 0.002468594 0)
(8.221737 0.002458423 0)
(8.221835 0.002447184 0)
(8.221934 0.002434785 0)
(8.222033 0.002421123 0)
(8.222133 0.002406083 0)
(8.222233 0.002389535 0)
(8.222335 0.002371335 0)