/*--------------------------------*- C++ -*----------------------------------*\
| =========                 |                                                 |
| \\      /  F ield         | OpenFOAM: The Open Source CFD Toolbox           |
|  \\    /   O peration     | Version:  2.3.0                                 |
|   \\  /    A nd           | Web:      www.OpenFOAM.org                      |
|    \\/     M anipulation  |                                                 |
\*---------------------------------------------------------------------------*/
FoamFile
{
    version     2.0;
    format      ascii;
    class       surfaceScalarField;
    location    "9900/topAir";
    object      phi;
}
// * * * * * * * * * * * * * * * * * * * * * * * * * * * * * * * * * * * * * //

dimensions      [1 0 -1 0 0 0 0];

internalField   nonuniform List<scalar> 
7860
(
0.00895508
4.282972e-06
0.008951276
3.805531e-06
0.008948265
3.013394e-06
0.008945181
3.086353e-06
0.008941963
3.219548e-06
0.008938705
3.25862e-06
0.008935422
3.283859e-06
0.008932109
3.312617e-06
0.008928772
3.336999e-06
0.008925416
3.356179e-06
0.008922044
3.371922e-06
0.008918659
3.385066e-06
0.008915263
3.396024e-06
0.008911857
3.405189e-06
0.008908444
3.412893e-06
0.008905024
3.419393e-06
0.008901599
3.424887e-06
0.00889817
3.429536e-06
0.008894736
3.43347e-06
0.008891299
3.436794e-06
0.008887859
3.439593e-06
0.008884417
3.441938e-06
0.008880973
3.443889e-06
0.008877527
3.445495e-06
0.00887408
3.446798e-06
0.008870632
3.447833e-06
0.008867183
3.44863e-06
0.008863734
3.449216e-06
0.008860284
3.449614e-06
0.008856834
3.449841e-06
0.008853384
3.449916e-06
0.008849934
3.449853e-06
0.008846485
3.449664e-06
0.008843035
3.449362e-06
0.008839586
3.448956e-06
0.008836137
3.448454e-06
0.00883269
3.447865e-06
0.008829242
3.447194e-06
0.008825796
3.446449e-06
0.00882235
3.445634e-06
0.008818905
3.444753e-06
0.008815461
3.443811e-06
0.008812018
3.442811e-06
0.008808577
3.441755e-06
0.008805136
3.440647e-06
0.008801696
3.439488e-06
0.008798258
3.438279e-06
0.008794821
3.437023e-06
0.008791385
3.435719e-06
0.008787951
3.434368e-06
0.008784518
3.432971e-06
0.008781086
3.431527e-06
0.008777656
3.430036e-06
0.008774227
3.428496e-06
0.008770801
3.426907e-06
0.008767375
3.425266e-06
0.008763952
3.423572e-06
0.00876053
3.421821e-06
0.00875711
3.420011e-06
0.008753692
3.418139e-06
0.008750275
3.4162e-06
0.008746861
3.41419e-06
0.008743449
3.412103e-06
0.008740039
3.409933e-06
0.008736631
3.407674e-06
0.008733226
3.405317e-06
0.008729823
3.402853e-06
0.008726423
3.400273e-06
0.008723025
3.397564e-06
0.00871963
3.394715e-06
0.008716239
3.391708e-06
0.00871285
3.388528e-06
0.008709465
3.385154e-06
0.008706083
3.381564e-06
0.008702706
3.377731e-06
0.008699332
3.373623e-06
0.008695963
3.369205e-06
0.008692598
3.364434e-06
0.008689239
3.359259e-06
0.008685885
3.353619e-06
0.008682538
3.347442e-06
0.008679197
3.340637e-06
0.008675864
3.333096e-06
0.008672539
3.324683e-06
0.008669224
3.315226e-06
0.00866592
3.304507e-06
0.008662627
3.292241e-06
0.008659349
3.278051e-06
0.008656088
3.261427e-06
0.008652846
3.241658e-06
0.008649628
3.217723e-06
0.00864644
3.188097e-06
0.00864329
3.150405e-06
0.008640189
3.100736e-06
0.008637157
3.032359e-06
0.008634224
2.932578e-06
0.008631446
2.778136e-06
0.008628932
2.513585e-06
0.008626875
2.057085e-06
1.036476e-06
0.008963993
5.90939e-07
0.008965394
2.407109e-06
0.008965819
2.590143e-06
0.008966263
2.64491e-06
0.008966677
2.807088e-06
0.008967014
2.922642e-06
0.008967299
2.99943e-06
0.008967549
3.06249e-06
0.008967772
3.114685e-06
0.008967971
3.157007e-06
0.00896815
3.191946e-06
0.008968314
3.221319e-06
0.008968464
3.246266e-06
0.008968601
3.267642e-06
0.008968727
3.286123e-06
0.008968844
3.302226e-06
0.008968953
3.316353e-06
0.008969053
3.328823e-06
0.008969147
3.339889e-06
0.008969233
3.349757e-06
0.008969314
3.358595e-06
0.008969389
3.366543e-06
0.008969459
3.373714e-06
0.008969524
3.380207e-06
0.008969585
3.386102e-06
0.008969641
3.39147e-06
0.008969693
3.396368e-06
0.008969741
3.400847e-06
0.008969786
3.404952e-06
0.008969827
3.408721e-06
0.008969865
3.412186e-06
0.008969899
3.415377e-06
0.00896993
3.418318e-06
0.008969958
3.421032e-06
0.008969984
3.423538e-06
0.008970006
3.425853e-06
0.008970026
3.427992e-06
0.008970043
3.429968e-06
0.008970058
3.431793e-06
0.00897007
3.433477e-06
0.008970079
3.435029e-06
0.008970087
3.436457e-06
0.008970092
3.437766e-06
0.008970094
3.438964e-06
0.008970095
3.440054e-06
0.008970093
3.441041e-06
0.00897009
3.441927e-06
0.008970084
3.442715e-06
0.008970076
3.443407e-06
0.008970066
3.444003e-06
0.008970055
3.444503e-06
0.008970041
3.444908e-06
0.008970026
3.445216e-06
0.008970009
3.445425e-06
0.008969991
3.445532e-06
0.00896997
3.445535e-06
0.008969948
3.445428e-06
0.008969925
3.445206e-06
0.0089699
3.444864e-06
0.008969874
3.444395e-06
0.008969846
3.443791e-06
0.008969817
3.443041e-06
0.008969787
3.442136e-06
0.008969756
3.441064e-06
0.008969724
3.43981e-06
0.008969691
3.43836e-06
0.008969657
3.436694e-06
0.008969622
3.434794e-06
0.008969587
3.432636e-06
0.008969552
3.430194e-06
0.008969516
3.427438e-06
0.00896948
3.424334e-06
0.008969444
3.420843e-06
0.008969409
3.416919e-06
0.008969374
3.412509e-06
0.00896934
3.407553e-06
0.008969307
3.401979e-06
0.008969276
3.395702e-06
0.008969247
3.388623e-06
0.00896922
3.380623e-06
0.008969196
3.371558e-06
0.008969175
3.361254e-06
0.008969159
3.349499e-06
0.008969147
3.336027e-06
0.008969142
3.320509e-06
0.008969144
3.302525e-06
0.008969155
3.281532e-06
0.008969176
3.256819e-06
0.00896921
3.227439e-06
0.008969259
3.192097e-06
0.008969328
3.148987e-06
0.00896942
3.095523e-06
0.008969543
3.027907e-06
0.008969703
2.940387e-06
0.008969912
2.824054e-06
0.00897018
2.664521e-06
0.008970519
2.438887e-06
0.008970926
2.106161e-06
0.008971374
1.609112e-06
8.01146e-07
0.008961414
8.709589e-07
0.008962142
1.681103e-06
0.008962697
2.037899e-06
0.00896311
2.233883e-06
0.008963481
2.438237e-06
0.008963807
2.597352e-06
0.008964096
2.71086e-06
0.008964358
2.800616e-06
0.008964598
2.87433e-06
0.00896482
2.934803e-06
0.008965027
2.985018e-06
0.008965221
3.027358e-06
0.008965404
3.063434e-06
0.008965577
3.094438e-06
0.008965741
3.121296e-06
0.008965898
3.144726e-06
0.008966049
3.165294e-06
0.008966194
3.183449e-06
0.008966335
3.199552e-06
0.00896647
3.213901e-06
0.008966602
3.226736e-06
0.00896673
3.238259e-06
0.008966855
3.248637e-06
0.008966977
3.258012e-06
0.008967096
3.266503e-06
0.008967213
3.274213e-06
0.008967328
3.281227e-06
0.008967441
3.287622e-06
0.008967553
3.293463e-06
0.008967662
3.298804e-06
0.008967771
3.303696e-06
0.008967878
3.308181e-06
0.008967984
3.312297e-06
0.008968089
3.316077e-06
0.008968193
3.319549e-06
0.008968296
3.322739e-06
0.008968398
3.325669e-06
0.008968499
3.32836e-06
0.0089686
3.330827e-06
0.0089687
3.333088e-06
0.0089688
3.335154e-06
0.0089689
3.337037e-06
0.008968999
3.338748e-06
0.008969097
3.340295e-06
0.008969195
3.341684e-06
0.008969294
3.342923e-06
0.008969391
3.344014e-06
0.008969489
3.344963e-06
0.008969587
3.345772e-06
0.008969684
3.346441e-06
0.008969782
3.346972e-06
0.008969879
3.347363e-06
0.008969977
3.347614e-06
0.008970074
3.34772e-06
0.008970172
3.34768e-06
0.00897027
3.347487e-06
0.008970368
3.347135e-06
0.008970467
3.346617e-06
0.008970566
3.345924e-06
0.008970665
3.345047e-06
0.008970765
3.343972e-06
0.008970865
3.342687e-06
0.008970966
3.341176e-06
0.008971068
3.339421e-06
0.00897117
3.337402e-06
0.008971273
3.335096e-06
0.008971378
3.332478e-06
0.008971483
3.329519e-06
0.008971589
3.326183e-06
0.008971697
3.322435e-06
0.008971806
3.318229e-06
0.008971917
3.313517e-06
0.00897203
3.308242e-06
0.008972144
3.302337e-06
0.008972261
3.295727e-06
0.00897238
3.288324e-06
0.008972502
3.280024e-06
0.008972627
3.270707e-06
0.008972755
3.26023e-06
0.008972888
3.248423e-06
0.008973024
3.235082e-06
0.008973165
3.219962e-06
0.008973312
3.202763e-06
0.008973465
3.183116e-06
0.008973625
3.160564e-06
0.008973793
3.13453e-06
0.00897397
3.104279e-06
0.008974158
3.068863e-06
0.008974358
3.027037e-06
0.008974573
2.977141e-06
0.008974805
2.916925e-06
0.008975058
2.843286e-06
0.008975334
2.751868e-06
0.008975637
2.636461e-06
0.008975973
2.488131e-06
0.008976344
2.293906e-06
0.008976747
2.035445e-06
0.008977167
1.686957e-06
0.008977557
1.218537e-06
6.039899e-07
0.008962375
5.586545e-07
0.008962747
1.310941e-06
0.008963069
1.718432e-06
0.008963356
1.949199e-06
0.008963638
2.156908e-06
0.008963908
2.329182e-06
0.008964157
2.461704e-06
0.008964389
2.568502e-06
0.008964606
2.657272e-06
0.00896481
2.731337e-06
0.008965001
2.793609e-06
0.008965182
2.84654e-06
0.008965353
2.891926e-06
0.008965516
2.931125e-06
0.008965672
2.965206e-06
0.008965822
2.99502e-06
0.008965965
3.021243e-06
0.008966104
3.044422e-06
0.008966238
3.065001e-06
0.008966369
3.083346e-06
0.008966496
3.099757e-06
0.008966619
3.114487e-06
0.00896674
3.127747e-06
0.008966858
3.139715e-06
0.008966974
3.150544e-06
0.008967087
3.160363e-06
0.008967199
3.169283e-06
0.008967309
3.1774e-06
0.008967418
3.184797e-06
0.008967525
3.191547e-06
0.008967631
3.197714e-06
0.008967735
3.203351e-06
0.008967839
3.208508e-06
0.008967942
3.213227e-06
0.008968044
3.217546e-06
0.008968145
3.221497e-06
0.008968245
3.22511e-06
0.008968345
3.22841e-06
0.008968445
3.231419e-06
0.008968543
3.234159e-06
0.008968642
3.236644e-06
0.00896874
3.238892e-06
0.008968838
3.240914e-06
0.008968935
3.242722e-06
0.008969032
3.244325e-06
0.00896913
3.24573e-06
0.008969227
3.246945e-06
0.008969323
3.247972e-06
0.00896942
3.248817e-06
0.008969517
3.24948e-06
0.008969614
3.249962e-06
0.008969711
3.250262e-06
0.008969809
3.250378e-06
0.008969906
3.250307e-06
0.008970003
3.250042e-06
0.008970101
3.249579e-06
0.0089702
3.248909e-06
0.008970298
3.248022e-06
0.008970397
3.246906e-06
0.008970497
3.245549e-06
0.008970597
3.243935e-06
0.008970697
3.242046e-06
0.008970798
3.239861e-06
0.0089709
3.237359e-06
0.008971003
3.234513e-06
0.008971107
3.231292e-06
0.008971212
3.227664e-06
0.008971318
3.223591e-06
0.008971425
3.219029e-06
0.008971533
3.213928e-06
0.008971643
3.208234e-06
0.008971755
3.201881e-06
0.008971868
3.194797e-06
0.008971984
3.186897e-06
0.008972101
3.178084e-06
0.008972221
3.168246e-06
0.008972344
3.15725e-06
0.00897247
3.144944e-06
0.008972599
3.131147e-06
0.008972732
3.115646e-06
0.008972869
3.098185e-06
0.00897301
3.078459e-06
0.008973157
3.056098e-06
0.008973309
3.030651e-06
0.008973468
3.001562e-06
0.008973635
2.968142e-06
0.008973809
2.929523e-06
0.008973993
2.884605e-06
0.008974189
2.831977e-06
0.008974396
2.769809e-06
0.008974617
2.695702e-06
0.008974854
2.606482e-06
0.008975108
2.497926e-06
0.00897538
2.364393e-06
0.00897567
2.198392e-06
0.008975973
1.990126e-06
0.008976281
1.727287e-06
0.008976573
1.3957e-06
0.00897681
9.8133e-07
4.841084e-07
0.008962243
5.927003e-07
0.008962452
1.104362e-06
0.008962735
1.438171e-06
0.008963008
1.678656e-06
0.008963273
1.893141e-06
0.008963527
2.075633e-06
0.008963767
2.222764e-06
0.008963991
2.343903e-06
0.008964203
2.445743e-06
0.008964402
2.531756e-06
0.008964591
2.604812e-06
0.00896477
2.667374e-06
0.00896494
2.721341e-06
0.008965103
2.768186e-06
0.008965259
2.809082e-06
0.008965409
2.844979e-06
0.008965553
2.876638e-06
0.008965693
2.904684e-06
0.008965828
2.929628e-06
0.008965959
2.951892e-06
0.008966087
2.97183e-06
0.008966211
2.989737e-06
0.008966333
3.005864e-06
0.008966452
3.020423e-06
0.008966569
3.033593e-06
0.008966684
3.045531e-06
0.008966796
3.056371e-06
0.008966907
3.066228e-06
0.008967017
3.075203e-06
0.008967125
3.083383e-06
0.008967232
3.090846e-06
0.008967337
3.097658e-06
0.008967442
3.103879e-06
0.008967545
3.109561e-06
0.008967648
3.114749e-06
0.00896775
3.119484e-06
0.008967851
3.123801e-06
0.008967952
3.127733e-06
0.008968052
3.131306e-06
0.008968151
3.134545e-06
0.00896825
3.137471e-06
0.008968349
3.140103e-06
0.008968447
3.142457e-06
0.008968546
3.144545e-06
0.008968643
3.146381e-06
0.008968741
3.147973e-06
0.008968839
3.149329e-06
0.008968936
3.150455e-06
0.008969034
3.151355e-06
0.008969131
3.152031e-06
0.008969228
3.152483e-06
0.008969326
3.152712e-06
0.008969423
3.152714e-06
0.008969521
3.152485e-06
0.008969619
3.152018e-06
0.008969717
3.151307e-06
0.008969816
3.150341e-06
0.008969915
3.149108e-06
0.008970014
3.147595e-06
0.008970114
3.145785e-06
0.008970214
3.143659e-06
0.008970315
3.141196e-06
0.008970416
3.138372e-06
0.008970519
3.135157e-06
0.008970621
3.131521e-06
0.008970725
3.127428e-06
0.00897083
3.122836e-06
0.008970936
3.1177e-06
0.008971043
3.111967e-06
0.008971151
3.105578e-06
0.008971261
3.098465e-06
0.008971372
3.090552e-06
0.008971485
3.08175e-06
0.0089716
3.071959e-06
0.008971717
3.061062e-06
0.008971837
3.048926e-06
0.008971958
3.035395e-06
0.008972083
3.020288e-06
0.008972211
3.003394e-06
0.008972342
2.984462e-06
0.008972477
2.963198e-06
0.008972616
2.939249e-06
0.00897276
2.912194e-06
0.008972909
2.881522e-06
0.008973064
2.846613e-06
0.008973225
2.806706e-06
0.008973394
2.760863e-06
0.008973571
2.707915e-06
0.008973756
2.646396e-06
0.008973952
2.574458e-06
0.008974158
2.489758e-06
0.008974375
2.389319e-06
0.008974603
2.269367e-06
0.008974842
2.125152e-06
0.00897509
1.950813e-06
0.008975341
1.73939e-06
0.008975585
1.483157e-06
0.008975805
1.175098e-06
0.008975977
8.102393e-07
3.978096e-07
0.008962649
4.352988e-07
0.00896284
9.155309e-07
0.008963048
1.232338e-06
0.008963259
1.470128e-06
0.00896347
1.683733e-06
0.008963678
1.868199e-06
0.00896388
2.02121e-06
0.008964075
2.149711e-06
0.008964261
2.259186e-06
0.00896444
2.352819e-06
0.008964611
2.433244e-06
0.008964776
2.502746e-06
0.008964934
2.563153e-06
0.008965086
2.615922e-06
0.008965232
2.662236e-06
0.008965374
2.703067e-06
0.008965511
2.73921e-06
0.008965644
2.771324e-06
0.008965774
2.799956e-06
0.0089659
2.825565e-06
0.008966023
2.848535e-06
0.008966143
2.869192e-06
0.008966261
2.887812e-06
0.008966377
2.904634e-06
0.00896649
2.919858e-06
0.008966602
2.933662e-06
0.008966712
2.946195e-06
0.008966821
2.957591e-06
0.008966928
2.967963e-06
0.008967034
2.977412e-06
0.008967138
2.986025e-06
0.008967242
2.993881e-06
0.008967345
3.001047e-06
0.008967446
3.007584e-06
0.008967548
3.013544e-06
0.008967648
3.018973e-06
0.008967748
3.023914e-06
0.008967847
3.028403e-06
0.008967946
3.032473e-06
0.008968044
3.03615e-06
0.008968142
3.03946e-06
0.00896824
3.042425e-06
0.008968337
3.045063e-06
0.008968434
3.047391e-06
0.008968531
3.049421e-06
0.008968628
3.051164e-06
0.008968724
3.05263e-06
0.008968821
3.053826e-06
0.008968917
3.054755e-06
0.008969014
3.055422e-06
0.008969111
3.055826e-06
0.008969207
3.055966e-06
0.008969304
3.055839e-06
0.008969401
3.055441e-06
0.008969498
3.054764e-06
0.008969596
3.053799e-06
0.008969694
3.052534e-06
0.008969792
3.050955e-06
0.00896989
3.049047e-06
0.008969989
3.04679e-06
0.008970089
3.044162e-06
0.008970189
3.041138e-06
0.008970289
3.03769e-06
0.008970391
3.033784e-06
0.008970493
3.029385e-06
0.008970596
3.024449e-06
0.0089707
3.01893e-06
0.008970804
3.012774e-06
0.00897091
3.005922e-06
0.008971018
2.998303e-06
0.008971126
2.989842e-06
0.008971236
2.980448e-06
0.008971348
2.970023e-06
0.008971462
2.958449e-06
0.008971577
2.945596e-06
0.008971695
2.931312e-06
0.008971814
2.915421e-06
0.008971937
2.897721e-06
0.008972062
2.877974e-06
0.008972191
2.855905e-06
0.008972323
2.831188e-06
0.008972459
2.803438e-06
0.008972599
2.7722e-06
0.008972743
2.736928e-06
0.008972893
2.696967e-06
0.008973048
2.651527e-06
0.008973209
2.599648e-06
0.008973377
2.540162e-06
0.008973552
2.471638e-06
0.008973734
2.392324e-06
0.008973924
2.300073e-06
0.008974121
2.192269e-06
0.008974324
2.065755e-06
0.008974532
1.916791e-06
0.008974742
1.741095e-06
0.008974947
1.534064e-06
0.008975139
1.291231e-06
0.008975305
1.009606e-06
0.008975427
6.882654e-07
3.364665e-07
0.008962677
4.286755e-07
0.008962785
8.094218e-07
0.008962941
1.078653e-06
0.008963112
1.301404e-06
0.008963292
1.505468e-06
0.008963476
1.684979e-06
0.008963659
1.838059e-06
0.00896384
1.969523e-06
0.008964016
2.08337e-06
0.008964186
2.182122e-06
0.008964351
2.26798e-06
0.008964511
2.342923e-06
0.008964665
2.408603e-06
0.008964815
2.466379e-06
0.008964959
2.517388e-06
0.0089651
2.562582e-06
0.008965236
2.602756e-06
0.008965368
2.638579e-06
0.008965497
2.670614e-06
0.008965623
2.699341e-06
0.008965747
2.725162e-06
0.008965867
2.748426e-06
0.008965985
2.769428e-06
0.008966101
2.788425e-06
0.008966215
2.805636e-06
0.008966328
2.821252e-06
0.008966438
2.83544e-06
0.008966547
2.848345e-06
0.008966655
2.860093e-06
0.008966761
2.870797e-06
0.008966867
2.880553e-06
0.008966971
2.889449e-06
0.008967074
2.897561e-06
0.008967177
2.904956e-06
0.008967279
2.911693e-06
0.00896738
2.917826e-06
0.00896748
2.923401e-06
0.00896758
2.928459e-06
0.008967679
2.933037e-06
0.008967778
2.937166e-06
0.008967877
2.940875e-06
0.008967975
2.944189e-06
0.008968073
2.947128e-06
0.00896817
2.949711e-06
0.008968268
2.951953e-06
0.008968365
2.953866e-06
0.008968462
2.955461e-06
0.008968559
2.956746e-06
0.008968656
2.957725e-06
0.008968753
2.958403e-06
0.00896885
2.95878e-06
0.008968947
2.958854e-06
0.008969044
2.958623e-06
0.008969142
2.958081e-06
0.008969239
2.957219e-06
0.008969337
2.956027e-06
0.008969435
2.954492e-06
0.008969533
2.952599e-06
0.008969632
2.950329e-06
0.008969731
2.94766e-06
0.008969831
2.944568e-06
0.008969931
2.941024e-06
0.008970031
2.936996e-06
0.008970133
2.932448e-06
0.008970235
2.927337e-06
0.008970337
2.921616e-06
0.008970441
2.915234e-06
0.008970546
2.908129e-06
0.008970651
2.900234e-06
0.008970758
2.891473e-06
0.008970866
2.88176e-06
0.008970976
2.870996e-06
0.008971087
2.85907e-06
0.008971199
2.845855e-06
0.008971314
2.831206e-06
0.00897143
2.814958e-06
0.008971548
2.796919e-06
0.008971669
2.776871e-06
0.008971793
2.75456e-06
0.008971919
2.729689e-06
0.008972048
2.701914e-06
0.008972181
2.670834e-06
0.008972317
2.635973e-06
0.008972457
2.596773e-06
0.008972601
2.552572e-06
0.00897275
2.502583e-06
0.008972904
2.445868e-06
0.008973063
2.381309e-06
0.008973227
2.30757e-06
0.008973396
2.223063e-06
0.00897357
2.125906e-06
0.008973749
2.013899e-06
0.00897393
1.884507e-06
0.008974112
1.734905e-06
0.008974291
1.56209e-06
0.008974462
1.363166e-06
0.008974617
1.135776e-06
0.008974747
8.79142e-07
0.008974841
5.942653e-07
2.893452e-07
0.008962891
3.560513e-07
0.008962997
7.052442e-07
0.008963129
9.495786e-07
0.008963276
1.156821e-06
0.008963431
1.351159e-06
0.008963592
1.525265e-06
0.008963754
1.676737e-06
0.008963915
1.809033e-06
0.008964073
1.925119e-06
0.008964228
2.026975e-06
0.008964379
2.116431e-06
0.008964527
2.195194e-06
0.00896467
2.264734e-06
0.00896481
2.326299e-06
0.008964947
2.380954e-06
0.008965079
2.429607e-06
0.008965209
2.473034e-06
0.008965335
2.511894e-06
0.008965459
2.546751e-06
0.00896558
2.578087e-06
0.008965698
2.606318e-06
0.008965815
2.631799e-06
0.008965929
2.65484e-06
0.008966042
2.675707e-06
0.008966153
2.694634e-06
0.008966262
2.711822e-06
0.00896637
2.727448e-06
0.008966476
2.741668e-06
0.008966582
2.754619e-06
0.008966686
2.766419e-06
0.008966789
2.777176e-06
0.008966891
2.786982e-06
0.008966993
2.795922e-06
0.008967094
2.804068e-06
0.008967194
2.811485e-06
0.008967293
2.818231e-06
0.008967392
2.824358e-06
0.008967491
2.82991e-06
0.008967589
2.834928e-06
0.008967686
2.839447e-06
0.008967784
2.843498e-06
0.008967881
2.847108e-06
0.008967977
2.850301e-06
0.008968074
2.853096e-06
0.00896817
2.85551e-06
0.008968267
2.857558e-06
0.008968363
2.859251e-06
0.008968459
2.860596e-06
0.008968555
2.861601e-06
0.008968651
2.862269e-06
0.008968747
2.8626e-06
0.008968843
2.862594e-06
0.00896894
2.862246e-06
0.008969036
2.86155e-06
0.008969133
2.860497e-06
0.00896923
2.859076e-06
0.008969327
2.857273e-06
0.008969424
2.855069e-06
0.008969522
2.852444e-06
0.008969621
2.849376e-06
0.008969719
2.845835e-06
0.008969818
2.841792e-06
0.008969918
2.83721e-06
0.008970019
2.832048e-06
0.00897012
2.826262e-06
0.008970221
2.8198e-06
0.008970324
2.812604e-06
0.008970427
2.804608e-06
0.008970532
2.795739e-06
0.008970637
2.785914e-06
0.008970744
2.775039e-06
0.008970852
2.763008e-06
0.008970961
2.749701e-06
0.008971072
2.734982e-06
0.008971185
2.718697e-06
0.008971299
2.70067e-06
0.008971415
2.680698e-06
0.008971534
2.658552e-06
0.008971654
2.633966e-06
0.008971777
2.606634e-06
0.008971903
2.576204e-06
0.008972031
2.542265e-06
0.008972163
2.504341e-06
0.008972298
2.461878e-06
0.008972436
2.414227e-06
0.008972578
2.360632e-06
0.008972724
2.300205e-06
0.008972873
2.231915e-06
0.008973026
2.154557e-06
0.008973182
2.066741e-06
0.008973341
1.966876e-06
0.008973502
1.853174e-06
0.008973663
1.723676e-06
0.008973821
1.57633e-06
0.008973974
1.409128e-06
0.008974117
1.22037e-06
0.008974244
1.009008e-06
0.008974348
7.753686e-07
0.008974421
5.211137e-07
2.528013e-07
0.008962973
3.346906e-07
0.008963046
6.344861e-07
0.008963148
8.503073e-07
0.008963265
1.041828e-06
0.008963393
1.224137e-06
0.00896353
1.389627e-06
0.008963671
1.536043e-06
0.008963814
1.665914e-06
0.008963958
1.781372e-06
0.008964101
1.88387e-06
0.008964243
1.97484e-06
0.008964382
2.055681e-06
0.008964519
2.127633e-06
0.008964653
2.191785e-06
0.008964785
2.249088e-06
0.008964914
2.300375e-06
0.00896504
2.346368e-06
0.008965164
2.387694e-06
0.008965286
2.424896e-06
0.008965405
2.458445e-06
0.008965523
2.488751e-06
0.008965638
2.516172e-06
0.008965752
2.541017e-06
0.008965864
2.56356e-06
0.008965974
2.584037e-06
0.008966083
2.602659e-06
0.008966191
2.619607e-06
0.008966297
2.635046e-06
0.008966402
2.649116e-06
0.008966507
2.661946e-06
0.00896661
2.673646e-06
0.008966713
2.684316e-06
0.008966815
2.694045e-06
0.008966916
2.702911e-06
0.008967016
2.710983e-06
0.008967116
2.718324e-06
0.008967215
2.724987e-06
0.008967314
2.731024e-06
0.008967412
2.736475e-06
0.00896751
2.74138e-06
0.008967608
2.745772e-06
0.008967705
2.74968e-06
0.008967802
2.75313e-06
0.008967899
2.756144e-06
0.008967996
2.758739e-06
0.008968092
2.760931e-06
0.008968189
2.762733e-06
0.008968285
2.764153e-06
0.008968382
2.765199e-06
0.008968478
2.765873e-06
0.008968574
2.766178e-06
0.008968671
2.766111e-06
0.008968767
2.765669e-06
0.008968864
2.764844e-06
0.008968961
2.763627e-06
0.008969058
2.762005e-06
0.008969155
2.759963e-06
0.008969253
2.757482e-06
0.008969351
2.75454e-06
0.008969449
2.75111e-06
0.008969547
2.747165e-06
0.008969646
2.742668e-06
0.008969746
2.737583e-06
0.008969846
2.731865e-06
0.008969947
2.725466e-06
0.008970048
2.71833e-06
0.008970151
2.710395e-06
0.008970254
2.701591e-06
0.008970357
2.691839e-06
0.008970462
2.681052e-06
0.008970568
2.669129e-06
0.008970675
2.65596e-06
0.008970783
2.641416e-06
0.008970893
2.625357e-06
0.008971004
2.60762e-06
0.008971117
2.588023e-06
0.008971231
2.566357e-06
0.008971347
2.542387e-06
0.008971465
2.515841e-06
0.008971585
2.486411e-06
0.008971708
2.453744e-06
0.008971833
2.417434e-06
0.00897196
2.377014e-06
0.00897209
2.331948e-06
0.008972223
2.281618e-06
0.008972358
2.225315e-06
0.008972496
2.162225e-06
0.008972636
2.091419e-06
0.008972779
2.011841e-06
0.008972923
1.922308e-06
0.008973069
1.82151e-06
0.008973214
1.708034e-06
0.008973357
1.58041e-06
0.008973496
1.437195e-06
0.008973628
1.277108e-06
0.008973749
1.099247e-06
0.008973855
9.033448e-07
0.00897394
6.902545e-07
0.008973999
4.618083e-07
2.232677e-07
0.008963108
2.946727e-07
0.008963176
5.68171e-07
0.008963265
7.639894e-07
0.008963369
9.402635e-07
0.008963484
1.110684e-06
0.008963607
1.267585e-06
0.008963735
1.408487e-06
0.008963866
1.535168e-06
0.008963998
1.649113e-06
0.008964131
1.75133e-06
0.008964262
1.842902e-06
0.008964393
1.924948e-06
0.008964522
1.998505e-06
0.008964649
2.064505e-06
0.008964774
2.123791e-06
0.008964897
2.177114e-06
0.008965018
2.225139e-06
0.008965137
2.268455e-06
0.008965254
2.307578e-06
0.008965369
2.342963e-06
0.008965483
2.375009e-06
0.008965595
2.404069e-06
0.008965705
2.430451e-06
0.008965814
2.454428e-06
0.008965922
2.476241e-06
0.008966028
2.496101e-06
0.008966133
2.514196e-06
0.008966238
2.530693e-06
0.008966341
2.54574e-06
0.008966443
2.559468e-06
0.008966545
2.571992e-06
0.008966645
2.583418e-06
0.008966745
2.593837e-06
0.008966845
2.603332e-06
0.008966944
2.611976e-06
0.008967042
2.619835e-06
0.00896714
2.626967e-06
0.008967238
2.633423e-06
0.008967335
2.63925e-06
0.008967432
2.644488e-06
0.008967528
2.649172e-06
0.008967624
2.653334e-06
0.00896772
2.657002e-06
0.008967816
2.660198e-06
0.008967912
2.662941e-06
0.008968008
2.665249e-06
0.008968103
2.667134e-06
0.008968199
2.668607e-06
0.008968294
2.669674e-06
0.00896839
2.670339e-06
0.008968485
2.670604e-06
0.008968581
2.670467e-06
0.008968676
2.669924e-06
0.008968772
2.668967e-06
0.008968868
2.667585e-06
0.008968965
2.665766e-06
0.008969061
2.663493e-06
0.008969158
2.660746e-06
0.008969255
2.6575e-06
0.008969352
2.65373e-06
0.00896945
2.649402e-06
0.008969548
2.644481e-06
0.008969646
2.638927e-06
0.008969746
2.632693e-06
0.008969845
2.625727e-06
0.008969946
2.61797e-06
0.008970047
2.609358e-06
0.008970148
2.599817e-06
0.008970251
2.589263e-06
0.008970354
2.577606e-06
0.008970459
2.564741e-06
0.008970564
2.550552e-06
0.008970671
2.534908e-06
0.008970778
2.517664e-06
0.008970887
2.498652e-06
0.008970998
2.477688e-06
0.008971109
2.45456e-06
0.008971223
2.429031e-06
0.008971338
2.40083e-06
0.008971454
2.369653e-06
0.008971573
2.335152e-06
0.008971693
2.296935e-06
0.008971816
2.254553e-06
0.00897194
2.207499e-06
0.008972067
2.155198e-06
0.008972195
2.096999e-06
0.008972325
2.032172e-06
0.008972456
1.959899e-06
0.008972589
1.879276e-06
0.008972722
1.789316e-06
0.008972855
1.688969e-06
0.008972985
1.577144e-06
0.008973113
1.45277e-06
0.008973235
1.314871e-06
0.00897335
1.162683e-06
0.008973453
9.958258e-07
0.008973542
8.144722e-07
0.008973613
6.196739e-07
0.008973661
4.131723e-07
1.991247e-07
0.008963195
2.73175e-07
0.008963248
5.169062e-07
0.008963321
6.936057e-07
0.008963407
8.563932e-07
0.008963504
1.015401e-06
0.008963609
1.163239e-06
0.00896372
1.297555e-06
0.008963836
1.419653e-06
0.008963955
1.53057e-06
0.008964075
1.630986e-06
0.008964196
1.721709e-06
0.008964317
1.803624e-06
0.008964438
1.877573e-06
0.008964558
1.944343e-06
0.008964677
2.004658e-06
0.008964794
2.059181e-06
0.008964911
2.108509e-06
0.008965026
2.15318e-06
0.00896514
2.193672e-06
0.008965252
2.230414e-06
0.008965363
2.263784e-06
0.008965473
2.294121e-06
0.008965581
2.321726e-06
0.008965689
2.346865e-06
0.008965795
2.369775e-06
0.0089659
2.390667e-06
0.008966004
2.40973e-06
0.008966108
2.42713e-06
0.00896621
2.443017e-06
0.008966312
2.457524e-06
0.008966413
2.47077e-06
0.008966514
2.482861e-06
0.008966614
2.493893e-06
0.008966713
2.50395e-06
0.008966812
2.513108e-06
0.00896691
2.521436e-06
0.008967008
2.528993e-06
0.008967105
2.535833e-06
0.008967202
2.542005e-06
0.008967299
2.547551e-06
0.008967396
2.552508e-06
0.008967492
2.556908e-06
0.008967588
2.560781e-06
0.008967684
2.564151e-06
0.00896778
2.567038e-06
0.008967876
2.569459e-06
0.008967971
2.571429e-06
0.008968067
2.572958e-06
0.008968163
2.574053e-06
0.008968258
2.574719e-06
0.008968354
2.574956e-06
0.008968449
2.574764e-06
0.008968545
2.574137e-06
0.008968641
2.573068e-06
0.008968737
2.571545e-06
0.008968833
2.569555e-06
0.00896893
2.56708e-06
0.008969026
2.564099e-06
0.008969123
2.560587e-06
0.00896922
2.556515e-06
0.008969318
2.55185e-06
0.008969416
2.546554e-06
0.008969514
2.540585e-06
0.008969613
2.533894e-06
0.008969712
2.526427e-06
0.008969812
2.518124e-06
0.008969912
2.508915e-06
0.008970013
2.498726e-06
0.008970115
2.48747e-06
0.008970218
2.475053e-06
0.008970321
2.461369e-06
0.008970425
2.446298e-06
0.00897053
2.429708e-06
0.008970637
2.41145e-06
0.008970744
2.391357e-06
0.008970852
2.369243e-06
0.008970962
2.344897e-06
0.008971073
2.318085e-06
0.008971185
2.288543e-06
0.008971299
2.255972e-06
0.008971414
2.220038e-06
0.00897153
2.180368e-06
0.008971648
2.136539e-06
0.008971768
2.088079e-06
0.008971888
2.034464e-06
0.00897201
1.975107e-06
0.008972133
1.909364e-06
0.008972256
1.836529e-06
0.00897238
1.755841e-06
0.008972503
1.666496e-06
0.008972624
1.567664e-06
0.008972743
1.458528e-06
0.008972857
1.338326e-06
0.008972965
1.206429e-06
0.008973066
1.062433e-06
0.008973155
9.062826e-07
0.008973231
7.383886e-07
0.008973291
5.598408e-07
0.008973332
3.722152e-07
1.788527e-07
0.008963294
2.471545e-07
0.008963342
4.70169e-07
0.008963407
6.315774e-07
0.008963484
7.816809e-07
0.008963571
9.29674e-07
0.008963667
1.068578e-06
0.008963769
1.196099e-06
0.008963875
1.313185e-06
0.008963985
1.420534e-06
0.008964098
1.51856e-06
0.008964211
1.607833e-06
0.008964326
1.689026e-06
0.00896444
1.762809e-06
0.008964555
1.829826e-06
0.008964668
1.890691e-06
0.008964781
1.945976e-06
0.008964893
1.996211e-06
0.008965004
2.041878e-06
0.008965114
2.083417e-06
0.008965223
2.121225e-06
0.008965331
2.155659e-06
0.008965438
2.18704e-06
0.008965544
2.215657e-06
0.008965649
2.241768e-06
0.008965753
2.265605e-06
0.008965856
2.287375e-06
0.008965958
2.307266e-06
0.00896606
2.325442e-06
0.008966161
2.342055e-06
0.008966261
2.357237e-06
0.00896636
2.37111e-06
0.008966459
2.383781e-06
0.008966558
2.395347e-06
0.008966656
2.405895e-06
0.008966753
2.415502e-06
0.00896685
2.424239e-06
0.008966947
2.432167e-06
0.008967044
2.439343e-06
0.00896714
2.445815e-06
0.008967235
2.451628e-06
0.008967331
2.45682e-06
0.008967426
2.461426e-06
0.008967522
2.465475e-06
0.008967617
2.468992e-06
0.008967712
2.471999e-06
0.008967807
2.474515e-06
0.008967901
2.476553e-06
0.008967996
2.478124e-06
0.008968091
2.479236e-06
0.008968186
2.479894e-06
0.008968281
2.480099e-06
0.008968375
2.479849e-06
0.00896847
2.47914e-06
0.008968565
2.477962e-06
0.008968661
2.476306e-06
0.008968756
2.474156e-06
0.008968852
2.471493e-06
0.008968947
2.468297e-06
0.008969043
2.46454e-06
0.00896914
2.460193e-06
0.008969236
2.455222e-06
0.008969333
2.449588e-06
0.00896943
2.443246e-06
0.008969528
2.436146e-06
0.008969626
2.428234e-06
0.008969725
2.419445e-06
0.008969824
2.409711e-06
0.008969924
2.398953e-06
0.008970024
2.387084e-06
0.008970125
2.374009e-06
0.008970227
2.359619e-06
0.008970329
2.343795e-06
0.008970433
2.326402e-06
0.008970537
2.307293e-06
0.008970642
2.286301e-06
0.008970748
2.263242e-06
0.008970855
2.237911e-06
0.008970963
2.210078e-06
0.008971072
2.179486e-06
0.008971182
2.145852e-06