/*--------------------------------*- C++ -*----------------------------------*\
| =========                 |                                                 |
| \\      /  F ield         | OpenFOAM: The Open Source CFD Toolbox           |
|  \\    /   O peration     | Version:  2.3.0                                 |
|   \\  /    A nd           | Web:      www.OpenFOAM.org                      |
|    \\/     M anipulation  |                                                 |
\*---------------------------------------------------------------------------*/
FoamFile
{
    version     2.0;
    format      ascii;
    class       volVectorField;
    location    "9900/topAir";
    object      U;
}
// * * * * * * * * * * * * * * * * * * * * * * * * * * * * * * * * * * * * * //

dimensions      [0 1 -1 0 0 0 0];

internalField   nonuniform List<vector> 
4000
(
(11.35423 0.002844154 0)
(8.499331 0.002998817 0)
(7.34689 0.002494221 0)
(7.65044 0.002451372 0)
(7.764072 0.002505616 0)
(7.72846 0.002525663 0)
(7.713876 0.002541636 0)
(7.714539 0.002562523 0)
(7.712856 0.002582861 0)
(7.709592 0.002600946 0)
(7.706568 0.002617155 0)
(7.703692 0.002631698 0)
(7.700777 0.002644672 0)
(7.697837 0.002656232 0)
(7.694894 0.002666543 0)
(7.691945 0.002675753 0)
(7.688992 0.002683989 0)
(7.686033 0.002691364 0)
(7.683071 0.002697975 0)
(7.680106 0.002703907 0)
(7.677139 0.002709232 0)
(7.674169 0.002714013 0)
(7.671197 0.002718304 0)
(7.668224 0.002722154 0)
(7.66525 0.002725605 0)
(7.662274 0.002728692 0)
(7.659298 0.002731448 0)
(7.656321 0.002733902 0)
(7.653344 0.00273608 0)
(7.650366 0.002738003 0)
(7.647389 0.002739691 0)
(7.644411 0.002741164 0)
(7.641434 0.002742436 0)
(7.638456 0.002743523 0)
(7.63548 0.002744437 0)
(7.632503 0.002745191 0)
(7.629527 0.002745795 0)
(7.626551 0.002746258 0)
(7.623576 0.002746591 0)
(7.620602 0.0027468 0)
(7.617629 0.002746892 0)
(7.614656 0.002746876 0)
(7.611684 0.002746756 0)
(7.608713 0.002746538 0)
(7.605743 0.002746227 0)
(7.602774 0.002745827 0)
(7.599806 0.002745344 0)
(7.596839 0.002744779 0)
(7.593873 0.002744137 0)
(7.590908 0.002743421 0)
(7.587945 0.002742634 0)
(7.584982 0.002741777 0)
(7.582021 0.002740852 0)
(7.579061 0.002739862 0)
(7.576103 0.002738808 0)
(7.573146 0.002737692 0)
(7.57019 0.002736513 0)
(7.567236 0.002735273 0)
(7.564284 0.002733971 0)
(7.561333 0.002732609 0)
(7.558383 0.002731185 0)
(7.555436 0.0027297 0)
(7.55249 0.002728151 0)
(7.549546 0.002726538 0)
(7.546604 0.002724859 0)
(7.543664 0.002723111 0)
(7.540726 0.002721292 0)
(7.53779 0.002719398 0)
(7.534856 0.002717425 0)
(7.531925 0.002715369 0)
(7.528996 0.002713225 0)
(7.52607 0.002710984 0)
(7.523147 0.00270864 0)
(7.520227 0.002706184 0)
(7.51731 0.002703604 0)
(7.514397 0.002700889 0)
(7.511487 0.002698023 0)
(7.508581 0.002694988 0)
(7.505679 0.002691764 0)
(7.502782 0.002688323 0)
(7.49989 0.002684637 0)
(7.497004 0.002680666 0)
(7.494124 0.002676363 0)
(7.491251 0.002671671 0)
(7.488385 0.002666514 0)
(7.485528 0.002660799 0)
(7.482681 0.0026544 0)
(7.479845 0.002647153 0)
(7.477023 0.002638831 0)
(7.474216 0.002629114 0)
(7.471427 0.002617534 0)
(7.468662 0.002603376 0)
(7.465925 0.002585481 0)
(7.463224 0.002561849 0)
(7.460574 0.002528848 0)
(7.457992 0.002479172 0)
(7.455517 0.002398597 0)
(7.453196 0.002251243 0)
(7.451225 0.001979716 0)
(7.449517 0.001327235 0)
(11.36128 0.002483894 0)
(8.509079 0.003325554 0)
(7.360748 0.00298373 0)
(7.667225 0.002942299 0)
(7.783798 0.003043001 0)
(7.751337 0.003094941 0)
(7.739868 0.003122029 0)
(7.743602 0.003146903 0)
(7.744989 0.003167544 0)
(7.744797 0.003182893 0)
(7.744841 0.003194451 0)
(7.74503 0.003203294 0)
(7.745178 0.00321 0)
(7.745298 0.003215024 0)
(7.745411 0.00321874 0)
(7.745518 0.003221429 0)
(7.745616 0.003223305 0)
(7.745707 0.003224531 0)
(7.745791 0.003225237 0)
(7.74587 0.003225524 0)
(7.745943 0.00322547 0)
(7.746011 0.00322514 0)
(7.746075 0.003224584 0)
(7.746134 0.003223844 0)
(7.746189 0.003222953 0)
(7.74624 0.003221938 0)
(7.746288 0.003220822 0)
(7.746332 0.003219623 0)
(7.746373 0.003218356 0)
(7.746411 0.003217035 0)
(7.746446 0.00321567 0)
(7.746478 0.003214269 0)
(7.746507 0.00321284 0)
(7.746534 0.003211388 0)
(7.746558 0.00320992 0)
(7.74658 0.003208437 0)
(7.746599 0.003206945 0)
(7.746616 0.003205446 0)
(7.74663 0.003203941 0)
(7.746643 0.003202431 0)
(7.746653 0.003200919 0)
(7.746661 0.003199405 0)
(7.746667 0.003197888 0)
(7.746672 0.003196369 0)
(7.746674 0.003194847 0)
(7.746675 0.003193322 0)
(7.746673 0.003191792 0)
(7.74667 0.003190256 0)
(7.746665 0.003188713 0)
(7.746659 0.003187159 0)
(7.74665 0.003185594 0)
(7.746641 0.003184015 0)
(7.746629 0.003182418 0)
(7.746616 0.003180801 0)
(7.746602 0.003179159 0)
(7.746586 0.00317749 0)
(7.746569 0.003175787 0)
(7.74655 0.003174048 0)
(7.74653 0.003172265 0)
(7.746509 0.003170434 0)
(7.746487 0.003168547 0)
(7.746463 0.003166597 0)
(7.746439 0.003164576 0)
(7.746413 0.003162475 0)
(7.746387 0.003160284 0)
(7.74636 0.003157992 0)
(7.746332 0.003155585 0)
(7.746303 0.003153051 0)
(7.746274 0.003150372 0)
(7.746245 0.003147532 0)
(7.746215 0.003144509 0)
(7.746185 0.00314128 0)
(7.746155 0.003137819 0)
(7.746125 0.003134096 0)
(7.746096 0.003130074 0)
(7.746067 0.003125714 0)
(7.746039 0.003120967 0)
(7.746012 0.003115778 0)
(7.745987 0.00311008 0)
(7.745964 0.003103793 0)
(7.745942 0.003096822 0)
(7.745924 0.003089052 0)
(7.745909 0.00308034 0)
(7.745898 0.00307051 0)
(7.745891 0.003059339 0)
(7.74589 0.003046546 0)
(7.745897 0.003031763 0)
(7.745911 0.003014506 0)
(7.745935 0.002994123 0)
(7.745972 0.002969713 0)
(7.746023 0.002939996 0)
(7.746093 0.002903095 0)
(7.746185 0.00285616 0)
(7.746307 0.002794674 0)
(7.746465 0.002711205 0)
(7.746669 0.002592648 0)
(7.74693 0.00241622 0)
(7.747256 0.002133274 0)
(7.747628 0.001671615 0)
(7.748038 0.0007609442 0)
(11.35916 8.324921e-05 0)
(8.50687 0.001026923 0)
(7.357891 0.001410843 0)
(7.664464 0.001627061 0)
(7.781076 0.001832524 0)
(7.748574 0.00198165 0)
(7.737094 0.002087277 0)
(7.740839 0.002171125 0)
(7.74224 0.002239695 0)
(7.742066 0.002296026 0)
(7.742132 0.002343214 0)
(7.742345 0.002383492 0)
(7.742521 0.002418314 0)
(7.742671 0.002448737 0)
(7.742816 0.00247557 0)
(7.742956 0.002499431 0)
(7.74309 0.002520797 0)
(7.743218 0.002540046 0)
(7.743342 0.002557482 0)
(7.743462 0.002573352 0)
(7.743579 0.002587858 0)
(7.743692 0.002601171 0)
(7.743802 0.002613431 0)
(7.743909 0.002624758 0)
(7.744014 0.002635253 0)
(7.744117 0.002645004 0)
(7.744218 0.002654087 0)
(7.744318 0.002662567 0)
(7.744416 0.002670501 0)
(7.744512 0.002677938 0)
(7.744607 0.002684923 0)
(7.744701 0.002691493 0)
(7.744794 0.002697684 0)
(7.744886 0.002703524 0)
(7.744977 0.002709042 0)
(7.745067 0.002714261 0)
(7.745157 0.002719201 0)
(7.745245 0.002723883 0)
(7.745334 0.002728323 0)
(7.745422 0.002732536 0)
(7.745509 0.002736535 0)
(7.745596 0.002740332 0)
(7.745682 0.002743938 0)
(7.745769 0.002747361 0)
(7.745854 0.002750611 0)
(7.74594 0.002753693 0)
(7.746026 0.002756613 0)
(7.746111 0.002759378 0)
(7.746196 0.00276199 0)
(7.746281 0.002764452 0)
(7.746367 0.002766768 0)
(7.746452 0.002768937 0)
(7.746537 0.002770962 0)
(7.746622 0.002772841 0)
(7.746707 0.002774573 0)
(7.746793 0.002776156 0)
(7.746878 0.002777587 0)
(7.746964 0.002778862 0)
(7.747051 0.002779975 0)
(7.747137 0.002780921 0)
(7.747224 0.002781692 0)
(7.747311 0.002782278 0)
(7.747399 0.00278267 0)
(7.747487 0.002782856 0)
(7.747576 0.002782821 0)
(7.747666 0.00278255 0)
(7.747757 0.002782025 0)
(7.747848 0.002781225 0)
(7.74794 0.002780126 0)
(7.748034 0.002778701 0)
(7.748128 0.00277692 0)
(7.748224 0.002774744 0)
(7.748321 0.002772135 0)
(7.74842 0.002769043 0)
(7.748521 0.002765413 0)
(7.748624 0.002761181 0)
(7.748729 0.00275627 0)
(7.748836 0.002750592 0)
(7.748947 0.002744041 0)
(7.74906 0.002736491 0)
(7.749177 0.002727789 0)
(7.749298 0.002717753 0)
(7.749423 0.002706158 0)
(7.749553 0.002692725 0)
(7.749689 0.002677107 0)
(7.749831 0.002658864 0)
(7.749981 0.002637431 0)
(7.750139 0.002612072 0)
(7.750307 0.002581808 0)
(7.750487 0.00254532 0)
(7.750681 0.002500786 0)
(7.75089 0.002445645 0)
(7.751118 0.002376216 0)
(7.751369 0.002287099 0)
(7.751645 0.002170279 0)
(7.751951 0.002013665 0)
(7.752287 0.001799501 0)
(7.752649 0.001501278 0)
(7.753005 0.001087144 0)
(7.753341 0.0005208151 0)
(11.36008 0.0008150816 0)
(8.507671 0.001608521 0)
(7.358283 0.001962117 0)
(7.664686 0.00214312 0)
(7.781242 0.002309354 0)
(7.748684 0.002442871 0)
(7.737161 0.002541266 0)
(7.740877 0.002618753 0)
(7.742256 0.00268207 0)
(7.742064 0.002733903 0)
(7.742116 0.002776656 0)
(7.742317 0.00281231 0)
(7.742482 0.002842276 0)
(7.742622 0.002867612 0)
(7.74276 0.002889149 0)
(7.742893 0.002907546 0)
(7.74302 0.002923323 0)
(7.743143 0.002936899 0)
(7.743262 0.002948614 0)
(7.743377 0.002958746 0)
(7.743489 0.002967522 0)
(7.743598 0.002975134 0)
(7.743704 0.002981738 0)
(7.743808 0.002987469 0)
(7.74391 0.002992437 0)
(7.74401 0.002996739 0)
(7.744108 0.003000454 0)
(7.744205 0.003003654 0)
(7.7443 0.003006396 0)
(7.744394 0.003008734 0)
(7.744487 0.003010711 0)
(7.744579 0.003012366 0)
(7.74467 0.003013732 0)
(7.74476 0.00301484 0)
(7.744849 0.003015713 0)
(7.744938 0.003016375 0)
(7.745026 0.003016844 0)
(7.745113 0.003017138 0)
(7.7452 0.003017271 0)
(7.745286 0.003017255 0)
(7.745373 0.003017102 0)
(7.745458 0.003016821 0)
(7.745544 0.003016419 0)
(7.745629 0.003015903 0)
(7.745714 0.003015277 0)
(7.745799 0.003014547 0)
(7.745884 0.003013715 0)
(7.745968 0.003012782 0)
(7.746053 0.003011751 0)
(7.746138 0.00301062 0)
(7.746222 0.003009388 0)
(7.746307 0.003008055 0)
(7.746392 0.003006616 0)
(7.746477 0.003005068 0)
(7.746562 0.003003406 0)
(7.746647 0.003001623 0)
(7.746733 0.002999713 0)
(7.746819 0.002997667 0)
(7.746905 0.002995475 0)
(7.746991 0.002993127 0)
(7.747078 0.002990609 0)
(7.747166 0.002987908 0)
(7.747254 0.002985006 0)
(7.747343 0.002981886 0)
(7.747432 0.002978527 0)
(7.747522 0.002974905 0)
(7.747613 0.002970994 0)
(7.747705 0.002966765 0)
(7.747798 0.002962182 0)
(7.747892 0.002957209 0)
(7.747987 0.002951801 0)
(7.748084 0.002945908 0)
(7.748182 0.002939474 0)
(7.748282 0.002932433 0)
(7.748383 0.002924709 0)
(7.748487 0.002916215 0)
(7.748592 0.002906848 0)
(7.7487 0.00289649 0)
(7.748811 0.002884998 0)
(7.748925 0.002872207 0)
(7.749043 0.002857915 0)
(7.749164 0.002841883 0)
(7.749289 0.002823818 0)
(7.749419 0.002803361 0)
(7.749554 0.002780071 0)
(7.749695 0.002753391 0)
(7.749843 0.002722619 0)
(7.749999 0.002686856 0)
(7.750163 0.002644933 0)
(7.750338 0.00259531 0)
(7.750524 0.002535936 0)
(7.750722 0.002464034 0)
(7.750934 0.002375805 0)
(7.751162 0.002265998 0)
(7.751406 0.002127344 0)
(7.751665 0.00194979 0)
(7.751932 0.001719857 0)
(7.752199 0.001420191 0)
(7.75243 0.001031868 0)
(7.752629 0.0005452577 0)
(11.36003 0.0004175805 0)
(8.507541 0.0008655384 0)
(7.357988 0.001136261 0)
(7.664372 0.001323478 0)
(7.780936 0.001499806 0)
(7.748364 0.001651307 0)
(7.736827 0.001772871 0)
(7.740535 0.001873198 0)
(7.74191 0.001957875 0)
(7.741714 0.002029595 0)
(7.741763 0.002090728 0)
(7.741962 0.002143334 0)
(7.742126 0.002188984 0)
(7.742266 0.002228889 0)
(7.742403 0.00226401 0)
(7.742536 0.002295118 0)
(7.742664 0.00232283 0)
(7.742788 0.002347647 0)
(7.742907 0.002369975 0)
(7.743023 0.002390152 0)
(7.743136 0.002408457 0)
(7.743245 0.002425123 0)
(7.743353 0.002440346 0)
(7.743457 0.002454293 0)
(7.74356 0.002467106 0)
(7.743661 0.002478907 0)
(7.74376 0.002489801 0)
(7.743858 0.002499879 0)
(7.743954 0.00250922 0)
(7.744048 0.002517893 0)
(7.744142 0.00252596 0)
(7.744235 0.002533472 0)
(7.744326 0.002540478 0)
(7.744417 0.002547019 0)
(7.744507 0.002553132 0)
(7.744596 0.002558849 0)
(7.744685 0.002564198 0)
(7.744773 0.002569206 0)
(7.74486 0.002573896 0)
(7.744948 0.002578286 0)
(7.745034 0.002582395 0)
(7.745121 0.002586238 0)
(7.745207 0.002589828 0)
(7.745292 0.002593177 0)
(7.745378 0.002596296 0)
(7.745463 0.002599191 0)
(7.745549 0.002601871 0)
(7.745634 0.00260434 0)
(7.745719 0.002606603 0)
(7.745804 0.002608662 0)
(7.745889 0.002610518 0)
(7.745974 0.002612171 0)
(7.746059 0.00261362 0)
(7.746144 0.002614863 0)
(7.74623 0.002615894 0)
(7.746315 0.00261671 0)
(7.746401 0.002617301 0)
(7.746487 0.002617661 0)
(7.746574 0.002617778 0)
(7.746661 0.00261764 0)
(7.746748 0.002617232 0)
(7.746836 0.00261654 0)
(7.746924 0.002615542 0)
(7.747013 0.002614219 0)
(7.747102 0.002612545 0)
(7.747193 0.002610491 0)
(7.747284 0.002608028 0)
(7.747375 0.002605118 0)
(7.747468 0.00260172 0)
(7.747562 0.002597787 0)
(7.747657 0.002593267 0)
(7.747754 0.002588098 0)
(7.747851 0.002582211 0)
(7.747951 0.002575525 0)
(7.748052 0.002567948 0)
(7.748155 0.002559374 0)
(7.74826 0.002549677 0)
(7.748367 0.002538712 0)
(7.748477 0.00252631 0)
(7.748589 0.002512267 0)
(7.748705 0.002496344 0)
(7.748824 0.002478255 0)
(7.748948 0.002457654 0)
(7.749075 0.002434119 0)
(7.749207 0.002407138 0)
(7.749344 0.002376074 0)
(7.749488 0.002340135 0)
(7.749638 0.002298325 0)
(7.749795 0.00224938 0)
(7.74996 0.002191682 0)
(7.750134 0.002123149 0)
(7.750318 0.002041078 0)
(7.750511 0.001941968 0)
(7.750714 0.001821297 0)
(7.750926 0.001673312 0)
(7.751143 0.00149093 0)
(7.75136 0.001265941 0)
(7.751567 0.0009902838 0)
(7.751738 0.0006576289 0)
(7.75188 0.0002753831 0)
(11.3604 0.0004758598 0)
(8.507933 0.0009421909 0)
(7.358296 0.001255119 0)
(7.664606 0.001488146 0)
(7.781127 0.001691982 0)
(7.748514 0.00186365 0)
(7.736939 0.002002818 0)
(7.740619 0.002117505 0)
(7.74197 0.002213638 0)
(7.741754 0.002294644 0)
(7.741787 0.002363285 0)
(7.741973 0.002421871 0)
(7.742125 0.002472199 0)
(7.742255 0.002515668 0)
(7.742384 0.002553398 0)
(7.74251 0.002586293 0)
(7.742631 0.002615087 0)
(7.742748 0.002640379 0)
(7.742863 0.002662664 0)
(7.742974 0.002682352 0)
(7.743082 0.002699787 0)
(7.743188 0.002715258 0)
(7.743292 0.00272901 0)
(7.743394 0.00274125 0)
(7.743494 0.002752156 0)
(7.743592 0.002761882 0)
(7.743688 0.002770559 0)
(7.743784 0.0027783 0)
(7.743878 0.002785206 0)
(7.743971 0.002791362 0)
(7.744062 0.002796843 0)
(7.744153 0.002801717 0)
(7.744243 0.00280604 0)
(7.744332 0.002809865 0)
(7.744421 0.002813234 0)
(7.744509 0.00281619 0)
(7.744596 0.002818765 0)
(7.744683 0.00282099 0)
(7.74477 0.002822893 0)
(7.744856 0.002824497 0)
(7.744941 0.002825822 0)
(7.745027 0.002826887 0)
(7.745112 0.002827706 0)
(7.745197 0.002828293 0)
(7.745281 0.002828658 0)
(7.745366 0.002828811 0)
(7.74545 0.00282876 0)
(7.745535 0.002828508 0)
(7.745619 0.002828061 0)
(7.745703 0.00282742 0)
(7.745787 0.002826586 0)
(7.745872 0.002825557 0)
(7.745956 0.002824332 0)
(7.746041 0.002822905 0)
(7.746126 0.002821272 0)
(7.746211 0.002819424 0)
(7.746296 0.002817351 0)
(7.746381 0.002815044 0)
(7.746467 0.002812487 0)
(7.746553 0.002809667 0)
(7.74664 0.002806564 0)
(7.746727 0.002803159 0)
(7.746815 0.002799428 0)
(7.746903 0.002795344 0)
(7.746992 0.002790878 0)
(7.747081 0.002785996 0)
(7.747171 0.002780659 0)
(7.747262 0.002774825 0)
(7.747354 0.002768443 0)
(7.747447 0.002761459 0)
(7.747541 0.002753808 0)
(7.747637 0.00274542 0)
(7.747733 0.002736212 0)
(7.747831 0.00272609 0)
(7.747931 0.002714947 0)
(7.748033 0.002702658 0)
(7.748136 0.002689079 0)
(7.748242 0.002674043 0)
(7.74835 0.002657356 0)
(7.74846 0.002638789 0)
(7.748574 0.00261807 0)
(7.74869 0.00259488 0)
(7.74881 0.002568835 0)
(7.748934 0.002539476 0)
(7.749062 0.002506247 0)
(7.749194 0.00246847 0)
(7.749332 0.002425317 0)
(7.749474 0.002375767 0)
(7.749623 0.002318555 0)
(7.749778 0.002252109 0)
(7.74994 0.002174471 0)
(7.750108 0.002083204 0)
(7.750282 0.001975296 0)
(7.750461 0.001847075 0)
(7.750643 0.001694177 0)
(7.750825 0.001511677 0)
(7.750999 0.001294454 0)
(7.751159 0.001038456 0)
(7.751283 0.0007414766 0)
(7.751384 0.0004118525 0)
(11.36048 0.0003522904 0)
(8.507961 0.0006974563 0)
(7.358217 0.0009284296 0)
(7.664485 0.001109085 0)
(7.780986 0.001274142 0)
(7.74835 0.001418818 0)
(7.736756 0.001541096 0)
(7.740421 0.00164553 0)
(7.741762 0.001735736 0)
(7.741538 0.001813843 0)
(7.741565 0.001881679 0)
(7.741746 0.001940887 0)
(7.741894 0.001992814 0)
(7.742022 0.002038561 0)
(7.742149 0.00207904 0)
(7.742273 0.002115009 0)
(7.742393 0.002147099 0)
(7.74251 0.002175837 0)
(7.742624 0.002201663 0)
(7.742735 0.002224949 0)
(7.742844 0.00224601 0)
(7.74295 0.002265114 0)
(7.743054 0.002282487 0)
(7.743156 0.002298326 0)
(7.743256 0.002312798 0)
(7.743355 0.002326049 0)
(7.743452 0.002338205 0)
(7.743547 0.002349376 0)
(7.743642 0.002359658 0)
(7.743735 0.002369134 0)
(7.743828 0.002377878 0)
(7.743919 0.002385956 0)
(7.74401 0.002393425 0)
(7.7441 0.002400335 0)
(7.744189 0.002406731 0)
(7.744277 0.002412652 0)
(7.744365 0.002418134 0)
(7.744452 0.002423207 0)
(7.744539 0.002427899 0)
(7.744626 0.002432234 0)
(7.744712 0.002436232 0)
(7.744798 0.002439912 0)
(7.744883 0.00244329 0)
(7.744969 0.002446378 0)
(7.745054 0.00244919 0)
(7.745139 0.002451733 0)
(7.745224 0.002454015 0)
(7.745308 0.002456041 0)
(7.745393 0.002457816 0)
(7.745478 0.002459341 0)
(7.745562 0.002460617 0)
(7.745647 0.002461642 0)
(7.745732 0.002462412 0)
(7.745817 0.002462923 0)
(7.745902 0.002463168 0)
(7.745987 0.002463138 0)
(7.746073 0.002462823 0)
(7.746158 0.002462208 0)
(7.746244 0.00246128 0)
(7.746331 0.002460021 0)
(7.746417 0.002458409 0)
(7.746504 0.002456422 0)
(7.746592 0.002454034 0)
(7.74668 0.002451214 0)
(7.746769 0.002447928 0)
(7.746858 0.002444137 0)
(7.746948 0.002439799 0)
(7.747039 0.002434865 0)
(7.747131 0.002429277 0)
(7.747223 0.002422975 0)
(7.747317 0.002415886 0)
(7.747412 0.00240793 0)
(7.747508 0.002399015 0)
(7.747605 0.002389035 0)
(7.747704 0.002377871 0)
(7.747805 0.002365384 0)
(7.747907 0.002351417 0)
(7.748011 0.002335784 0)
(7.748118 0.002318273 0)
(7.748226 0.002298635 0)
(7.748337 0.002276578 0)
(7.748451 0.002251761 0)
(7.748568 0.002223777 0)
(7.748689 0.002192147 0)
(7.748812 0.002156295 0)
(7.74894 0.002115535 0)
(7.749071 0.002069039 0)
(7.749207 0.00201581 0)
(7.749348 0.001954644 0)
(7.749493 0.001884087 0)
(7.749642 0.001802389 0)
(7.749795 0.001707464 0)
(7.749952 0.001596859 0)
(7.75011 0.001467765 0)
(7.750268 0.001317103 0)
(7.750421 0.001141765 0)
(7.750564 0.0009390397 0)
(7.750692 0.0007076528 0)
(7.750789 0.0004480931 0)
(7.750866 0.0001682193 0)
(11.36069 0.0003481741 0)
(8.508172 0.0006730446 0)
(7.358391 0.0009041295 0)
(7.664632 0.001101453 0)
(7.781117 0.00128573 0)
(7.748461 0.00144995 0)
(7.736846 0.00159194 0)
(7.740494 0.001715154 0)
(7.741818 0.001822587 0)
(7.74158 0.001916268 0)
(7.741594 0.001998054 0)
(7.741764 0.002069657 0)
(7.741903 0.002132535 0)
(7.742022 0.002187915 0)
(7.742141 0.002236832 0)
(7.742259 0.002280166 0)
(7.742373 0.002318657 0)
(7.742484 0.002352933 0)
(7.742593 0.002383526 0)
(7.7427 0.002410892 0)
(7.742804 0.002435417 0)
(7.742906 0.002457434 0)
(7.743007 0.002477231 0)
(7.743106 0.002495055 0)
(7.743203 0.002511121 0)
(7.743299 0.002525615 0)
(7.743394 0.0025387 0)
(7.743487 0.00255052 0)
(7.74358 0.002561199 0)
(7.743671 0.002570848 0)
(7.743761 0.002579563 0)
(7.743851 0.002587432 0)
(7.74394 0.002594528 0)
(7.744028 0.00260092 0)
(7.744116 0.002606668 0)
(7.744203 0.002611823 0)
(7.74429 0.002616434 0)
(7.744376 0.00262054 0)
(7.744462 0.00262418 0)
(7.744547 0.002627385 0)
(7.744632 0.002630184 0)
(7.744717 0.002632601 0)
(7.744802 0.00263466 0)
(7.744886 0.002636377 0)
(7.74497 0.002637769 0)
(7.745054 0.00263885 0)
(7.745138 0.002639629 0)
(7.745222 0.002640116 0)
(7.745306 0.002640317 0)
(7.74539 0.002640236 0)
(7.745474 0.002639874 0)
(7.745558 0.002639232 0)
(7.745642 0.002638308 0)
(7.745726 0.002637096 0)
(7.74581 0.00263559 0)
(7.745895 0.002633781 0)
(7.74598 0.002631658 0)
(7.746065 0.002629208 0)
(7.74615 0.002626413 0)
(7.746235 0.002623256 0)
(7.746321 0.002619712 0)
(7.746408 0.002615758 0)
(7.746495 0.002611364 0)
(7.746582 0.002606496 0)
(7.74667 0.002601117 0)
(7.746758 0.002595186 0)
(7.746848 0.002588653 0)
(7.746937 0.002581466 0)
(7.747028 0.002573562 0)
(7.74712 0.002564873 0)
(7.747212 0.002555322 0)
(7.747306 0.002544819 0)
(7.747401 0.002533264 0)
(7.747497 0.002520545 0)
(7.747594 0.00250653 0)
(7.747693 0.002491072 0)
(7.747793 0.002474 0)
(7.747895 0.00245512 0)
(7.747999 0.002434205 0)
(7.748105 0.002410995 0)
(7.748214 0.002385187 0)
(7.748324 0.002356428 0)
(7.748438 0.002324304 0)
(7.748554 0.002288333 0)
(7.748673 0.002247944 0)
(7.748794 0.002202466 0)
(7.74892 0.002151108 0)
(7.749048 0.002092934 0)
(7.749179 0.002026844 0)
(7.749314 0.001951547 0)
(7.749451 0.001865543 0)
(7.749591 0.001767112 0)
(7.749731 0.001654327 0)
(7.74987 0.001525108 0)
(7.750006 0.001377342 0)
(7.750136 0.001209118 0)
(7.750255 0.001019073 0)
(7.750357 0.0008071346 0)
(7.750434 0.0005745676 0)
(7.750493 0.0003277361 0)
(11.36079 0.0002914062 0)
(8.508254 0.0005631536 0)
(7.358417 0.0007542886 0)
(7.66463 0.0009189496 0)
(7.781096 0.001073718 0)
(7.748418 0.001212452 0)
(7.736783 0.001333508 0)
(7.740414 0.001439636 0)
(7.741725 0.001533093 0)
(7.741476 0.001615376 0)
(7.74148 0.001687883 0)
(7.741643 0.001751927 0)
(7.741775 0.001808641 0)
(7.741889 0.001858993 0)
(7.742003 0.001903815 0)
(7.742117 0.001943821 0)
(7.742228 0.001979623 0)
(7.742337 0.002011744 0)
(7.742444 0.002040633 0)
(7.742549 0.002066675 0)
(7.742653 0.002090205 0)
(7.742754 0.002111508 0)
(7.742854 0.002130832 0)
(7.742952 0.002148394 0)
(7.743049 0.00216438 0)
(7.743145 0.002178954 0)
(7.743239 0.002192259 0)
(7.743333 0.002204421 0)
(7.743425 0.00221555 0)
(7.743516 0.002225743 0)
(7.743607 0.002235085 0)
(7.743697 0.002243651 0)
(7.743786 0.00225151 0)
(7.743874 0.002258719 0)
(7.743962 0.002265332 0)
(7.74405 0.002271394 0)
(7.744137 0.002276947 0)
(7.744223 0.002282027 0)
(7.744309 0.002286665 0)
(7.744395 0.00229089 0)
(7.74448 0.002294726 0)
(7.744565 0.002298194 0)
(7.74465 0.002301313 0)
(7.744735 0.002304099 0)
(7.744819 0.002306563 0)
(7.744904 0.002308717 0)
(7.744988 0.002310568 0)
(7.745072 0.002312122 0)
(7.745156 0.002313384 0)
(7.74524 0.002314354 0)
(7.745325 0.002315033 0)
(7.745409 0.002315418 0)
(7.745493 0.002315503 0)
(7.745577 0.002315282 0)
(7.745662 0.002314747 0)
(7.745746 0.002313885 0)
(7.745831 0.002312682 0)
(7.745916 0.002311123 0)
(7.746002 0.002309188 0)
(7.746087 0.002306855 0)
(7.746173 0.002304099 0)
(7.746259 0.00230089 0)
(7.746346 0.002297197 0)
(7.746433 0.002292981 0)
(7.746521 0.002288203 0)
(7.746609 0.002282815 0)
(7.746698 0.002276764 0)
(7.746788 0.002269992 0)
(7.746878 0.002262432 0)
(7.746969 0.00225401 0)
(7.747061 0.002244641 0)
(7.747154 0.002234232 0)
(7.747247 0.002222674 0)
(7.747342 0.002209847 0)
(7.747439 0.002195614 0)
(7.747536 0.002179818 0)
(7.747635 0.002162282 0)
(7.747735 0.002142802 0)
(7.747837 0.002121146 0)
(7.747941 0.002097047 0)
(7.748047 0.002070198 0)
(7.748155 0.002040245 0)
(7.748264 0.002006777 0)
(7.748376 0.001969322 0)
(7.748491 0.001927329 0)
(7.748607 0.001880161 0)
(7.748726 0.001827082 0)
(7.748847 0.00176724 0)
(7.748971 0.001699657 0)
(7.749096 0.001623221 0)
(7.749222 0.001536682 0)
(7.749349 0.001438667 0)
(7.749475 0.001327712 0)
(7.749598 0.001202337 0)
(7.749717 0.001061173 0)
(7.749828 0.0009031671 0)
(7.749927 0.000727848 0)
(7.750012 0.0005358319 0)
(7.750075 0.0003287288 0)
(7.750123 0.0001116365 0)
(11.36093 0.0002744078 0)
(8.508388 0.0005244648 0)
(7.358523 0.0007046791 0)
(7.664722 0.0008673478 0)
(7.781181 0.001024571 0)
(7.748491 0.001169296 0)
(7.736844 0.001299211 0)
(7.740464 0.001415943 0)
(7.741764 0.001520863 0)
(7.741506 0.001614908 0)
(7.741501 0.001699093 0)
(7.741656 0.001774461 0)
(7.741781 0.001841979 0)
(7.741888 0.001902518 0)
(7.741997 0.001956862 0)
(7.742105 0.002005708 0)
(7.742212 0.002049675 0)
(7.742316 0.002089305 0)
(7.742419 0.002125077 0)
(7.74252 0.00215741 0)
(7.74262 0.002186672 0)
(7.742718 0.002213186 0)
(7.742815 0.002237236 0)
(7.742911 0.002259074 0)
(7.743005 0.002278919 0)
(7.743098 0.002296966 0)
(7.743191 0.002313388 0)
(7.743282 0.002328339 0)
(7.743373 0.002341952 0)
(7.743462 0.002354349 0)
(7.743551 0.002365638 0)
(7.743639 0.002375913 0)
(7.743727 0.002385261 0)
(7.743814 0.002393756 0)
(7.743901 0.002401468 0)
(7.743987 0.002408456 0)
(7.744072 0.002414775 0)
(7.744158 0.002420473 0)
(7.744243 0.002425592 0)
(7.744327 0.002430171 0)
(7.744412 0.002434243 0)
(7.744496 0.002437839 0)
(7.74458 0.002440982 0)
(7.744664 0.002443697 0)
(7.744747 0.002446002 0)
(7.744831 0.002447914 0)
(7.744914 0.002449445 0)
(7.744998 0.002450605 0)
(7.745081 0.002451404 0)
(7.745165 0.002451846 0)
(7.745248 0.002451933 0)
(7.745331 0.002451667 0)
(7.745415 0.002451044 0)
(7.745499 0.002450061 0)
(7.745582 0.002448708 0)
(7.745666 0.002446977 0)
(7.74575 0.002444855 0)
(7.745835 0.002442325 0)
(7.745919 0.002439369 0)
(7.746004 0.002435965 0)
(7.746089 0.002432087 0)
(7.746175 0.002427706 0)
(7.746261 0.002422788 0)
(7.746347 0.002417294 0)
(7.746434 0.002411182 0)
(7.746521 0.002404403 0)
(7.746609 0.002396903 0)
(7.746697 0.002388619 0)
(7.746786 0.002379482 0)
(7.746876 0.002369415 0)
(7.746967 0.00235833 0)
(7.747058 0.002346129 0)
(7.747151 0.0023327 0)
(7.747244 0.002317919 0)
(7.747339 0.002301644 0)
(7.747434 0.002283716 0)
(7.747531 0.002263953 0)
(7.747629 0.00224215 0)
(7.747729 0.002218072 0)
(7.74783 0.002191455 0)
(7.747932 0.002161995 0)
(7.748036 0.002129344 0)
(7.748142 0.002093107 0)
(7.74825 0.002052832 0)
(7.748359 0.002008002 0)
(7.74847 0.001958028 0)
(7.748582 0.001902243 0)
(7.748696 0.001839891 0)
(7.748811 0.001770126 0)
(7.748927 0.001692016 0)
(7.749043 0.001604545 0)
(7.749158 0.001506644 0)
(7.749271 0.001397233 0)
(7.74938 0.001275293 0)
(7.749484 0.001139976 0)
(7.749579 0.0009907721 0)
(7.749664 0.0008276897 0)
(7.749735 0.0006515942 0)
(7.749787 0.0004640542 0)
(7.749826 0.0002690986 0)
(11.36104 0.0002428063 0)
(8.508474 0.0004630558 0)
(7.358575 0.0006210752 0)
(7.66476 0.0007646314 0)
(7.781206 0.0009036687 0)
(7.748501 0.001031691 0)
(7.736838 0.001146734 0)
(7.740444 0.00125022 0)
(7.741733 0.001343312 0)
(7.741463 0.001426808 0)
(7.741448 0.001501581 0)
(7.741594 0.00156854 0)
(7.741712 0.001628528 0)
(7.741812 0.001682308 0)
(7.741915 0.00173057 0)
(7.742019 0.001773933 0)
(7.742121 0.001812944 0)
(7.742222 0.001848089 0)
(7.742321 0.001879795 0)
(7.74242 0.001908438 0)
(7.742517 0.001934348 0)
(7.742614 0.001957816 0)
(7.742709 0.001979098 0)
(7.742803 0.00199842 0)
(7.742896 0.00201598 0)
(7.742988 0.002031954 0)
(7.74308 0.002046496 0)
(7.74317 0.002059745 0)
(7.74326 0.00207182 0)
(7.743349 0.002082831 0)
(7.743438 0.002092872 0)
(7.743526 0.002102029 0)
(7.743613 0.002110377 0)
(7.7437 0.002117983 0)
(7.743786 0.002124907 0)
(7.743873 0.002131202 0)
(7.743958 0.002136914 0)
(7.744043 0.002142085 0)
(7.744128 0.002146752 0)
(7.744213 0.002150947 0)
(7.744298 0.002154699 0)
(7.744382 0.002158031 0)
(7.744466 0.002160965 0)
(7.74455 0.002163519 0)
(7.744633 0.002165707 0)
(7.744717 0.002167542 0)
(7.744801 0.002169032 0)
(7.744884 0.002170186 0)
(7.744968 0.002171006 0)
(7.745051 0.002171495 0)
(7.745135 0.002171651 0)
(7.745218 0.002171473 0)
(7.745302 0.002170954 0)
(7.745385 0.002170086 0)
(7.745469 0.002168859 0)
(7.745553 0.002167259 0)
(7.745637 0.002165271 0)
(7.745721 0.002162875 0)
(7.745806 0.00216005 0)
(7.74589 0.00215677 0)
(7.745975 0.002153006 0)
(7.746061 0.002148726 0)
(7.746146 0.002143891 0)
(7.746232 0.002138462 0)
(7.746319 0.002132391 0)
(7.746406 0.002125625 0)
(7.746493 0.002118106 0)
(7.746581 0.00210977 0)
(7.746669 0.002100541 0)
(7.746759 0.00209034 0)
(7.746848 0.002079074 0)
(7.746939 0.002066641 0)
(7.74703 0.002052926 0)
(7.747122 0.002037801 0)
(7.747216 0.002021122 0)
(7.74731 0.002002726 0)
(7.747405 0.001982431 0)
(7.747501 0.001960031 0)
(7.747598 0.001935295 0)
(7.747697 0.001907961 0)
(7.747796 0.001877733 0)
(7.747897 0.001844278 0)
(7.747999 0.00180722 0)
(7.748103 0.001766134 0)
(7.748208 0.001720543 0)
(7.748313 0.001669912 0)
(7.74842 0.001613647 0)
(7.748527 0.00155109 0)
(7.748635 0.001481523 0)
(7.748742 0.001404177 0)
(7.748849 0.001318246 0)
(7.748954 0.001222915 0)
(7.749055 0.00111741 0)
(7.749153 0.001001058 0)
(7.749245 0.0008733832 0)
(7.749328 0.0007342303 0)
(7.749401 0.000583888 0)
(7.749461 0.0004233114 0)
(7.749505 0.0002539507 0)
(7.749538 7.901505e-05 0)
(11.36114 0.0002253483 0)
(8.508572 0.0004273625 0)
(7.358652 0.0005738455 0)
(7.664828 0.0007100917 0)
(7.781269 0.0008443398 0)
(7.748555 0.0009702866 0)
(7.736884 0.001085884 0)
(7.740482 0.001192026 0)
(7.741763 0.001289369 0)
(7.741486 0.001378303 0)
(7.741465 0.001459353 0)
(7.741604 0.001533134 0)
(7.741716 0.001600253 0)
(7.741812 0.001661291 0)
(7.74191 0.0017168 0)
(7.742009 0.001767294 0)
(7.742108 0.001813247 0)
(7.742205 0.001855091 0)
(7.742301 0.001893217 0)
(7.742397 0.00192798 0)
(7.742491 0.001959698 0)
(7.742585 0.001988658 0)
(7.742678 0.002015118 0)
(7.74277 0.002039306 0)
(7.742861 0.002061431 0)
(7.742951 0.002081677 0)
(7.743041 0.002100212 0)
(7.74313 0.002117183 0)
(7.743218 0.002132725 0)
(7.743306 0.002146958 0)
(7.743393 0.00215999 0)
(7.74348 0.002171918 0)
(7.743566 0.00218283 0)
(7.743651 0.002192804 0)
(7.743737 0.00220191 0)
(7.743822 0.002210212 0)
(7.743906 0.002217766 0)
(7.743991 0.002224624 0)
(7.744075 0.002230831 0)
(7.744158 0.002236426 0)
(7.744242 0.002241447 0)
(7.744325 0.002245925 0)
(7.744409 0.002249888 0)
(7.744492 0.002253359 0)
(7.744575 0.002256359 0)
(7.744658 0.002258907 0)
(7.744741 0.002261015 0)
(7.744823 0.002262696 0)
(7.744906 0.002263958 0)
(7.744989 0.002264807 0)
(7.745072 0.002265245 0)
(7.745154 0.002265273 0)
(7.745237 0.002264887 0)
(7.74532 0.002264083 0)
(7.745403 0.002262852 0)
(7.745487 0.002261183 0)
(7.74557 0.002259061 0)
(7.745653 0.00225647 0)
(7.745737 0.002253388 0)
(7.745821 0.00224979 0)
(7.745905 0.00224565 0)
(7.74599 0.002240933 0)
(7.746075 0.002235604 0)
(7.74616 0.002229621 0)
(7.746245 0.002222936 0)
(7.746331 0.002215498 0)
(7.746417 0.002207247 0)
(7.746504 0.002198118 0)
(7.746592 0.002188035 0)
(7.74668 0.002176918 0)
(7.746768 0.002164674 0)
(7.746857 0.0021512 0)
(7.746947 0.002136381 0)