/*--------------------------------*- C++ -*----------------------------------*\
| =========                 |                                                 |
| \\      /  F ield         | OpenFOAM: The Open Source CFD Toolbox           |
|  \\    /   O peration     | Version:  2.3.0                                 |
|   \\  /    A nd           | Web:      www.OpenFOAM.org                      |
|    \\/     M anipulation  |                                                 |
\*---------------------------------------------------------------------------*/
FoamFile
{
    version     2.0;
    format      ascii;
    class       volVectorField;
    location    "0";
    object      U;
}
// * * * * * * * * * * * * * * * * * * * * * * * * * * * * * * * * * * * * * //

dimensions      [0 1 -1 0 0 0 0];

internalField   nonuniform List<vector> 
12225
(
(9.83972 -1.23842 0)
(9.73872 -0.73149 0)
(9.53698 -0.467335 0)
(9.32318 -0.307408 0)
(9.12438 -0.20596 0)
(8.94079 -0.139599 0)
(8.77069 -0.0949549 0)
(8.61331 -0.0642657 0)
(8.46789 -0.0428297 0)
(8.3335 -0.0276707 0)
(8.2092 -0.0168472 0)
(8.09414 -0.00906467 0)
(7.98757 -0.00344305 0)
(7.88877 0.00063118 0)
(7.79704 0.00361735 0)
(7.7115 0.00604648 0)
(7.6263 0.00948219 0)
(7.56102 -0.0194452 0)
(10.0335 0.447389 0)
(10.0226 0.42693 0)
(9.98834 0.340233 0)
(9.94293 0.270976 0)
(9.89657 0.217799 0)
(9.84853 0.17721 0)
(9.79809 0.146654 0)
(9.74597 0.123665 0)
(9.69303 0.106217 0)
(9.63995 0.0928197 0)
(9.58723 0.0824028 0)
(9.53528 0.0741936 0)
(9.48444 0.0676346 0)
(9.43494 0.0623334 0)
(9.38695 0.05806 0)
(9.34065 0.0549447 0)
(9.29754 0.0541785 0)
(9.263 0.0680632 0)
(9.9929 0.0267775 0)
(10.0022 -0.00877242 0)
(10.0178 -0.027586 0)
(10.0247 -0.0224539 0)
(10.0278 -0.0110948 0)
(10.0281 0.000218732 0)
(10.0255 0.0102943 0)
(10.0204 0.0188251 0)
(10.0135 0.025778 0)
(10.0054 0.0312967 0)
(9.99626 0.0355923 0)
(9.98642 0.0388756 0)
(9.97609 0.0413358 0)
(9.96546 0.0431462 0)
(9.95473 0.0444986 0)
(9.94425 0.0456822 0)
(9.93518 0.0468514 0)
(9.92775 0.0448855 0)
(9.99998 0.0196745 0)
(10.0123 0.0433504 0)
(10.0308 0.0556683 0)
(10.0411 0.06527 0)
(10.0483 0.0706335 0)
(10.0543 0.0723619 0)
(10.0591 0.0721336 0)
(10.0629 0.0709797 0)
(10.0658 0.0693909 0)
(10.0683 0.0676225 0)
(10.0703 0.0658152 0)
(10.0719 0.0640393 0)
(10.0733 0.0623244 0)
(10.0745 0.0606836 0)
(10.0757 0.0591318 0)
(10.0771 0.0576716 0)
(10.0795 0.0560394 0)
(10.0828 0.0525967 0)
(10.0023 0.0186709 0)
(10.0144 0.0407949 0)
(10.0302 0.0467987 0)
(10.0404 0.0491729 0)
(10.0485 0.0505683 0)
(10.056 0.0510886 0)
(10.0629 0.0512494 0)
(10.069 0.0513476 0)
(10.0746 0.0514243 0)
(10.0798 0.0514526 0)
(10.0847 0.0514066 0)
(10.0893 0.0512661 0)
(10.0937 0.0510136 0)
(10.0981 0.0506334 0)
(10.1023 0.0501021 0)
(10.1068 0.0493399 0)
(10.1117 0.0480381 0)
(10.1167 0.045227 0)
(10.0025 0.0189133 0)
(10.0131 0.0369793 0)
(10.0269 0.0431878 0)
(10.0373 0.0464937 0)
(10.0459 0.0491948 0)
(10.0539 0.0509847 0)
(10.0613 0.0520558 0)
(10.0681 0.0526814 0)
(10.0744 0.0529856 0)
(10.0804 0.0530256 0)
(10.086 0.052842 0)
(10.0915 0.0524635 0)
(10.0968 0.0519043 0)
(10.102 0.0511619 0)
(10.1072 0.0502064 0)
(10.1124 0.0489426 0)
(10.1177 0.0471335 0)
(10.1231 0.0443272 0)
(10.0022 0.0166133 0)
(10.0111 0.0317062 0)
(10.0232 0.0386711 0)
(10.0334 0.0426301 0)
(10.042 0.0455524 0)
(10.0502 0.0474283 0)
(10.0577 0.0484923 0)
(10.0647 0.0490523 0)
(10.0713 0.0492755 0)
(10.0775 0.049241 0)
(10.0835 0.0489943 0)
(10.0893 0.0485604 0)
(10.0949 0.0479455 0)
(10.1004 0.0471356 0)
(10.1058 0.0460887 0)
(10.1112 0.0447137 0)
(10.1165 0.0428473 0)
(10.1217 0.0402842 0)
(10.0019 0.0146596 0)
(10.0095 0.0280495 0)
(10.0202 0.0353163 0)
(10.0299 0.0395438 0)
(10.0384 0.0425197 0)
(10.0464 0.0444677 0)
(10.054 0.0456232 0)
(10.061 0.0462614 0)
(10.0677 0.0465429 0)
(10.074 0.0465469 0)
(10.0801 0.0463176 0)
(10.086 0.0458792 0)
(10.0917 0.045237 0)
(10.0973 0.044377 0)
(10.1027 0.0432617 0)
(10.1081 0.0418212 0)
(10.1132 0.0399539 0)
(10.1182 0.0375849 0)
(10.0017 0.0130731 0)
(10.0082 0.0250859 0)
(10.0178 0.0322488 0)
(10.0268 0.0365723 0)
(10.0351 0.0395764 0)
(10.0429 0.0415753 0)
(10.0504 0.0427955 0)
(10.0574 0.043483 0)
(10.0641 0.043792 0)
(10.0705 0.0438044 0)
(10.0766 0.0435672 0)
(10.0825 0.0431064 0)
(10.0882 0.0424291 0)
(10.0938 0.0415245 0)
(10.0992 0.0403629 0)
(10.1044 0.0388945 0)
(10.1094 0.0370583 0)
(10.1142 0.0348468 0)
(10.0015 0.0115161 0)
(10.0071 0.022128 0)
(10.0154 0.0289731 0)
(10.0237 0.0332929 0)
(10.0316 0.0362882 0)
(10.0392 0.0383085 0)
(10.0464 0.0395706 0)
(10.0534 0.040292 0)
(10.06 0.0406191 0)
(10.0663 0.0406354 0)
(10.0724 0.0403898 0)
(10.0783 0.0399101 0)
(10.084 0.0392061 0)
(10.0895 0.0382721 0)
(10.0948 0.037089 0)
(10.0999 0.0356273 0)
(10.1047 0.0338591 0)
(10.1093 0.0318157 0)
(10.0013 0.00996495 0)
(10.006 0.0191742 0)
(10.0131 0.0255388 0)
(10.0207 0.029736 0)
(10.0281 0.0326534 0)
(10.0353 0.0346416 0)
(10.0423 0.0359051 0)
(10.049 0.036633 0)
(10.0555 0.0369605 0)
(10.0617 0.0369696 0)
(10.0677 0.0367103 0)
(10.0735 0.0362116 0)
(10.0791 0.035487 0)
(10.0845 0.0345375 0)
(10.0897 0.0333554 0)
(10.0946 0.0319299 0)
(10.0992 0.0302571 0)
(10.1037 0.0283859 0)
(10.0011 0.0084321 0)
(10.005 0.0162623 0)
(10.0111 0.0219934 0)
(10.0179 0.0259323 0)
(10.0248 0.0286897 0)
(10.0315 0.0305833 0)
(10.0382 0.0318005 0)
(10.0446 0.0325016 0)
(10.0509 0.0328071 0)
(10.0569 0.032795 0)
(10.0627 0.0325149 0)
(10.0684 0.0319974 0)
(10.0738 0.03126 0)
(10.079 0.0303109 0)
(10.084 0.0291531 0)
(10.0887 0.0277901 0)
(10.0931 0.0262339 0)
(10.0974 0.0245377 0)
(10.0009 0.00693293 0)
(10.0042 0.0134116 0)
(10.0094 0.018372 0)
(10.0154 0.0219105 0)
(10.0216 0.0244136 0)
(10.0279 0.0261408 0)
(10.0342 0.0272551 0)
(10.0403 0.0278887 0)
(10.0463 0.0281446 0)
(10.0521 0.0280942 0)
(10.0577 0.0277851 0)
(10.0631 0.0272491 0)
(10.0683 0.0265073 0)
(10.0733 0.0255739 0)
(10.0781 0.0244606 0)
(10.0826 0.0231805 0)
(10.0868 0.0217534 0)
(10.0909 0.0202301 0)
(10.0008 0.00547371 0)
(10.0035 0.010623 0)
(10.0079 0.0146997 0)
(10.0132 0.0176985 0)
(10.0189 0.0198422 0)
(10.0246 0.0213211 0)
(10.0305 0.022267 0)
(10.0363 0.0227849 0)
(10.0419 0.0229588 0)
(10.0474 0.0228505 0)
(10.0528 0.0225037 0)
(10.058 0.0219498 0)
(10.0629 0.021212 0)
(10.0677 0.0203086 0)
(10.0722 0.0192566 0)
(10.0765 0.0180738 0)
(10.0805 0.0167827 0)
(10.0844 0.0154278 0)
(10.0006 0.00404997 0)
(10.0029 0.00788132 0)
(10.0067 0.0109831 0)
(10.0114 0.0133128 0)
(10.0165 0.0149854 0)
(10.0218 0.0161256 0)
(10.0272 0.01683 0)
(10.0326 0.0171771 0)
(10.038 0.0172308 0)
(10.0432 0.0170408 0)
(10.0483 0.0166448 0)
(10.0532 0.0160713 0)
(10.0579 0.0153431 0)
(10.0624 0.0144799 0)
(10.0667 0.0135 0)
(10.0708 0.0124222 0)
(10.0746 0.0112678 0)
(10.0783 0.0100739 0)
(10.0006 0.00264415 0)
(10.0025 0.00515086 0)
(10.0058 0.00719786 0)
(10.0099 0.00874002 0)
(10.0145 0.00982863 0)
(10.0194 0.0105346 0)
(10.0245 0.0109194 0)
(10.0295 0.011035 0)
(10.0346 0.0109251 0)
(10.0395 0.0106255 0)
(10.0443 0.0101646 0)
(10.049 0.00956567 0)
(10.0535 0.00884825 0)
(10.0577 0.00802993 0)
(10.0618 0.00712737 0)
(10.0657 0.00615717 0)
(10.0693 0.00513708 0)
(10.0729 0.00409695 0)
(10.0005 0.00122387 0)
(10.0022 0.00237147 0)
(10.0052 0.00328289 0)
(10.0089 0.00392771 0)
(10.0131 0.00432301 0)
(10.0177 0.00449908 0)
(10.0224 0.0044849 0)
(10.0272 0.00430639 0)
(10.0319 0.00398654 0)
(10.0366 0.00354515 0)
(10.0412 0.00299896 0)
(10.0457 0.00236268 0)
(10.0499 0.00164959 0)
(10.054 0.000872151 0)
(10.0579 4.24572e-05 0)
(10.0616 -0.000827457 0)
(10.0651 -0.00172484 0)
(10.0685 -0.00262694 0)
(10.0005 -0.000174997 0)
(10.0021 -0.000378412 0)
(10.0049 -0.00062415 0)
(10.0084 -0.000919525 0)
(10.0125 -0.0012658 0)
(10.0168 -0.00166459 0)
(10.0214 -0.00211657 0)
(10.026 -0.0026205 0)
(10.0306 -0.00317391 0)
(10.0351 -0.0037736 0)
(10.0395 -0.00441569 0)
(10.0438 -0.00509587 0)
(10.0479 -0.00580917 0)
(10.0519 -0.00655009 0)
(10.0556 -0.0073126 0)
(10.0592 -0.00809022 0)
(10.0626 -0.00887553 0)
(10.0659 -0.00965257 0)
(10.0005 -0.00146829 0)
(10.0021 -0.00292961 0)
(10.0049 -0.00426009 0)
(10.0085 -0.00543559 0)
(10.0125 -0.00647223 0)
(10.0169 -0.00740372 0)
(10.0214 -0.00825955 0)
(10.026 -0.00906166 0)
(10.0305 -0.0098271 0)
(10.035 -0.0105691 0)
(10.0393 -0.0112969 0)
(10.0436 -0.0120168 0)
(10.0476 -0.0127323 0)
(10.0515 -0.0134448 0)
(10.0552 -0.0141544 0)
(10.0587 -0.0148599 0)
(10.0621 -0.0155587 0)
(10.0653 -0.0162404 0)
(10.0005 -0.00265618 0)
(10.0022 -0.00528715 0)
(10.0052 -0.00761657 0)
(10.009 -0.00957483 0)
(10.0132 -0.0112058 0)
(10.0177 -0.0125864 0)
(10.0223 -0.0137757 0)
(10.0269 -0.0148174 0)
(10.0315 -0.0157472 0)
(10.036 -0.0165938 0)
(10.0404 -0.0173784 0)
(10.0446 -0.0181164 0)
(10.0486 -0.0188187 0)
(10.0525 -0.0194933 0)
(10.0562 -0.0201453 0)
(10.0597 -0.0207781 0)
(10.063 -0.0213929 0)
(10.0662 -0.0219832 0)
(10.0005 -0.00378256 0)
(10.0024 -0.00756508 0)
(10.0057 -0.0108505 0)
(10.0098 -0.0135024 0)
(10.0143 -0.015634 0)
(10.019 -0.0173856 0)
(10.0238 -0.0188446 0)
(10.0286 -0.0200742 0)
(10.0333 -0.0211294 0)
(10.0379 -0.0220537 0)
(10.0423 -0.0228786 0)
(10.0465 -0.0236272 0)
(10.0506 -0.0243167 0)
(10.0545 -0.0249599 0)
(10.0582 -0.0255668 0)
(10.0617 -0.0261447 0)
(10.065 -0.0266991 0)
(10.0682 -0.0272288 0)
(10.0005 -0.00485009 0)
(10.0026 -0.00983968 0)
(10.0063 -0.0140641 0)
(10.0109 -0.017301 0)
(10.0158 -0.0198214 0)
(10.0208 -0.0218512 0)
(10.0259 -0.0234977 0)
(10.0308 -0.0248429 0)
(10.0357 -0.0259611 0)
(10.0403 -0.0269088 0)
(10.0448 -0.0277263 0)
(10.0491 -0.0284431 0)
(10.0532 -0.0290818 0)
(10.0571 -0.0296599 0)
(10.0608 -0.0301912 0)
(10.0643 -0.0306869 0)
(10.0675 -0.031155 0)
(10.0707 -0.0315968 0)
(10.0005 -0.00582555 0)
(10.0027 -0.0121877 0)
(10.0071 -0.0173571 0)
(10.0124 -0.0210808 0)
(10.0177 -0.0239234 0)
(10.023 -0.0261864 0)
(10.0283 -0.0279844 0)
(10.0334 -0.0294264 0)
(10.0384 -0.0306089 0)
(10.0431 -0.031597 0)
(10.0477 -0.0324336 0)
(10.052 -0.0331503 0)
(10.0561 -0.0337715 0)
(10.06 -0.0343168 0)
(10.0637 -0.0348025 0)
(10.0672 -0.0352437 0)
(10.0704 -0.0356553 0)
(10.0736 -0.0360503 0)
(10.0002 -0.00663375 0)
(10.0027 -0.0146578 0)
(10.0079 -0.0205666 0)
(10.0139 -0.0245007 0)
(10.0196 -0.0275189 0)
(10.0252 -0.029883 0)
(10.0307 -0.0316742 0)
(10.0359 -0.0330466 0)
(10.041 -0.0341335 0)
(10.0458 -0.0350159 0)
(10.0503 -0.0357445 0)
(10.0546 -0.0363554 0)
(10.0587 -0.0368747 0)
(10.0626 -0.0373221 0)
(10.0662 -0.0377133 0)
(10.0696 -0.0380627 0)
(10.0728 -0.0383849 0)
(10.0758 -0.0386912 0)
(9.99982 -0.00722833 0)
(10.0024 -0.0181401 0)
(10.0087 -0.0246965 0)
(10.0154 -0.0286204 0)
(10.0214 -0.0318973 0)
(10.0272 -0.0346041 0)
(10.0328 -0.0366953 0)
(10.0381 -0.0383115 0)
(10.0431 -0.0395781 0)
(10.0479 -0.0405708 0)
(10.0524 -0.0413444 0)
(10.0566 -0.0419437 0)
(10.0606 -0.0424043 0)
(10.0643 -0.0427537 0)
(10.0678 -0.0430142 0)
(10.0711 -0.0432078 0)
(10.0741 -0.0433628 0)
(10.0771 -0.0435238 0)
(9.99841 -0.00501951 0)
(10.0007 -0.0202893 0)
(10.0088 -0.0271051 0)
(10.016 -0.0298115 0)
(10.0219 -0.0317568 0)
(10.0276 -0.0332578 0)
(10.0332 -0.0344536 0)
(10.0385 -0.0355261 0)
(10.0435 -0.0365355 0)
(10.0481 -0.0374775 0)
(10.0525 -0.0383425 0)
(10.0565 -0.0391257 0)
(10.0603 -0.0398247 0)
(10.0639 -0.0404377 0)
(10.0672 -0.0409636 0)
(10.0702 -0.0414044 0)
(10.0729 -0.0417711 0)
(10.0753 -0.0420901 0)
(9.99479 -0.00318719 0)
(9.99583 -0.0256795 0)
(10.0072 -0.0394663 0)
(10.0157 -0.0487319 0)
(10.0218 -0.054639 0)
(10.0272 -0.0576145 0)
(10.0323 -0.0587605 0)
(10.0368 -0.058929 0)
(10.0409 -0.0585653 0)
(10.0446 -0.0579076 0)
(10.0481 -0.0571018 0)
(10.0512 -0.0562369 0)
(10.0541 -0.055363 0)
(10.0567 -0.0545036 0)
(10.059 -0.0536638 0)
(10.0611 -0.0528352 0)
(10.0629 -0.0520118 0)
(10.0645 -0.0512023 0)
(9.98519 0.0057668 0)
(9.98187 0.0248666 0)
(9.99411 0.0365107 0)
(10.0037 0.0321385 0)
(10.0109 0.0223054 0)
(10.0167 0.0122845 0)
(10.0211 0.00312704 0)
(10.024 -0.00497228 0)
(10.0259 -0.0119441 0)
(10.0269 -0.0178302 0)
(10.0272 -0.0227435 0)
(10.0269 -0.0268157 0)
(10.0261 -0.0301703 0)
(10.0248 -0.0329132 0)
(10.0232 -0.035127 0)
(10.0213 -0.0368618 0)
(10.0191 -0.0381334 0)
(10.0161 -0.0388368 0)
(10.0137 -0.317342 0)
(10.0102 -0.326326 0)
(9.99895 -0.271524 0)
(9.98283 -0.224891 0)
(9.96835 -0.188168 0)
(9.95437 -0.158842 0)
(9.93927 -0.135772 0)
(9.92274 -0.117761 0)
(9.90501 -0.10364 0)
(9.88628 -0.0924766 0)
(9.86676 -0.0835747 0)
(9.84663 -0.0764139 0)
(9.8261 -0.0705997 0)
(9.80533 -0.0658291 0)
(9.78449 -0.0618616 0)
(9.76373 -0.0584855 0)
(9.74325 -0.0554719 0)
(9.7224 -0.0522051 0)
(9.95412 0.913092 0)
(9.95406 0.561002 0)
(9.86626 0.375415 0)
(9.7529 0.258525 0)
(9.63884 0.180489 0)
(9.52774 0.126934 0)
(9.41987 0.0891673 0)
(9.31602 0.0619604 0)
(9.21683 0.0420726 0)
(9.12254 0.0273831 0)
(9.03317 0.016448 0)
(8.94862 0.00826118 0)
(8.86876 0.00210913 0)
(8.7934 -0.0025206 0)
(8.72236 -0.00599796 0)
(8.65545 -0.00858329 0)
(8.59274 -0.0104216 0)
(8.53229 -0.0113573 0)
(0.00561396 -0.0136162 0)
(0.0156083 -0.0164708 0)
(0.023798 -0.0129674 0)
(0.0281913 -0.00717447 0)
(0.0273145 -0.000702786 0)
(0.0217216 0.00559308 0)
(0.0124164 0.0111251 -4.03861e-19)
(-0.000448708 0.0156464 4.03775e-19)
(-0.0159583 0.0187498 0)
(-0.0331671 0.0208221 3.14775e-19)
(-0.0521092 0.0224696 0)
(-0.0725367 0.0239197 0)
(-0.0943072 0.0252191 0)
(-0.117298 0.0263651 -1.93126e-19)
(-0.141387 0.0273508 0)
(-0.166453 0.0281767 0)
(-0.192379 0.0288503 1.4536e-19)
(-0.219052 0.0293842 0)
(-0.246372 0.0297929 0)
(-0.274244 0.030092 0)
(-0.302587 0.0302964 -1.07728e-19)
(-0.331328 0.0304204 0)
(-0.360405 0.0304769 -9.51571e-20)
(-0.389765 0.0304775 0)
(-0.419362 0.0304325 0)
(-0.449159 0.0303507 -8.09568e-20)
(-0.479127 0.0302399 0)
(-0.50924 0.0301063 7.36643e-20)
(-0.53948 0.0299554 0)
(-0.569831 0.0297915 -6.76191e-20)
(-0.600284 0.0296179 0)
(-0.63083 0.0294372 0)
(-0.661465 0.0292513 0)
(-0.692184 0.0290614 0)
(-0.722987 0.028868 0)
(-0.753872 0.0286715 5.44753e-20)
(-0.78484 0.0284718 0)
(-0.81589 0.0282686 -1.02461e-19)
(-0.847022 0.0280619 0)
(-0.878238 0.0278522 9.67656e-20)
(-0.909536 0.0276405 0)
(-0.94092 0.0274297 0)
(-0.9724 0.0272272 -8.94185e-20)
(-1.00397 0.0270468 0)
(-1.03563 0.0269038 -8.51471e-20)
(-1.06744 0.0267967 8.31669e-20)
(-1.09941 0.0267068 0)
(-1.13155 0.0266255 7.94892e-20)
(-1.16387 0.0265476 7.77778e-20)
(-1.19637 0.0264699 0)
(-1.22903 0.0263897 0)
(-1.26187 0.0263053 0)
(-1.29487 0.0262149 0)
(-1.32802 0.0261173 0)
(-1.36131 0.0260112 -6.89661e-20)
(-1.39473 0.0258957 0)
(-1.42827 0.0257697 6.64868e-20)
(-1.46192 0.0256323 0)
(-1.49564 0.0254829 0)
(-1.52944 0.0253206 -6.31096e-20)
(-1.56328 0.0251448 0)
(-1.59715 0.0249548 6.10564e-20)
(-1.63102 0.0247503 0)
(-1.66488 0.0245305 0)
(-1.6987 0.024295 0)
(-1.73245 0.0240435 -5.73467e-20)
(-1.7661 0.0237754 0)
(-1.79964 0.0234905 0)
(-1.83303 0.0231882 -5.48519e-20)
(-1.86623 0.0228683 0)
(-1.89923 0.0225304 -5.33002e-20)
(-1.93198 0.0221741 0)
(-1.96446 0.0217992 0)
(-1.99663 0.0214051 0)
(-2.02846 0.0209916 5.04093e-20)
(-2.0599 0.0205582 0)
(-2.09092 0.0201045 0)
(-2.12148 0.01963 4.83833e-20)
(-2.15154 0.0191345 4.7728e-20)
(-2.18105 0.0186173 0)
(-2.20998 0.018078 4.64398e-20)
(-2.23826 0.0175161 0)
(-2.26587 0.0169313 9.0347e-20)
(-2.29274 0.0163231 0)
(-2.31884 0.0156913 8.78388e-20)
(-2.34409 0.0150354 0)
(-2.36846 0.0143554 -8.5336e-20)
(-2.39189 0.0136512 0)
(-2.41431 0.012923 0)
(-2.43568 0.0121711 0)
(-2.45594 0.0113958 8.02709e-20)
(-2.47502 0.0105981 0)
(-2.49288 0.00977882 -7.76709e-20)
(-2.50946 0.00893925 0)
(-2.5247 0.00808084 7.50007e-20)
(-2.53855 0.00720524 7.36334e-20)
(-2.55097 0.00631428 7.22415e-20)
(-2.5619 0.00540985 0)
(-2.5713 0.00449391 0)
(-2.57913 0.00356821 0)
(-2.58536 0.00263374 0)
(-2.58995 0.00169045 0)
(-2.59286 0.000743997 0)
(-2.59406 -0.00019248 0)
(-2.59357 -0.00111543 0)
(-2.59137 -0.00202969 -5.81229e-20)
(-2.58747 -0.00293598 -5.63266e-20)
(-2.58186 -0.00383456 0)
(-2.57454 -0.00472546 0)
(-2.56549 -0.00560877 0)
(-2.55471 -0.0064844 -4.86139e-20)
(-2.54221 -0.00735235 0)
(-2.52797 -0.00821246 0)
(-2.512 -0.00906469 0)
(-2.4943 -0.00990879 0)
(-2.47485 -0.0107446 3.76022e-20)
(-2.45367 -0.0115719 0)
(-2.43076 -0.0123903 0)
(-2.40611 -0.0131995 -3.01339e-20)
(-2.37974 -0.0139992 2.74825e-20)
(-2.35164 -0.0147887 0)
(-2.32183 -0.015568 2.19157e-20)
(-2.29032 -0.0163366 0)
(-2.25712 -0.0170944 -1.59711e-20)
(-2.22223 -0.017841 0)
(-2.18568 -0.0185764 0)
(-2.14748 -0.0193001 0)
(-2.10764 -0.0200118 0)
(-2.06619 -0.0207109 0)
(-2.02315 -0.0213967 -8.99667e-21)
(-1.97855 -0.0220688 -1.67046e-20)
(-1.9324 -0.0227269 0)
(-1.88475 -0.023371 0)
(-1.83562 -0.0240008 0)
(-1.78505 -0.0246163 5.05736e-20)
(-1.73306 -0.0252166 0)
(-1.6797 -0.0258009 0)
(-1.62502 -0.0263687 0)
(-1.56905 -0.0269203 9.01971e-20)
(-1.51184 -0.0274562 -1.01174e-19)
(-1.45344 -0.0279762 0)
(-1.3939 -0.0284787 0)
(-1.33327 -0.0289633 -1.37155e-19)
(-1.27161 -0.0294316 -1.50288e-19)
(-1.20898 -0.0298849 0)
(-1.14543 -0.0303204 0)
(-1.08103 -0.0307367 1.93739e-19)
(-1.01584 -0.0311409 -2.09759e-19)
(-0.949921 -0.0315302 0)
(-0.883345 -0.0318959 0)
(-0.816176 -0.0322557 -2.63407e-19)
(-0.748467 -0.0326026 0)
(-0.680299 -0.032926 0)
(-0.611732 -0.0332471 -3.27425e-19)
(-0.542855 -0.0335398 0)
(-0.473699 -0.0338475 -3.77553e-19)
(-0.404379 -0.0341395 0)
(-0.334846 -0.0344455 0)
(-0.265359 -0.034764 0)
(-0.195654 -0.0350604 5.02728e-19)
(-0.125967 -0.0354543 0)
(-0.0570514 -0.0358928 0)
(0.013548 -0.035499 0)
(0.0819232 -0.0341359 0)
(0.149323 -0.0327843 0)
(0.215831 -0.0315769 0)
(0.281473 -0.0304669 5.45028e-19)
(0.346287 -0.0294243 5.3175e-19)
(0.410276 -0.0284302 0)
(0.473415 -0.027471 0)
(0.535666 -0.0265344 0)
(0.596961 -0.0256057 -4.88079e-19)
(0.657202 -0.0246646 0)
(0.71621 -0.0236741 9.41426e-19)
(0.773717 -0.0225747 -9.26155e-19)
(0.829072 -0.0212098 -9.1258e-19)
(0.881529 -0.0193636 9.01324e-19)
(0.927309 -0.0160488 -8.94139e-19)
(0.967096 -0.0104109 8.95008e-19)
(0.953177 0.00800765 0)
(0.00284706 -0.0303261 0)
(0.0054141 -0.0267079 0)
(0.00248072 -0.0128974 4.49342e-19)
(-0.00465133 0.00246311 0)
(-0.0145271 0.0163921 -2.96841e-19)
(-0.0267605 0.0281551 -2.68191e-19)
(-0.0410322 0.0377323 -1.24453e-19)
(-0.0571038 0.0453275 -1.16837e-19)
(-0.0748037 0.0512534 0)
(-0.0939843 0.0559872 -1.03369e-19)
(-0.114504 0.0599415 0)
(-0.136185 0.0633372 0)
(-0.15887 0.0662811 1.71412e-19)
(-0.182426 0.0688209 8.06737e-20)
(-0.206743 0.0709828 -1.51881e-19)
(-0.231723 0.0727894 -1.43301e-19)
(-0.257278 0.0742659 -6.77772e-20)
(-0.28333 0.0754407 0)
(-0.309808 0.0763445 0)
(-0.336648 0.0770086 0)
(-0.363796 0.0774639 -5.50791e-20)
(-0.391202 0.07774 0)
(-0.418826 0.0778644 1.5098e-19)
(-0.446632 0.0778625 0)
(-0.474592 0.0777569 0)
(-0.502682 0.077568 4.44823e-20)
(-0.530886 0.0773136 0)
(-0.55919 0.0770088 -4.12676e-20)
(-0.587584 0.0766668 -7.95603e-20)
(-0.616062 0.0762985 3.84942e-20)
(-0.644623 0.0759131 0)
(-0.673266 0.0755176 0)
(-0.701993 0.075118 0)
(-0.730807 0.0747187 -6.78313e-20)
(-0.759713 0.0743227 -6.5909e-20)
(-0.788719 0.0739325 -3.21046e-20)
(-0.81783 0.0735493 0)
(-0.847055 0.0731741 6.08984e-20)
(-0.876402 0.0728071 0)
(-0.90588 0.0724487 -5.79424e-20)
(-0.935498 0.0720992 0)
(-0.965265 0.0717594 0)
(-0.995193 0.0714329 5.40622e-20)
(-1.02529 0.0711295 0)
(-1.05555 0.0708616 1.55103e-19)
(-1.08597 0.0706274 -5.07125e-20)
(-1.11655 0.0704129 0)
(-1.14728 0.0702076 -4.87103e-20)
(-1.17816 0.0700035 -4.77688e-20)
(-1.20918 0.0697941 0)
(-1.24035 0.0695746 0)
(-1.27165 0.0693405 0)
(-1.30309 0.0690884 0)
(-1.33463 0.0688151 0)
(-1.36629 0.0685177 4.28121e-20)
(-1.39804 0.0681936 8.3928e-20)
(-1.42988 0.0678406 -4.13803e-20)
(-1.46178 0.0674565 0)
(-1.49373 0.0670393 7.98388e-20)
(-1.52571 0.0665875 -3.9161e-20)
(-1.55771 0.0660992 0)
(-1.5897 0.0655731 -3.81749e-20)
(-1.62167 0.0650078 0)
(-1.65358 0.0644022 0)
(-1.68543 0.063755 -7.2695e-20)
(-1.71717 0.0630654 3.59214e-20)
(-1.7488 0.0623323 -7.05592e-20)
(-1.78028 0.0615549 6.95291e-20)
(-1.81158 0.0607324 3.43718e-20)
(-1.84268 0.059864 0)
(-1.87355 0.0589488 3.33925e-20)
(-1.90415 0.0579862 0)
(-1.93445 0.0569754 0)
(-1.96443 0.0559154 0)
(-1.99404 0.0548057 3.13329e-20)
(-2.02326 0.0536451 0)
(-2.05204 0.0524329 6.10941e-20)
(-2.08035 0.0511681 -9.04265e-20)
(-2.10815 0.0498496 -2.97699e-20)
(-2.13539 0.0484765 0)
(-2.16204 0.0470476 -2.89082e-20)
(-2.18805 0.045562 0)
(-2.21337 0.0440186 -5.61057e-20)
(-2.23795 0.0424167 0)
(-2.26175 0.0407554 -5.43965e-20)
(-2.28472 0.0390342 1.06803e-19)
(-2.3068 0.0372529 5.26784e-20)
(-2.32793 0.0354115 0)
(-2.34807 0.0335105 0)
(-2.36716 0.0315509 0)
(-2.38514 0.0295342 -4.9174e-20)
(-2.40195 0.0274626 0)
(-2.41754 0.0253389 4.73683e-20)
(-2.43186 0.0231667 0)
(-2.44484 0.0209502 -1.36437e-19)
(-2.45643 0.0186943 -4.45682e-20)
(-2.4666 0.0164045 -4.36065e-20)
(-2.47528 0.0140863 0)
(-2.48244 0.0117458 0)
(-2.48803 0.0093881 0)
(-2.49202 0.00701586 0)
(-2.49437 0.00462878 0)
(-2.49502 0.00224491 -7.49976e-20)
(-2.49402 -0.000107467 -7.27925e-20)
(-2.49135 -0.00242229 0)
(-2.48699 -0.00470417 3.40512e-20)
(-2.48094 -0.00695442 3.28683e-20)
(-2.4732 -0.00917339 0)
(-2.46376 -0.011361 6.10752e-20)
(-2.45262 -0.013517 0)
(-2.43976 -0.0156412 -2.815e-20)
(-2.4252 -0.017733 0)
(-2.40891 -0.019792 0)
(-2.3909 -0.0218176 4.80489e-20)
(-2.37117 -0.023809 0)
(-2.34972 -0.0257656 -2.10248e-20)
(-2.32654 -0.0276864 0)
(-2.30164 -0.0295703 0)
(-2.27502 -0.031416 -1.70197e-20)
(-2.24668 -0.0332223 -1.50063e-20)
(-2.21664 -0.0349877 0)
(-2.18489 -0.036711 1.23438e-20)
(-2.15144 -0.038391 0)
(-2.11632 -0.0400268 -9.06626e-21)
(-2.07953 -0.0416174 -1.41534e-20)
(-2.04108 -0.043162 0)
(-2.00099 -0.0446594 0)
(-1.95928 -0.0461086 0)
(-1.91596 -0.0475077 0)
(-1.87107 -0.0488548 4.55102e-21)
(-1.82462 -0.050148 2.36431e-20)
(-1.77665 -0.0513864 0)
(-1.72718 -0.0525691 0)
(-1.67625 -0.0536958 0)
(-1.62389 -0.0547659 -2.43298e-20)
(-1.57014 -0.0557776 0)
(-1.51503 -0.056728 0)
(-1.45862 -0.0576158 7.2267e-20)
(-1.40094 -0.058441 3.95858e-20)
(-1.34205 -0.0592047 4.57916e-20)
(-1.28198 -0.0599065 0)
(-1.2208 -0.0605428 0)
(-1.15857 -0.0611117 5.94652e-20)
(-1.09533 -0.0616163 -6.22224e-20)
(-1.03116 -0.0620596 0)
(-0.966095 -0.0624363 0)
(-0.900222 -0.0627421 -7.86021e-20)
(-0.833601 -0.0629909 2.48611e-19)
(-0.766285 -0.0631798 0)
(-0.698357 -0.0632904 0)
(-0.629883 -0.0633531 9.8743e-20)
(-0.560919 -0.0633606 0)
(-0.491544 -0.063293 2.16266e-19)
(-0.421816 -0.063186 -1.12387e-19)
(-0.351835 -0.0630011 0)
(-0.281594 -0.0627959 1.25285e-19)
(-0.211287 -0.0625444 2.59425e-19)
(-0.140732 -0.0622546 0)
(-0.0703855 -0.0619732 0)
(0.000322034 -0.0615561 -1.46388e-19)
(0.0706935 -0.0610401 0)
(0.140134 -0.0606014 2.97771e-19)
(0.209299 -0.0596804 0)
(0.277627 -0.0581542 0)
(0.345354 -0.0566614 0)
(0.412306 -0.0552602 0)
(0.478467 -0.0539247 -1.5649e-19)
(0.543821 -0.0526279 -1.57642e-19)
(0.608347 -0.0513498 0)
(0.672014 -0.0500744 0)
(0.734778 -0.0487852 0)
(0.796571 -0.047459 1.61497e-19)
(0.857295 -0.0460587 0)
(0.91678 -0.0445159 -3.26125e-19)
(0.974773 -0.0427077 3.27613e-19)
(1.03072 -0.0403594 3.29158e-19)
(1.08404 -0.0369879 3.28843e-19)
(1.13206 -0.0311673 3.3335e-19)
(1.17665 -0.0205436 3.35875e-19)
(1.19452 0.00314026 0)
(-0.00204158 -0.0300003 0)
(-0.00864587 -0.0133531 0)
(-0.0195377 0.00837242 -2.79835e-19)
(-0.0320363 0.0274067 -2.08923e-19)
(-0.0458561 0.0438712 1.77344e-19)
(-0.0607347 0.0580269 1.60032e-19)
(-0.07667 0.0700365 5.0653e-23)
(-0.0936988 0.0800929 0)
(-0.111831 0.0884527 0)
(-0.131027 0.0954241 0)
(-0.151191 0.101294 0)
(-0.1722 0.106274 0)
(-0.193933 0.110503 -3.21856e-19)
(-0.216286 0.114075 0)
(-0.239169 0.117055 9.6811e-20)
(-0.262508 0.119498 9.20999e-20)
(-0.286241 0.121453 0)
(-0.310316 0.122971 0)
(-0.334686 0.124101 0)
(-0.359312 0.124889 0)
(-0.384161 0.125383 7.32572e-20)
(-0.409204 0.125624 0)
(-0.434418 0.125654 -6.75267e-20)
(-0.459783 0.12551 0)
(-0.485283 0.125223 0)
(-0.510907 0.124824 0)
(-0.536646 0.124339 -1.16551e-19)
(-0.562493 0.123789 0)
(-0.588446 0.123193 5.45797e-20)
(-0.614504 0.122568 -1.05702e-19)
(-0.640666 0.121927 0)
(-0.666936 0.121279 0)
(-0.693318 0.120634 0)
(-0.719815 0.119998 4.70948e-20)
(-0.746433 0.119376 4.58473e-20)
(-0.77318 0.11877 0)
(-0.80006 0.118184 0)
(-0.827082 0.117618 -8.48747e-20)
(-0.854252 0.117073 -8.28598e-20)
(-0.881577 0.11655 8.09437e-20)
(-0.909064 0.116049 0)
(-0.936717 0.11557 0)
(-0.964542 0.115113 0)
(-0.992539 0.114679 0)
(-1.0207 0.11427 -7.27276e-20)
(-1.04903 0.11388 -7.11369e-20)
(-1.07752 0.113501 6.97302e-20)
(-1.10615 0.113124 0)
(-1.13493 0.112742 0)
(-1.16385 0.112346 0)
(-1.19291 0.111931 0)
(-1.22209 0.111491 -6.34308e-20)
(-1.25139 0.11102 0)
(-1.2808 0.110514 0)
(-1.3103 0.109968 -6.01415e-20)
(-1.33989 0.10938 -5.92535e-20)
(-1.36955 0.108744 0)
(-1.39927 0.108059 1.14299e-19)
(-1.42903 0.10732 -5.63505e-20)
(-1.45881 0.106525 5.54374e-20)
(-1.4886 0.105672 0)
(-1.51838 0.104758 0)
(-1.54812 0.103782 0)
(-1.5778 0.102741 0)
(-1.60742 0.101634 5.12175e-20)
(-1.63693 0.100459 1.00595e-19)
(-1.66631 0.0992157 4.96669e-20)
(-1.69555 0.0979016 -4.89164e-20)
(-1.72462 0.0965158 0)
(-1.75348 0.0950572 9.46572e-20)
(-1.78211 0.0935246 9.32434e-20)
(-1.81049 0.0919169 9.18536e-20)
(-1.83857 0.0902327 -9.04858e-20)
(-1.86634 0.088471 0)
(-1.89375 0.0866304 -1.31833e-19)
(-1.92078 0.0847095 0)
(-1.94739 0.0827067 4.24836e-20)
(-1.97355 0.0806206 4.20658e-20)
(-1.99921 0.0784494 0)
(-2.02434 0.0761915 0)
(-2.0489 0.0738451 8.01048e-20)
(-2.07285 0.0714084 0)
(-2.09613 0.0688798 7.75972e-20)
(-2.11871 0.0662577 0)
(-2.14054 0.0635409 -7.50957e-20)
(-2.16157 0.0607283 -1.47842e-19)
(-2.18175 0.0578193 0)
(-2.20102 0.0548141 0)
(-2.21933 0.0517131 0)
(-2.23663 0.048518 -6.8779e-20)
(-2.25286 0.045231 0)
(-2.26797 0.0418557 -6.6193e-20)
(-2.28189 0.0383965 0)
(-2.29458 0.0348592 0)
(-2.30598 0.0312505 1.24474e-19)
(-2.31603 0.0275784 0)
(-2.32469 0.0238514 5.94797e-20)
(-2.33191 0.020079 0)
(-2.33764 0.0162707 5.66708e-20)
(-2.34184 0.0124353 0)
(-2.34448 0.00857892 0)
(-2.34551 0.00470998 0)
(-2.34494 0.00086631 1.52137e-19)
(-2.34275 -0.00292011 4.90772e-20)
(-2.33893 -0.0066507 0)
(-2.33348 -0.0103275 0)
(-2.32639 -0.0139516 0)
(-2.31765 -0.0175232 0)
(-2.30726 -0.0210422 -4.07404e-20)
(-2.29522 -0.0245081 7.8328e-20)
(-2.2815 -0.0279202 3.72029e-20)
(-2.26613 -0.0312777 -7.1193e-20)
(-2.24907 -0.0345798 -6.75346e-20)
(-2.23035 -0.0378254 -3.16704e-20)
(-2.20994 -0.0410131 0)
(-2.18785 -0.0441418 -5.61914e-20)
(-2.16409 -0.0472098 0)
(-2.13864 -0.0502152 4.83213e-20)
(-2.11152 -0.0531561 2.18365e-20)
(-2.08272 -0.0560299 0)
(-2.05225 -0.0588342 -3.60562e-20)
(-2.02012 -0.0615668 -1.55701e-20)
(-1.98634 -0.0642256 0)
(-1.95091 -0.0668089 -1.20057e-20)
(-1.91386 -0.0693149 2.79012e-20)
(-1.87518 -0.0717421 0)
(-1.83491 -0.0740887 0)
(-1.79305 -0.0763526 0)
(-1.74963 -0.0785308 0)
(-1.70466 -0.0806198 -3.897e-21)
(-1.65818 -0.0826164 -9.54726e-21)
(-1.61021 -0.0845185 0)
(-1.56077 -0.0863248 0)
(-1.50991 -0.0880342 0)
(-1.45766 -0.0896462 0)
(-1.40405 -0.0911575 0)
(-1.34912 -0.0925632 0)
(-1.29291 -0.0938606 -4.38974e-20)
(-1.23548 -0.0950493 -1.10747e-21)
(-1.17686 -0.0961315 0)
(-1.11711 -0.0971063 0)
(-1.05628 -0.0979679 -6.3119e-20)
(-0.994431 -0.0987125 0)
(-0.931617 -0.0993446 7.45954e-20)
(-0.867895 -0.0998696 7.85841e-20)
(-0.803323 -0.100279 0)
(-0.737975 -0.100566 0)
(-0.671916 -0.10075 -9.53808e-20)
(-0.605199 -0.10083 -1.98717e-19)
(-0.537905 -0.100777 0)
(-0.470099 -0.100634 0)
(-0.401846 -0.100394 0)
(-0.333217 -0.100028 -1.2138e-19)
(-0.264265 -0.0995872 1.26552e-19)
(-0.195118 -0.0990294 0)
(-0.12568 -0.0984058 2.71192e-19)
(-0.0563148 -0.0977305 1.39469e-19)
(0.0134281 -0.0969166 -2.89961e-19)
(0.0827079 -0.0960272 0)
(0.151721 -0.0949588 0)
(0.220364 -0.0936857 -3.0639e-19)
(0.288388 -0.0923933 -1.56777e-19)
(0.355867 -0.0908241 0)
(0.422813 -0.0889189 0)
(0.489269 -0.0870115 0)
(0.555047 -0.0851479 0)
(0.620087 -0.0833198 -3.35165e-19)
(0.684346 -0.0815082 0)
(0.747785 -0.0796954 0)
(0.810369 -0.077864 0)
(0.87205 -0.0759925 0)
(0.932764 -0.0740482 0)
(0.992418 -0.0719761 0)
(1.05086 -0.0696761 -3.61776e-19)
(1.10787 -0.0669706 0)
(1.16299 -0.0634943 0)
(1.21587 -0.058617 -7.44889e-19)
(1.26462 -0.0507748 3.75712e-19)
(1.31221 -0.0377284 -3.82384e-19)
(1.34538 -0.013144 3.88241e-19)
(-0.00713686 -0.0128232 0)
(-0.0194783 0.0145119 7.22077e-19)
(-0.0336403 0.0381709 0)
(-0.0490583 0.0583298 1.56634e-19)
(-0.0651223 0.0759585 0)
(-0.0815848 0.0913976 0)
(-0.0985225 0.104795 -1.10104e-19)
(-0.116032 0.116285 0)
(-0.134167 0.126047 0)
(-0.152935 0.134302 0)
(-0.172301 0.141271 0)
(-0.192206 0.147145 0)
(-0.212584 0.152078 3.21073e-19)
(-0.233371 0.156187 1.53021e-19)
(-0.254512 0.159567 -1.45983e-19)
(-0.275961 0.162297 0)
(-0.29768 0.164449 0)
(-0.319638 0.166087 0)
(-0.341809 0.167275 0)
(-0.364171 0.168069 0)
(-0.386708 0.168527 1.12766e-19)
(-0.409405 0.168697 1.08495e-19)
(-0.43225 0.168629 -1.04515e-19)
(-0.455234 0.168365 1.00803e-19)
(-0.478351 0.167942 0)
(-0.501596 0.167396 0)
(-0.524966 0.166756 9.10641e-20)
(-0.548459 0.166048 0)
(-0.572076 0.165293 0)
(-0.595818 0.164511 8.30435e-20)
(-0.619687 0.163716 8.06601e-20)
(-0.643686 0.162921 7.84265e-20)
(-0.667819 0.162135 0)
(-0.692091 0.161366 0)
(-0.716506 0.160618 -7.24266e-20)
(-0.741071 0.159896 0)
(-0.765788 0.159201 0)
(-0.790665 0.158535 6.73415e-20)
(-0.815704 0.157896 -6.57059e-20)
(-0.840911 0.157285 6.42254e-20)
(-0.866288 0.156699 0)
(-0.891838 0.156137 0)
(-0.917562 0.155597 1.20427e-19)
(-0.943457 0.155076 0)
(-0.969521 0.15457 1.15552e-19)
(-0.995748 0.154073 1.69941e-19)
(-1.02213 0.153577 -1.66622e-19)
(-1.04867 0.153074 1.08907e-19)
(-1.07535 0.152556 0)
(-1.10216 0.152014 0)
(-1.12911 0.151442 1.02939e-19)
(-1.15618 0.150832 5.06079e-20)
(-1.18337 0.150179 0)
(-1.21066 0.149476 0)
(-1.23804 0.148717 4.7994e-20)
(-1.2655 0.147898 9.42103e-20)
(-1.29302 0.147014 0)
(-1.3206 0.146061 -9.12131e-20)
(-1.34821 0.145035 8.95702e-20)
(-1.37584 0.143932 -8.81079e-20)
(-1.40348 0.142749 0)
(-1.43109 0.141483 0)
(-1.45868 0.140132 0)
(-1.4862 0.138693 0)
(-1.51364 0.137163 0)