/*--------------------------------*- C++ -*----------------------------------*\
| =========                 |                                                 |
| \\      /  F ield         | OpenFOAM: The Open Source CFD Toolbox           |
|  \\    /   O peration     | Version:  2.3.0                                 |
|   \\  /    A nd           | Web:      www.OpenFOAM.org                      |
|    \\/     M anipulation  |                                                 |
\*---------------------------------------------------------------------------*/
FoamFile
{
    version     2.0;
    format      ascii;
    class       volScalarField;
    location    "10000";
    object      epsilon;
}
// * * * * * * * * * * * * * * * * * * * * * * * * * * * * * * * * * * * * * //

dimensions      [0 2 -3 0 0 0 0];

internalField   nonuniform List<scalar> 
26600
(
8.64764
19.6405
33.1739
52.1197
85.5806
164.704
292.004
453.278
637.225
823.229
1001.84
1162.72
1302.81
1420.56
1516.79
1593.26
1651.95
1695.78
1726.46
1747.37
1759.64
1766.97
1769.63
1772.13
1773.31
1779.14
1787
1803.74
1825.43
1859.02
1899.36
1951.71
2012.12
2081.06
2158.47
2233.65
2321.75
2382.86
2478.95
1982.94
0.500532
1.24148
2.78418
4.83348
12.1664
23.9543
46.0108
75.7065
111.676
151.036
191.373
230.82
267.766
301.674
332.566
360.508
385.857
409.328
431.465
453.436
476.137
501.183
527.25
555.96
588.327
626.318
670.204
721.368
778.822
842.949
911.526
984.191
1058.26
1133.22
1207.31
1275.11
1345.6
1391.68
1466.41
1465.51
0.27939
0.780845
2.13258
5.472
12.3329
22.4099
36.9141
55.4922
77.166
101.113
125.289
150.49
175.07
200.575
226.079
252.608
281.104
313.014
349.433
392.94
444.773
507.143
582.782
672.614
774.835
888.183
1008.77
1133.15
1254.96
1371.22
1476.72
1570.53
1649.57
1716.84
1765.48
1807.52
1827.16
1846.3
1840.97
1817.44
0.182749
0.890912
2.5549
7.40583
15.9137
27.6193
42.3521
59.8401
79.173
100.724
122.583
147.46
172.592
202.719
237.03
279.528
333.212
402.033
489.446
601.78
736.424
897.188
1077.16
1269.67
1460.43
1645.53
1814.47
1961.19
2078.08
2169
2235.16
2277.26
2297.05
2296.86
2287.05
2269
2231.69
2203.5
2143.51
2094.28
0.143291
1.42779
4.46194
11.45
22.0591
35.9282
52.5154
71.6291
92.3743
116.605
141.537
175.039
210.841
264.374
331.269
427.29
558.985
733.212
954.57
1220.18
1500.32
1797.09
2070.92
2303.07
2480.39
2600.34
2670.84
2706.3
2707.13
2695.02
2668.22
2629.6
2582.48
2529.6
2468
2409.03
2334.94
2279.91
2185.93
2159.39
0.32746
2.268
7.2869
16.6326
29.604
45.8666
64.9372
87.0563
111.692
143.255
178.244
235.797
303.564
427.933
591.76
846.611
1179.21
1576.5
2010.81
2411.82
2717.58
2903.12
3007.39
3043.08
3036.88
3015.79
2971.98
2907.23
2830.29
2747.95
2662.8
2575.62
2487.85
2402.88
2317.19
2237.87
2152.91
2085.63
1989.53
1984.56
0.551662
3.74214
10.9276
22.6215
38.034
56.8959
79.1059
105.942
138.577
185.96
249.236
371.162
542.399
876.207
1299.92
1897.92
2501.2
2935.64
3179.23
3279.45
3299.53
3272.96
3207.39
3099.06
2973.74
2843.76
2716.91
2595.71
2481.13
2373.89
2273.59
2179.99
2091.77
2009.49
1930.59
1858.01
1785.16
1725.07
1649.74
1651.37
0.93783
5.51619
15.032
29.0742
46.9554
68.7702
95.3624
130.579
181.405
266.513
420.485
730.671
1235.78
2028.34
2830.13
3268.59
3450.75
3486.06
3430.27
3294.59
3084.8
2872.89
2679.25
2506.15
2352.53
2216.32
2095.43
1987.8
1891.37
1804.56
1725.78
1654.05
1588.02
1527.21
1470.01
1417.36
1366.07
1322.75
1273.77
1276.8
1.44702
7.6081
19.4018
35.7644
56.1851
81.8109
115.715
169.407
267.901
466.715
915.568
1770.3
2884.77
3399.34
3623.92
3579.14
3396.31
3039.44
2698.74
2414.66
2181.86
1991.64
1836.07
1708.21
1601.71
1511.7
1434.35
1367
1307.54
1254.47
1206.58
1163.06
1123.1
1086.27
1051.75
1019.79
989.095
962.857
935.422
938.343
2.00785
9.992
23.983
42.5375
65.8094
97.5815
146.529
252.043
488.18
1070.3
2397.9
3283.29
3688.44
3593.03
3214.25
2633.76
2173.52
1840.14
1599.92
1423.87
1292.64
1192.29
1113.2
1049.61
997.431
953.739
916.367
883.879
855.118
829.273
805.744
784.133
764.084
745.39
727.73
711.214
695.42
681.885
668.477
670.974
2.61754
12.5776
28.6063
49.2483
76.5473
120.981
211.824
464.209
1139.38
2816.09
3588.42
3591.83
3118.42
2209.84
1610.14
1266.24
1057.38
922.108
829.668
763.683
715.075
678.041
648.953
625.571
606.355
590.183
576.252
564.027
553.071
543.066
533.781
525.07
516.811
508.941
501.37
494.175
487.273
481.404
475.8
477.922
3.27068
15.1906
32.9519
55.9146
90.9416
167.445
381.981
1085.71
2850.38
3742.4
3288.91
2065.59
1212.22
853.171
671.303
569.961
509.206
470.144
443.404
424.219
410.221
400.235
392.556
386.455
381.494
377.349
373.785
370.642
367.787
365.114
362.548
360.041
357.56
355.093
352.627
350.216
347.874
345.952
344.158
345.958
3.96138
17.5108
36.6629
63.3578
118.872
282.448
881.688
2688.07
3600.29
2663.38
1157.38
645.745
440.157
353.364
313.054
290.96
277.931
269.872
264.606
261.097
259.091
257.975
257.368
257.075
256.993
257.046
257.177
257.347
257.518
257.658
257.744
257.759
257.694
257.549
257.328
257.064
256.781
256.638
256.497
257.858
4.53816
19.0777
39.5963
76.8974
185.689
628.857
2317.19
3377.88
1989.53
694.236
337.129
239.575
205.274
189.903
183.245
180.322
179.201
179.115
179.765
180.686
181.799
183.014
184.259
185.498
186.716
187.905
189.058
190.168
191.228
192.229
193.161
194.018
194.797
195.499
196.128
196.701
197.234
197.795
198.301
199.358
4.76183
19.6622
44.0893
108.612
394.369
1674.62
3009.11
1478.34
417.188
192.979
144.857
132.746
129.749
129.216
129.836
131.118
132.715
134.371
136.067
137.727
139.331
140.872
142.347
143.756
145.108
146.41
147.665
148.878
150.049
151.175
152.253
153.28
154.254
155.175
156.044
156.871
157.661
158.443
159.165
160.065
4.51477
19.8239
56.2593
217.016
1058.95
2433.37
1166.41
305.732
122.428
95.5876
95.8214
98.2606
100.634
102.607
104.503
106.319
108.052
109.688
111.246
112.725
114.125
115.454
116.718
117.925
119.085
120.206
121.296
122.358
123.395
124.407
125.393
126.351
127.279
128.177
129.046
129.887
130.704
131.508
132.264
133.059
3.87721
22.381
106.167
606.546
1753.32
1026.33
214.887
68.357
64.0535
74.7318
82.6551
86.1772
88.1253
89.5903
90.9656
92.2931
93.5674
94.7819
95.9431
97.0534
98.1136
99.1276
100.1
101.039
101.949
102.838
103.711
104.571
105.422
106.263
107.095
107.916
108.725
109.521
110.304
111.074
111.833
112.583
113.302
114.008
2.90917
41.419
337.512
1121.02
748.269
197.668
74.6554
46.6594
56.8942
73.0648
80.521
82.5297
82.6392
82.7465
83.1239
83.7057
84.3947
85.1286
85.8759
86.6211
87.3554
88.0747
88.779
89.4703
90.152
90.8276
91.5005
92.173
92.8468
93.5224
94.1997
94.8779
95.5562
96.2339
96.9108
97.5871
98.2626
98.9383
99.5977
100.223
19.3569
193.372
710.698
516.59
163.283
63.0481
32.4116
38.3426
60.072
78.4952
82.9914
82.2432
80.3788
78.9949
78.3143
78.1288
78.2433
78.5273
78.9044
79.3333
79.7905
80.2628
80.7435
81.2299
81.7218
82.2198
82.7253
83.2392
83.7622
84.2947
84.8362
85.3864
85.9447
86.5107
87.0843
87.6663
88.2569
88.8579
89.46
90.0352
57.8764
517.014
337.811
112.251
50.6575
29.0636
25.5845
37.7121
70.7169
86.8294
87.3523
83.5439
79.5849
76.8346
75.1929
74.3156
73.9183
73.8096
73.8719
74.0386
74.2698
74.5429
74.8445
75.1672
75.5073
75.8629
76.2335
76.6187
77.0183
77.4323
77.86
78.3012
78.7554
79.2227
79.7034
80.1985
80.7096
81.2393
81.784
82.3115
180.037
111.866
45.943
34.2077
23.9331
18.3146
22.3487
46.1637
84.1922
95.1253
91.8857
84.9906
79.3065
75.44
73.0134
71.5657
70.7418
70.3055
70.1098
70.0641
70.1148
70.23
70.3907
70.5848
70.8056
71.049
71.3126
71.595
71.8953
72.2127
72.5467
72.8967
73.2627
73.6447
74.0435
74.4608
74.8987
75.3612
75.8481
76.326
2.2395
6.66572
15.1787
14.3528
12.1054
13.4981
23.4061
61.9547
97.3431
101.91
94.9059
85.8048
78.9706
74.324
71.332
69.4575
68.305
67.6113
67.2094
66.995
66.9048
66.8967
66.9476
67.0418
67.1697
67.3253
67.5049
67.7058
67.9265
68.1658
68.4227
68.6969
68.9881
69.2968
69.6239
69.9714
70.3421
70.7406
71.1692
71.5956
1.35952
3.10663
5.38292
6.44329
8.01054
12.9332
33.6864
83.7033
108.175
106.057
95.8729
85.7193
78.2598
73.2005
69.879
67.7299
66.3494
65.468
64.9112
64.5679
64.3673
64.2648
64.232
64.2491
64.3052
64.3927
64.5064
64.6429
64.7999
64.9758
65.1694
65.3802
65.608
65.8533
66.1171
66.4016
66.71
67.0472
67.4169
67.7904
0.683078
1.60203
3.0299
5.08152
8.14118
20.028
58.2256
103.344
113.363
107.047
94.815
84.484
77.0209
71.9168
68.4963
66.2208
64.7098
63.7068
63.0423
62.6054
62.3234
62.1491
62.0517
62.0113
62.0123
62.0471
62.1094
62.195
62.301
62.4253
62.5666
62.7242
62.8977
63.0877
63.2953
63.5227
63.773
64.0509
64.3603
64.6808
0.329158
1.2667
2.81347
8.15514
15.6771
40.7225
89.9706
113.255
113.805
104.11
91.8077
82.1753
75.2418
70.4169
67.1019
64.8331
63.2802
62.2162
61.4865
60.9871
60.6479
60.4217
60.2767
60.1914
60.1517
60.1462
60.1685
60.2139
60.2788
60.361
60.4587
60.5711
60.6978
60.8393
60.9966
61.1719
61.3682
61.5897
61.8401
62.1078
0.333861
2.42891
7.94866
20.6471
38.6871
81.8968
106.425
114.508
108.662
97.456
87.1287
78.9997
73.0095
68.714
65.6672
63.5147
61.9952
60.9223
60.1645
59.6296
59.2537
58.9918
58.8129
58.6953
58.6238
58.5879
58.5795
58.593
58.6249
58.6724
58.7337
58.8075
58.8935
58.992
59.1041
59.2317
59.3779
59.5465
59.7411
59.9555
1.27968
11.9991
30.6636
51.9528
86.4043
102.878
109.547
105.419
97.2441
88.9635
81.4707
75.2774
70.4728
66.8655
64.1992
62.2442
60.8167
59.7773
59.022
58.4744
58.0787
57.7947
57.5929
57.4524
57.358
57.2985
57.2661
57.255
57.26
57.2789
57.3093
57.35
57.4004
57.4607
57.532
57.616
57.7157
57.835
57.9772
58.1392
5.94321
55.7549
78.8972
94.4044
106.671
105.006
95.6437
87.4771
83.7666
79.8986
75.523
71.3521
67.803
64.951
62.7261
61.0197
59.7253
58.751
58.0222
57.48
57.0786
56.7832
56.5674
56.4115
56.3007
56.224
56.1731
56.1417
56.1253
56.1206
56.1248
56.1368
56.1559
56.1822
56.2165
56.2607
56.3175
56.3907
56.484
56.5957
55.2042
90.7951
99.5484
101.901
95.6438
79.0606
68.0513
68.8407
71.2885
71.4542
69.8592
67.5234
65.1602
63.0533
61.285
59.8509
58.7134
57.8254
57.1405
56.6173
56.2209
55.9227
55.6999
55.5345
55.4126
55.3232
55.2582
55.211
55.1769
55.1522
55.1342
55.1214
55.1129
55.109
55.1099
55.1178
55.135
55.1654
55.2123
55.2769
14.7948
51.3506
66.1107
64.3494
53.522
44.4411
46.3845
54.8702
61.3448
64.3373
64.8205
64.0066
62.6723
61.245
59.9131
58.7521
57.7807
56.9903
56.3602
55.8656
55.4821
55.1877
54.9632
54.7928
54.6636
54.5653
54.4896
54.4299
54.3813
54.3399
54.303
54.2687
54.236
54.205
54.1761
54.1511
54.1321
54.1233
54.1262
54.147
1.2701
15.1616
27.1668
26.9672
24.2573
25.6133
34.6258
45.9002
54.1208
58.7056
60.6052
60.9212
60.4252
59.5813
58.6421
57.7378
56.9298
56.2403
55.6704
55.2102
54.845
54.5588
54.3366
54.1646
54.0313
53.9268
53.843
53.7735
53.713
53.6577
53.6046
53.5516
53.4978
53.443
53.3877
53.3334
53.2823
53.2374
53.2012
53.1802
0.259786
2.76799
7.29793
8.80408
11.1476
17.3601
28.965
40.5067
49.1197
54.44
57.2085
58.3215
58.4661
58.0978
57.4951
56.8204
56.1644
55.5728
55.0641
54.6407
54.2967
54.0218
53.8045
53.6334
53.4981
53.3895
53.2998
53.2225
53.1525
53.0855
53.0186
52.9496
52.8775
52.8019
52.7234
52.6434
52.564
52.4882
52.4186
52.3615
0.175475
0.641763
1.76141
3.15834
6.42461
14.3967
26.2075
37.3133
45.7405
51.3011
54.5539
56.1973
56.8096
56.8123
56.486
56.0082
55.4876
54.9863
54.5361
54.1495
53.8277
53.5656
53.3549
53.1863
53.0507
52.9396
52.8457
52.7624
52.6845
52.608
52.5295
52.4469
52.3591
52.2656
52.1671
52.0649
51.9611
51.8587
51.761
51.6747
0.157925
0.35296
0.72199
1.79408
5.03821
13.4344
24.9379
35.4394
43.49
49.0401
52.5306
54.5068
55.4484
55.728
55.6208
55.3058
54.9011
54.4797
54.0828
53.7309
53.431
53.182
52.9787
52.8136
52.6788
52.5664
52.4694
52.3816
52.2975
52.2131
52.1251
52.0312
51.9303
51.8218
51.7063
51.5852
51.4606
51.3356
51.2135
51.1002
0.155908
0.274093
0.521889
1.43088
4.70829
13.2324
24.396
34.3504
42.0104
47.4422
51.024
53.1958
54.3591
54.8401
54.8992
54.7141
54.4052
54.0518
53.7017
53.3809
53.1012
52.8648
52.6689
52.5078
52.3744
52.2617
52.1627
52.0714
51.9827
51.8921
51.7964
51.6934
51.5817
51.4609
51.3315
51.1948
51.0531
50.9092
50.7665
50.6299
0.156706
0.238067
0.458889
1.32804
4.67921
13.3017
24.2039
33.7305
41.055
46.3375
49.9303
52.2074
53.5132
54.1368
54.317
54.2321
53.9993
53.7014
53.3904
53.0964
52.8343
52.6093
52.4205
52.2633
52.1317
52.0192
51.9191
51.8255
51.7333
51.6381
51.5366
51.4265
51.3065
51.1761
51.0358
50.887
50.7317
50.5728
50.4136
50.2584
0.156241
0.218299
0.42686
1.29432
4.73624
13.4592
24.1769
33.3947
40.4569
45.5972
49.1632
51.4898
52.8826
53.6025
53.8681
53.8569
53.6819
53.4272
53.1473
52.875
52.6276
52.4123
52.2296
52.0761
51.9465
51.8346
51.7341
51.6392
51.5448
51.4464
51.3409
51.2259
51.1
50.9627
50.8147
50.6571
50.492
50.3222
50.1508
49.9819
0.155145
0.205868
0.404038
1.27523
4.79534
13.6206
24.2247
33.2321
40.1019
45.1254
48.6528
50.9977
52.44
53.2212
53.5451
53.584
53.4504
53.2272
52.9704
52.7144
52.4783
52.2706
52.093
51.9427
51.8151
51.7042
51.604
51.5087
51.4133
51.3133
51.2057
51.0879
50.9586
50.8173
50.6646
50.5017
50.3308
50.1544
49.9756
49.798
0.154081
0.197841
0.387347
1.2602
4.84385
13.774
24.3179
33.1856
39.9245
44.8617
48.3531
50.7003
52.1675
52.9836
53.3428
53.4121
53.3047
53.1016
52.8598
52.6147
52.3863
52.184
52.0101
51.8625
51.7367
51.6272
51.5279
51.4332
51.3381
51.2382
51.1303
51.0121
50.882
50.7398
50.5859
50.4216
50.249
50.0707
49.8899
49.71
0.153841
0.19793
0.39496
1.30262
4.9935
14.0622
24.5741
33.3313
39.9654
44.8325
48.2875
50.6228
52.0925
52.9183
53.2892
53.3691
53.2711
53.0757
52.8397
52.5989
52.3739
52.1743
52.0027
51.8572
51.7335
51.6261
51.5291
51.4368
51.3441
51.2469
51.1419
51.0267
50.8998
50.761
50.6108
50.4504
50.2821
50.1086
49.9332
49.7591
15.7238
5.1783
3.40463
2.78701
2.4937
2.32872
2.22685
2.1603
2.11522
2.08396
2.06192
2.04623
2.03496
2.02684
2.02096
2.01669
2.01356
2.01124
2.00949
2.00815
2.00708
2.00619
2.00544
2.00478
2.00418
2.00364
2.00316
2.00273
2.00238
2.00211
2.00196
2.00194
2.0021
2.00246
2.0031
2.00408
2.00553
2.00764
2.01074
2.01578
15.489
5.28328
3.47878
2.83846
2.53208
2.35946
2.25279
2.18296
2.13551
2.10243
2.07894
2.06205
2.04978
2.04078
2.03412
2.02915
2.0254
2.02251
2.02024
2.01841
2.0169
2.0156
2.01447
2.01345
2.01253
2.01169
2.01093
2.01025
2.00966
2.00918
2.00884
2.00866
2.00866
2.0089
2.00942
2.01031
2.01169
2.01374
2.01678
2.02176
15.4303
5.32775
3.51451
2.87101
2.56227
2.38747
2.2789
2.20746
2.15862
2.1243
2.09971
2.08181
2.0686
2.05873
2.05125
2.0455
2.041
2.03741
2.03447
2.03201
2.02989
2.02803
2.02635
2.02483
2.02342
2.02214
2.02095
2.01989
2.01895
2.01815
2.01751
2.01706
2.01683
2.01686
2.0172
2.01794
2.01919
2.02112
2.02401
2.02881
15.3858
5.38632
3.56043
2.90766
2.59365
2.41583
2.30532
2.23247
2.18249
2.14721
2.12174
2.10302
2.08903
2.0784
2.07019
2.06372
2.05853
2.05425
2.05065
2.04755
2.04481
2.04234
2.04009
2.03802
2.0361
2.03432
2.03267
2.03118
2.02983
2.02866
2.02769
2.02694
2.02644
2.02623
2.02637
2.02693
2.02803
2.02983
2.03261
2.03732
15.3721
5.42641
3.59782
2.94153
2.6244
2.44428
2.33209
2.25796
2.20695
2.17079
2.14453
2.12506
2.11036
2.09905
2.09016
2.08302
2.07716
2.07223
2.06799
2.06425
2.0609
2.05784
2.05501
2.05238
2.04993
2.04764
2.04552
2.04357
2.04181
2.04026
2.03893
2.03786
2.03707
2.03661
2.03654
2.03692
2.03786
2.03954
2.04223
2.04689
15.3685
5.47589
3.63764
2.97568
2.65518
2.47291
2.35919
2.2839
2.23195
2.19496
2.16796
2.1478
2.13242
2.12044
2.11089
2.10311
2.0966
2.09103
2.08615
2.08179
2.07782
2.07416
2.07075
2.06756
2.06457
2.06177
2.05916
2.05676
2.05457
2.05262
2.05093
2.04953
2.04845
2.04773
2.04743
2.04762
2.04842
2.04998
2.0526
2.05722
15.3918
5.51558
3.67421
3.00895
2.68581
2.50167
2.3866
2.31025
2.25743
2.21967
2.19196
2.17113
2.1551
2.14247
2.13228
2.12385
2.1167
2.11049
2.10498
2.09999
2.0954
2.09114
2.08715
2.08339
2.07985
2.07653
2.07343
2.07056
2.06794
2.06559
2.06353
2.06179
2.06041
2.05942
2.0589
2.0589
2.05954
2.061
2.06356
2.06816
15.4158
5.56231
3.71206
3.04231
2.71649
2.5306
2.41428
2.33696
2.28333
2.24485
2.21648
2.195
2.17833
2.16507
2.15425
2.14518
2.13739
2.13055
2.1244
2.11878
2.11357
2.1087
2.10411
2.09978
2.09569
2.09184
2.08824
2.08489
2.08183
2.07906
2.07663
2.07455
2.07286
2.07161
2.07085
2.07067
2.07116
2.0725
2.07501
2.0796
15.4626
5.60295
3.74837
3.07535
2.74718
2.55969
2.44221
2.364
2.30961
2.27046
2.24144
2.21935
2.20207
2.18819
2.17674
2.16704
2.15861
2.15113
2.14434
2.13808
2.13225
2.12676
2.12158
2.11666
2.11201
2.10763
2.10351
2.09969
2.09617
2.09299
2.09017
2.08775
2.08575
2.08423
2.08324
2.08286
2.0832
2.08444
2.08688
2.09147
15.5054
5.64904
3.78569
3.10857
2.77801
2.58898
2.47041
2.39135
2.33624
2.29645
2.26683
2.24413
2.22625
2.21176
2.1997
2.18937
2.18031
2.17218
2.16475
2.15786
2.15139
2.14528
2.13949
2.13399
2.12877
2.12384
2.11921
2.1149
2.11093
2.10732
2.10411
2.10133
2.09902
2.09722
2.096
2.09542
2.09561
2.09675
2.09913
2.10371
15.5676
5.6913
3.82225
3.14175
2.80897
2.61847
2.49886
2.41899
2.36321
2.3228
2.29259
2.26931
2.25084
2.23576
2.22308
2.21213
2.20244
2.19367
2.18559
2.17806
2.17095
2.16422
2.15781
2.15171
2.14592
2.14044
2.13528
2.13048
2.12604
2.12201
2.11841
2.11527
2.11264
2.11056
2.10909
2.10832
2.10836
2.10939
2.11172
2.11628
15.6257
5.73767
3.85968
3.1752
2.84015
2.64821
2.52759
2.44694
2.39049
2.34949
2.31871
2.29486
2.27582
2.26014
2.24685
2.23528
2.22495
2.21554
2.20682
2.19863
2.19089
2.18352
2.17649
2.16979
2.16341
2.15737
2.15169
2.14638
2.14148
2.13701
2.13301
2.12951
2.12656
2.1242
2.12249
2.12151
2.1214
2.12232
2.12459
2.12915
15.6994
5.78173
3.89682
3.20878
2.87155
2.67821
2.5566
2.47519
2.4181
2.37652
2.34517
2.32077
2.30115
2.28488
2.27099
2.25879
2.24783
2.23777
2.22839
2.21956
2.21116
2.20315
2.1955
2.18819
2.18122
2.17462
2.1684
2.16258
2.15721
2.1523
2.14789
2.14402
2.14074
2.13809
2.13614
2.13497
2.13469
2.1355
2.13772
2.14227
15.7698
5.82893
3.93474
3.24271
2.90325
2.7085
2.58591
2.50375
2.44603
2.40387
2.37197
2.34701
2.32682
2.30997
2.29546
2.28264
2.27103
2.26032
2.25029
2.24079
2.23174
2.22309
2.2148
2.20687
2.19931
2.19214
2.18537
2.17904
2.17318
2.16783
2.16301
2.15878
2.15516
2.15223
2.15003
2.14865
2.14821
2.14891
2.15107
2.15561
15.8527
5.87481
3.97267
3.2769
2.93524
2.73911
2.61554
2.53264
2.47429
2.43156
2.3991
2.37358
2.35282
2.33537
2.32026
2.3068
2.29455
2.28318
2.27248
2.26232
2.25261
2.2433
2.23437
2.22581
2.21765
2.2099
2.20258
2.19573
2.18939
2.18358
2.17835
2.17374
2.16979
2.16656
2.16411
2.16252
2.16193
2.16251
2.16461
2.16914
15.9337
5.92315
4.01133
3.31148
2.96759
2.77005
2.64552
2.56187
2.50289
2.45958
2.42657
2.40048
2.37914
2.3611
2.34536
2.33127
2.31836
2.30632
2.29495
2.28411
2.27373
2.26376
2.25418
2.24499
2.23622
2.22788
2.22
2.21263
2.20579
2.19952
2.19387
2.18888
2.18459
2.18107
2.17836
2.17657
2.17581
2.17628
2.17831
2.18283
16.0241
5.97088
4.05019
3.34641
3.00029
2.80136
2.67585
2.59145
2.53184
2.48795
2.45437
2.42771
2.40578
2.38713
2.37077
2.35603
2.34245
2.32974
2.31768
2.30616
2.29509
2.28444
2.2742
2.26437
2.25498
2.24605
2.23761
2.2297
2.22236
2.21563
2.20956
2.20418
2.19955
2.19572
2.19276
2.19075
2.18983
2.19019
2.19215
2.19666
16.114
6.02056
4.08977
3.3818
3.0334
2.83306
2.70656
2.6214
2.56115
2.51667
2.48251
2.45527
2.43275
2.41347
2.39647
2.38107
2.36681
2.35341
2.34066
2.32843
2.31667
2.30534
2.29443
2.28395
2.27393
2.26439
2.25538
2.24693
2.23908
2.23188
2.22538
2.21961
2.21463
2.2105
2.20728
2.20506
2.20397
2.20421
2.20611
2.2106
16.2114
6.07013
4.12969
3.41761
3.06693
2.86516
2.73767
2.65175
2.59084
2.54575
2.511
2.48317
2.46003
2.44012
2.42246
2.40638
2.39144
2.37733
2.36387
2.35093
2.33847
2.32644
2.31484
2.3037
2.29304
2.28289
2.27329
2.26429
2.25593
2.24826
2.24132
2.23516
2.22983
2.22539
2.2219
2.21946
2.2182
2.21832
2.22015
2.22464
16.3089
6.12132
4.17032
3.45391
3.10091
2.89769
2.7692
2.68249
2.62092
2.57521
2.53986
2.51141
2.48764
2.46709
2.44875
2.43198
2.41632
2.40149
2.3873
2.37364
2.36045
2.34771
2.33542
2.32361
2.31229
2.30152
2.29133
2.28178
2.2729
2.26474
2.25736
2.2508
2.24511
2.24035
2.2366
2.23395
2.23251
2.23251
2.23427
2.23874
16.4125
6.17273
4.21141
3.4907
3.13535
2.93068
2.80117
2.71366
2.6514
2.60506
2.56908
2.54
2.51559
2.49436
2.47533
2.45785
2.44146
2.42589
2.41096
2.39656
2.38263
2.36916
2.35616
2.34366
2.33168
2.32028
2.30949
2.29936
2.28995
2.28131
2.27348
2.26651
2.26046
2.25539
2.25137
2.24849
2.24688
2.24675
2.24844
2.2529
16.517
6.22556
4.2532
3.52803
3.17029
2.96414
2.83359
2.74527
2.68231
2.63531
2.59869
2.56896
2.54388
2.52195
2.50221
2.48399
2.46686
2.45053
2.43483
2.41966
2.40498
2.39077
2.37705
2.36384
2.35119
2.33914
2.32774
2.31704
2.30709
2.29795
2.28966
2.28228
2.27587
2.27048
2.26618
2.26307
2.26129
2.26104
2.26265
2.2671
16.6262
6.27884
4.29554
3.5659
3.20575
2.99809
2.86649
2.77733
2.71365
2.66598
2.62869
2.59829
2.57251
2.54987
2.52939
2.51041
2.4925
2.47539
2.45891
2.44296
2.42751
2.41254
2.39808
2.38415
2.37081
2.3581
2.34608
2.33479
2.3243
2.31465
2.3059
2.2981
2.29131
2.2856
2.28102
2.27769
2.27572
2.27534
2.27688
2.28131
16.7371
6.3334
4.33862
3.60435
3.24175
3.03256
2.89988
2.80987
2.74545
2.69708
2.6591
2.628
2.6015
2.57812
2.55688
2.53711
2.51841
2.50049
2.4832
2.46645
2.4502
2.43446
2.41924
2.40458
2.39053
2.37715
2.36449
2.35261
2.34156
2.33139
2.32217
2.31395
2.30679
2.30074
2.29588
2.29231
2.29017
2.28966
2.29112
2.29553
16.8519
6.3886
4.3823
3.64339
3.2783
3.06757
2.93379
2.84291
2.77771
2.72862
2.68993
2.6581
2.63086
2.60671
2.58467
2.5641
2.54457
2.52582
2.5077
2.49012
2.47306
2.45651
2.44052
2.42511
2.41034
2.39628
2.38297
2.37048
2.35886
2.34817
2.33848
2.32982
2.32227
2.31589
2.31075
2.30694
2.30461
2.30397
2.30535
2.30975
16.9684
6.445
4.42674
3.68307
3.31545
3.10313
2.96823
2.87645
2.81047
2.76063
2.7212
2.68861
2.66059
2.63564
2.61278
2.59137
2.57099
2.55138
2.5324
2.51398
2.49607
2.47871
2.46192
2.44574
2.43024
2.41547
2.4015
2.38839
2.37619
2.36497
2.35479
2.3457
2.33776
2.33103
2.3256
2.32156
2.31904
2.31826
2.31957
2.32394
17.0887
6.50215
4.47187
3.72338
3.35319
3.13928
3.00322
2.91053
2.84373
2.79311
2.75291
2.71954
2.69071
2.66493
2.64121
2.61893
2.59767
2.57718
2.55731
2.53801
2.51924
2.50104
2.48343
2.46646
2.45021
2.43472
2.42008
2.40633
2.39355
2.38179
2.37111
2.36157
2.35323
2.34616
2.34044
2.33615
2.33344
2.33252
2.33375
2.3381
17.2108
6.56048
4.51778
3.76436
3.39157
3.17602
3.03879
2.94515
2.87751
2.82608
2.78508
2.75089
2.72122
2.69458
2.66998
2.64679
2.62461
2.60321
2.58243
2.56222
2.54256
2.52349
2.50504
2.48727
2.47024
2.45403
2.43869
2.4243
2.41092
2.3986
2.38742
2.37743
2.36869
2.36127
2.35524
2.3507
2.3478
2.34674
2.34788
2.35221
17.336
6.61966
4.56443
3.80602
3.43059
3.21338
3.07496
2.98034
2.91182
2.85956
2.81772
2.78268
2.75214
2.72459
2.69907
2.67495
2.65183
2.62947
2.60774
2.5866
2.56603
2.54607
2.52676
2.50816
2.49034
2.47338
2.45733
2.44228
2.42829
2.41541
2.40371
2.39326
2.38411
2.37633
2.37
2.36521
2.36211
2.36091
2.36197
2.36627
17.4636
6.67999
4.6119
3.84841
3.47029
3.25139
3.11174
3.01612
2.9467
2.89357
2.85086
2.81493
2.78347
2.75499
2.72851
2.70341
2.67931
2.65597
2.63327
2.61116
2.58965
2.56877
2.54857
2.52912
2.5105
2.49276
2.476
2.46027
2.44565
2.4322
2.41998
2.40906
2.39949
2.39134
2.3847
2.37966
2.37636
2.37501
2.37598
2.38027
17.594
6.74128
4.66017
3.89153
3.51068
3.29005
3.14915
3.0525
2.98214
2.92811
2.88449
2.84764
2.81523
2.78577
2.7583
2.73219
2.70706
2.6827
2.65899
2.63589
2.61341
2.59158
2.57048
2.55016
2.5307
2.51218
2.49468
2.47826
2.463
2.44896
2.43621
2.42481
2.41482
2.4063
2.39934
2.39404
2.39053
2.38904
2.38992
2.39419
17.7266
6.80373
4.7093
3.93541
3.55179
3.32941
3.18722
3.08951
3.01818
2.96321
2.91865
2.88083
2.84743
2.81695
2.78844
2.76128
2.73509
2.70968
2.68492
2.66079
2.63731
2.61451
2.59247
2.57125
2.55094
2.53162
2.51336
2.49624
2.48033
2.46569
2.4524
2.44051
2.43008
2.42119
2.41391
2.40834
2.40463
2.40299
2.40378
2.40802
17.8621
6.86719
4.75929
3.98009
3.59364
3.36948
3.22597
3.12716
3.05483
2.99888
2.95334
2.91451
2.88008
2.84854
2.81894
2.79069
2.7634
2.73689
2.71106
2.68587
2.66135
2.63755
2.61454
2.5924
2.57122
2.55107
2.53204
2.5142
2.49762
2.48238
2.46853
2.45614
2.44528
2.436
2.4284
2.42256
2.41864
2.41684
2.41754
2.42175
18
6.93186
4.81018
4.02557
3.63627
3.41027
3.26542
3.16548
3.09211
3.03514
2.98857
2.94869
2.91318
2.88053
2.84981
2.82042
2.792
2.76435
2.73739
2.71111
2.68552
2.66069
2.63669
2.61361
2.59153
2.57053
2.55071
2.53213
2.51488
2.49901
2.4846
2.47171
2.46039
2.45073
2.44279
2.43668
2.43254
2.43059
2.4312
2.43538
18.1405
6.99762
4.86199
4.07189
3.67968
3.45183
3.30559
3.20448
3.13003
3.07201
3.02436
2.98339
2.94675
2.91295
2.88106
2.85048
2.82087
2.79205
2.76394
2.73651
2.70982
2.68393
2.65891
2.63486
2.61186
2.59
2.56936
2.55003
2.53208
2.51558
2.5006
2.48719
2.47542
2.46536
2.45708
2.45069
2.44633
2.44423
2.44474
2.44889
18.2836
7.06459
4.91476
4.11909
3.72392
3.49417
3.34651
3.2442
3.16863
3.1095
3.06074
3.01862
2.9808
2.9458
2.91268
2.88087
2.85004
2.82
2.79068
2.76209
2.73426
2.70727
2.6812
2.65615
2.6322
2.60945
2.58799
2.56789
2.54923
2.53209
2.51651
2.50258
2.49034
2.47988
2.47126
2.46459
2.46001
2.45774
2.45815
2.46227
18.4293
7.13276
4.96851
4.16717
3.769
3.53732
3.38821
3.28464
3.20791
3.14763
3.0977
3.05438
3.01534
2.97908
2.94469
2.9116
2.87949
2.84818
2.81762
2.78782
2.75882
2.7307
2.70355
2.67747
2.65255
2.6289
2.60658
2.5857
2.56632
2.54851
2.53234
2.51787
2.50516
2.49428
2.48532
2.47836
2.47355
2.47112
2.47143
2.47552
18.5774
7.20218
5.02326
4.21618
3.81496
3.5813
3.43069
3.32584
3.2479
3.18642
3.13527
3.0907
3.05038
3.01281
2.9771
2.94268
2.90923
2.87661
2.84477
2.81371
2.78349
2.75421
2.72595
2.69882
2.67291
2.64832
2.62514
2.60345
2.58333
2.56484
2.54806
2.53304
2.51986
2.50856
2.49924
2.49199
2.48695
2.48436
2.48456
2.48862
18.7285
7.27284
5.07907
4.26615
3.86182
3.62615
3.474
3.36782
3.28862
3.22589
3.17347
3.12759
3.08593
3.047
3.0099
2.97409
2.93927
2.90529
2.87211
2.83975
2.80829
2.77781
2.7484
2.72019
2.69326
2.66771
2.64364
2.62113
2.60025
2.58108
2.56368
2.5481
2.53443
2.52271
2.51303
2.50548
2.50021
2.49744
2.49755
2.50157
18.8821
7.34484
5.13594
4.3171
3.90961
3.67188
3.51816
3.4106
3.33009
3.26605
3.2123
3.16506
3.122
3.08164
3.0431
3.00585
2.9696
2.93421
2.89964
2.86595
2.83319
2.80147
2.77089
2.74156
2.71359
2.68706
2.66208
2.63873
2.61708
2.59721
2.57917
2.56304
2.54886
2.53671
2.52666
2.51881
2.5133
2.51036
2.51036
2.51436
19.0382
7.41816
5.19392
4.36907
3.95838
3.71854
3.56319
3.45421
3.37233
3.30694
3.2518
3.20313
3.1586
3.11676
3.07672
3.03796
3.00022
2.96336
2.92737
2.89229
2.85821
2.82521
2.79342
2.76295
2.7339
2.70637
2.68046
2.65625
2.63381
2.61322
2.59454
2.57783
2.56314
2.55056
2.54013
2.53198
2.52623
2.52311
2.52301
2.52696
19.1973
7.49286
5.25305
4.4221
4.00813
3.76615
3.60913
3.49866
3.41537
3.34856
3.29196
3.2418
3.19574
3.15235
3.11074
3.07043
3.03114
2.99276
2.95529
2.91878
2.88332
2.84901
2.81597
2.78433
2.75417
2.72562
2.69875
2.67366
2.65043
2.62911
2.60977
2.59247
2.57727
2.56424
2.55344
2.54497
2.53898
2.53568
2.53546
2.53939
19.3592
7.56899
5.31336
4.47621
4.05893
3.81475
3.656
3.544
3.45924
3.39093
3.33282
3.2811
3.23344
3.18842
3.14519
3.10325
3.06235
3.0224
2.98339
2.9454
2.90852
2.87286
2.83855
2.80569
2.77441
2.7448
2.71696
2.69098
2.66692
2.64486
2.62485
2.60696
2.59123
2.57774
2.56656
2.55778
2.55153
2.54806
2.54773
2.55162
19.5237
7.64657
5.37489
4.53145
4.11079
3.86436
3.70383
3.59025
3.50394
3.43409
3.37438
3.32103
3.2717
3.22499
3.18006
3.13642
3.09385
3.05227
3.01168
2.97216
2.93381
2.89676
2.86113
2.82703
2.79459
2.76391
2.73507
2.70817
2.68328
2.66046
2.63977
2.62127
2.60501
2.59106
2.57949
2.57039
2.56389
2.56023
2.55979
2.56364
19.6913
7.72563
5.43768
4.58785
4.16375
3.91502
3.75267
3.63743
3.54952
3.47804
3.41667
3.3616
3.31054
3.26206
3.21535
3.16996
3.12565
3.08237
3.04014
2.99904
2.95918
2.9207
2.88371
2.84835
2.81472
2.78293
2.75308
2.72524
2.6995
2.6759
2.65452
2.63541
2.61861
2.60419
2.59222
2.58279
2.57604
2.5722
2.57164
2.57545
19.8618
7.80627
5.50177
4.64546
4.21786
3.96677
3.80253
3.68558
3.59599
3.52281
3.4597
3.40285
3.34995
3.29963
3.25108
3.20385
3.15774
3.1127
3.06877
3.02604
2.98463
2.94466
2.90629
2.86962
2.83477
2.80186
2.77096
2.74217
2.71556
2.69118
2.66909
2.64935
2.632
2.61711
2.60474
2.59498
2.58797
2.58394
2.58326
2.58703
20.0352
7.88848
5.56721
4.70432
4.27316
4.01965
3.85345
3.73472
3.64338
3.56843
3.50349
3.44476
3.38996
3.33771
3.28723
3.2381
3.19012
3.14326
3.09757
3.05315
3.01013
2.96865
2.92884
2.89083
2.85474
2.82067
2.78872
2.75896
2.73146
2.70628
2.68347
2.66309
2.64519
2.62981
2.61703
2.60694
2.59967
2.59544
2.59465
2.59838
20.2118
7.97233
5.63405
4.76447
4.32968
4.0737
3.90548
3.78489
3.69173
3.61491
3.54806
3.48737
3.43058
3.37632
3.32382
3.2727
3.22278
3.17403
3.12652
3.08036
3.03569
2.99265
2.95137
2.91199
2.87462
2.83937
2.80633
2.77558
2.74718
2.72118
2.69765
2.67662
2.65815
2.64229
2.62909
2.61866
2.61112
2.6067
2.60579
2.60948
20.3915
8.0579
5.70233
4.82597
4.38747
4.12895
3.95865
3.83613
3.74105
3.66228
3.59343
3.53069
3.4718
3.41544
3.36085
3.30767
3.25572
3.20502
3.15563
3.10767
3.06129
3.01664
2.97385
2.93307
2.89439
2.85794
2.82379
2.79203
2.76271
2.73589
2.71161
2.68993
2.67088
2.65452
2.64091
2.63013
2.62233
2.61771
2.61668
2.62032
20.5742
8.1452
5.7721
4.88885
4.44659
4.18545
4.01299
3.88846
3.79137
3.71057
3.63961
3.57472
3.51365
3.45509
3.39832
3.34299
3.28895
3.23621
3.18488
3.13506
3.08693
3.04062
2.99629
2.95406
2.91405
2.87636
2.84109
2.80829
2.77804
2.75037
2.72535
2.703
2.68337
2.66651
2.65247
2.64135
2.63327
2.62846
2.6273
2.6309
20.7604
8.23431
5.84344
4.95319
4.50707
4.24325
4.06855
3.94192
3.84274
3.75979
3.68663
3.61948
3.55613
3.49528
3.43623
3.37866
3.32244
3.26761
3.21426
3.16253
3.11259
3.06458
3.01866
2.97495
2.93358
2.89463
2.8582
2.82436
2.79315
2.76464
2.73885
2.71582
2.6956
2.67823
2.66377
2.65229
2.64394
2.63893
2.63764
2.6412
20.95
8.32531
5.91638
5.01901
4.56897
4.30239
4.12537
3.99655
3.89518
3.80997
3.7345
3.66499
3.59924
3.536
3.47458
3.41468
3.35621
3.29919
3.24376
3.19006
3.13826
3.0885
3.04095
2.99573
2.95296
2.91273
2.87513
2.84022
2.80804
2.77866
2.7521
2.72839
2.70757
2.68969
2.67479
2.66296
2.65432
2.64911
2.64769
2.65121
21.1428
8.41824
5.99099
5.0864
4.63235
4.36293
4.1835
4.05239
3.94871
3.86115
3.78325
3.71126
3.64301
3.57726