/*--------------------------------*- C++ -*----------------------------------*\
| =========                 |                                                 |
| \\      /  F ield         | OpenFOAM: The Open Source CFD Toolbox           |
|  \\    /   O peration     | Version:  2.3.0                                 |
|   \\  /    A nd           | Web:      www.OpenFOAM.org                      |
|    \\/     M anipulation  |                                                 |
\*---------------------------------------------------------------------------*/
FoamFile
{
    version     2.0;
    format      ascii;
    class       volScalarField;
    location    "10000";
    object      k;
}
// * * * * * * * * * * * * * * * * * * * * * * * * * * * * * * * * * * * * * //

dimensions      [0 2 -2 0 0 0 0];

internalField   nonuniform List<scalar> 
26600
(
0.0532011
0.093215
0.134082
0.183538
0.261708
0.408682
0.606725
0.824332
1.04897
1.26186
1.45839
1.63247
1.78423
1.91426
2.02454
2.11737
2.19485
2.25962
2.31314
2.35825
2.39577
2.42882
2.45772
2.48596
2.51353
2.54452
2.57846
2.61983
2.66748
2.72559
2.79197
2.86947
2.95574
3.05061
3.15408
3.25569
3.37017
3.45883
3.58168
3.11253
0.0675339
0.0876642
0.131645
0.239225
0.483359
0.778256
1.07741
1.35947
1.61807
1.8376
2.02402
2.17217
2.29015
2.38044
2.44997
2.50245
2.54445
2.57886
2.61158
2.64581
2.68719
2.73936
2.8088
2.89935
3.01684
3.16519
3.34613
3.56242
3.80893
4.08768
4.38395
4.70253
5.01943
5.35066
5.65669
5.97036
6.23151
6.50429
6.69026
6.14492
0.0717494
0.12176
0.234539
0.506968
0.831055
1.17773
1.52302
1.84083
2.12129
2.35161
2.54014
2.6845
2.79716
2.88378
2.95397
3.01477
3.07725
3.14672
3.23528
3.35025
3.50272
3.70088
3.95303
4.2589
4.62047
5.02803
5.47202
5.93881
6.41068
6.87948
7.32136
7.74313
8.11784
8.4728
8.76398
9.04855
9.24635
9.46937
9.57632
9.35775
0.0553855
0.135829
0.30985
0.670192
1.05937
1.4549
1.83012
2.16306
2.44733
2.67306
2.85294
2.98719
3.09266
3.18101
3.26398
3.35731
3.48054
3.64359
3.87187
4.17593
4.56657
5.04576
5.60273
6.21175
6.84999
7.48412
8.09925
8.67146
9.19017
9.65193
10.0483
10.3943
10.6792
10.9311
11.1161
11.2851
11.3719
11.4828
11.4772
11.4039
0.0550232
0.19259
0.486079
0.892891
1.32007
1.7366
2.11718
2.44311
2.7117
2.91688
3.07748
3.19731
3.29873
3.40894
3.54075
3.73819
4.03297
4.43983
4.99611
5.67967
6.45249
7.28582
8.10603
8.86651
9.54112
10.1277
10.6038
10.9925
11.3149
11.5805
11.7926
11.9657
12.0959
12.2005
12.2638
12.3172
12.3197
12.3343
12.2869
12.2513
0.0631159
0.282439
0.698749
1.1435
1.59358
2.0136
2.38132
2.68278
2.91999
3.09241
3.2287
3.34162
3.46519
3.67171
3.96976
4.48206
5.19695
6.08458
7.12245
8.14093
9.06608
9.80643
10.3814
10.8388
11.2028
11.4808
11.7113
11.8971
12.0421
12.1539
12.2337
12.2917
12.3268
12.3457
12.3407
12.3291
12.2938
12.2635
12.1879
12.2292
0.0934655
0.456439
0.916404
1.39862
1.86038
2.26997
2.60946
2.87225
3.06163
3.19891
3.32378
3.47551
3.73265
4.27016
5.03743
6.2161
7.45582
8.57733
9.41611
10.0191
10.4683
10.8287
11.0845
11.2673
11.3984
11.4897
11.543
11.5748
11.5934
11.603
11.6026
11.5973
11.5869
11.5702
11.5427
11.5129
11.4683
11.4394
11.3789
11.4487
0.161256
0.631178
1.13112
1.63935
2.10061
2.48582
2.7836
2.98491
3.12268
3.2506
3.43364
3.80718
4.53249
5.88666
7.30965
8.47247
9.14489
9.70025
10.0631
10.2473
10.3351
10.3581
10.3523
10.3414
10.3287
10.3191
10.3098
10.3015
10.2942
10.2885
10.2826
10.2772
10.2716
10.2651
10.2538
10.2415
10.2207
10.2125
10.1887
10.2686
0.265275
0.784443
1.32987
1.85275
2.29848
2.64181
2.87026
3.01583
3.13357
3.34588
3.85259
4.94174
6.66889
7.85251
8.58155
9.09161
9.18378
9.13015
9.02152
8.8974
8.80003
8.73132
8.68269
8.65489
8.64484
8.64779
8.65829
8.67634
8.69781
8.72154
8.74606
8.77084
8.79505
8.8182
8.83813
8.85637
8.86917
8.88931
8.89916
8.98398
0.363247
0.927811
1.50805
2.02858
2.43695
2.7103
2.87849
2.98494
3.20126
3.82106
5.28519
6.83722
7.79695
8.1746
8.02324
7.70643
7.39416
7.17015
7.03035
6.94419
6.90415
6.89989
6.91373
6.94449
6.98835
7.03976
7.0955
7.15435
7.21429
7.27401
7.33255
7.3894
7.44402
7.4961
7.54465
7.59033
7.63145
7.67487
7.70918
7.79494
0.453571
1.06127
1.6592
2.15133
2.49374
2.70106
2.78771
2.98336
3.60952
5.44908
6.63455
7.2471
6.90139
6.18213
5.68818
5.43212
5.31255
5.27624
5.28699
5.322
5.38082
5.45268
5.53074
5.61321
5.69887
5.7858
5.8726
5.95866
6.04321
6.1256
6.20532
6.2821
6.35561
6.42568
6.49185
6.55442
6.61263
6.66989
6.71909
6.79906
0.534781
1.17967
1.76859
2.20016
2.46932
2.56955
2.71832
3.28366
5.03316
6.48934
6.13702
5.00865
4.10423
3.84173
3.82177
3.87418
3.96746
4.07497
4.18974
4.30043
4.40996
4.51759
4.62265
4.72551
4.82649
4.92545
5.02218
5.11661
5.20854
5.29774
5.38398
5.46707
5.54681
5.62304
5.69549
5.76421
5.82882
5.89088
5.94605
6.01713
0.603113
1.27135
1.81392
2.16674
2.31795
2.37652
2.78271
4.41206
5.76502
4.82391
3.17605
2.7712
2.75674
2.85527
3.01824
3.17881
3.33224
3.47641
3.61236
3.7393
3.85788
3.9696
4.07586
4.17789
4.27657
4.37237
4.46554
4.55622
4.64446
4.7302
4.8133
4.89364
4.97101
5.04526
5.11615
5.1836
5.24731
5.30794
5.36278
5.42335
0.655417
1.31315
1.78338
2.00683
2.03501
2.28004
3.57014
4.99238
3.51727
2.11831
1.9369
2.09956
2.33268
2.53855
2.7293
2.90088
3.05511
3.19509
3.3238
3.44283
3.55313
3.65623
3.75364
3.84664
3.93618
4.02287
4.10709
4.18908
4.26896
4.34672
4.42229
4.49556
4.56635
4.63447
4.69972
4.76194
4.82086
4.87668
4.92763
4.97831
0.677226
1.29286
1.63539
1.6763
1.80394
2.55809
4.13278
2.54845
1.37963
1.3882
1.66066
1.96913
2.22962
2.44636
2.6318
2.79307
2.93508
3.06225
3.17803
3.28445
3.38288
3.47473
3.56132
3.6438
3.72302
3.79959
3.87391
3.94626
4.01676
4.08545
4.1523
4.21719
4.27999
4.34051
4.39856
4.45395
4.50646
4.55603
4.60149
4.6439
0.656953
1.17448
1.31036
1.29457
1.74823
3.07806
1.91271
0.959574
0.959361
1.26941
1.64751
1.96314
2.22024
2.43035
2.60616
2.75557
2.8851
2.99989
3.10349
3.19835
3.28582
3.36728
3.44393
3.51675
3.58652
3.6538
3.71898
3.78232
3.84398
3.90401
3.96239
4.01904
4.07384
4.12664
4.17726
4.22553
4.27124
4.31427
4.35377
4.38922
0.576904
0.901732
0.838215
1.11268
2.12242
1.67509
0.788609
0.68327
0.89663
1.32805
1.70797
2.01013
2.25101
2.44676
2.60989
2.74862
2.86829
2.97283
3.06639
3.15156
3.22991
3.30265
3.37087
3.43547
3.49715
3.55641
3.61364
3.66909
3.72291
3.77516
3.82586
3.87494
3.92232
3.96786
4.01141
4.05284
4.09198
4.12869
4.1624
4.19201
0.453852
0.458426
0.623415
1.28454
1.12335
0.695378
0.56662
0.634228
0.951678
1.42056
1.79491
2.07795
2.29954
2.47916
2.62916
2.75696
2.8674
2.96412
3.04974
3.1271
3.19803
3.26364
3.32493
3.38271
3.43761
3.49011
3.54058
3.58924
3.63626
3.68171
3.72562
3.76795
3.80863
3.84756
3.88464
3.91974
3.95275
3.98357
4.01179
4.03626
0.116645
0.272303
0.740308
0.691869
0.565546
0.509785
0.515136
0.624113
1.03385
1.53051
1.89165
2.15334
2.35487
2.51835
2.65564
2.7733
2.8754
2.96497
3.04446
3.1157
3.18059
3.24044
3.29607
3.34822
3.39749
3.44433
3.48907
3.53195
3.57311
3.61266
3.65062
3.68698
3.7217
3.75471
3.78594
3.81529
3.84268
3.86808
3.89121
3.91104
0.0943388
0.482908
0.404299
0.419308
0.452981
0.470196
0.474304
0.634666
1.1428
1.64886
1.98903
2.22836
2.41065
2.55902
2.68463
2.79315
2.88791
2.97134
3.04546
3.11194
3.17206
3.22719
3.2782
3.32574
3.37034
3.41243
3.45233
3.49027
3.5264
3.56083
3.59359
3.62471
3.65415
3.68187
3.70784
3.73199
3.7543
3.77475
3.79319
3.80879
0.195628
0.194567
0.25061
0.373429
0.425814
0.407987
0.441778
0.686285
1.28322
1.76584
2.07974
2.29731
2.46245
2.5977
2.7132
2.81381
2.90226
2.9805
3.05013
3.11256
3.16898
3.2203
3.26753
3.31126
3.35198
3.39009
3.42589
3.45962
3.49142
3.52141
3.54963
3.57613
3.60089
3.62391
3.64517
3.66465
3.68236
3.69833
3.71248
3.72425
0.0526254
0.115448
0.29857
0.354259
0.340956
0.347543
0.434662
0.810643
1.43074
1.87147
2.15759
2.35582
2.50715
2.63201
2.7394
2.83357
2.91682
2.99075
3.05669
3.1158
3.16909
3.21745
3.26157
3.30217
3.33967
3.37444
3.40677
3.43689
3.46496
3.49109
3.51534
3.53777
3.55839
3.57722
3.59427
3.60957
3.62314
3.63506
3.64534
3.65375
0.100434
0.183472
0.247487
0.26454
0.281115
0.329489
0.506565
1.00181
1.56748
1.95908
2.2184
2.40131
2.54287
2.66044
2.76197
2.8513
2.93051
3.00103
3.06399
3.12042
3.17119
3.21708
3.25873
3.29673
3.33154
3.3635
3.39289
3.41993
3.44477
3.46754
3.48831
3.50716
3.52412
3.53922
3.55252
3.56405
3.57389
3.58216
3.58893
3.59425
0.0857576
0.153409
0.207658
0.236938
0.274079
0.38108
0.679156
1.20072
1.68249
2.02336
2.26013
2.43283
2.5688
2.68226
2.78023
2.86635
2.94269
3.01065
3.07132
3.12562
3.17436
3.21824
3.25788
3.29375
3.32632
3.35592
3.3828
3.40719
3.42924
3.44909
3.46682
3.48251
3.49622
3.50801
3.51795
3.52612
3.53263
3.5376
3.54117
3.54369
0.0670516
0.134333
0.193434
0.257967
0.349688
0.555789
0.926599
1.36253
1.75658
2.05847
2.28134
2.45024
2.58506
2.69743
2.79398
2.87842
2.953
3.01922
3.0782
3.13088
3.17802
3.2203
3.25827
3.29241
3.32311
3.35071
3.37546
3.39758
3.41722
3.43452
3.44957
3.46248
3.47332
3.48217
3.48913
3.49429
3.49782
3.49983
3.5005
3.50047
0.0530057
0.145344
0.27281
0.420396
0.593722
0.861891
1.11189
1.44424
1.78521
2.06808
2.28605
2.45581
2.59258
2.70642
2.8034
2.88752
2.96133
3.02653
3.08439
3.13589
3.18181
3.2228
3.25942
3.29212
3.32127
3.34719
3.37013
3.39029
3.40784
3.42292
3.43563
3.44609
3.45439
3.46064
3.46495
3.46742
3.46826
3.46768
3.46583
3.46333
0.0772403
0.320519
0.601543
0.80175
0.961539
1.05943
1.18352
1.46519
1.78267
2.05803
2.27804
2.45247
2.59346
2.71021
2.80902
2.89388
2.96773
3.03255
3.08976
3.14046
3.18547
3.22547
3.261
3.29251
3.32036
3.34486
3.36625
3.38473
3.40048
3.41362
3.42429
3.43259
3.43866
3.4426
3.44449
3.44465
3.44315
3.44023
3.43611
3.43137
0.125822
0.855938
1.07763
1.14719
1.12286
1.11008
1.17475
1.43536
1.75579
2.03536
2.26175
2.44285
2.58941
2.71018
2.81152
2.89789
2.9724
3.03732
3.09428
3.1445
3.18887
3.22811
3.26277
3.29331
3.32008
3.34338
3.36344
3.38048
3.39466
3.40612
3.415
3.42142
3.4255
3.42734
3.42725
3.42531
3.42172
3.41674
3.41061
3.40387
0.470075
1.11099
1.22193
1.18164
1.04653
0.981106
1.07616
1.38803
1.72147
2.00842
2.24199
2.42995
2.58228
2.70742
2.81176
2.90002
2.97559
3.04098
3.09799
3.14798
3.19193
3.23061
3.26459
3.29433
3.32019
3.34248
3.36142
3.37722
3.39004
3.40004
3.40736
3.41212
3.41439
3.41454
3.41263
3.40885
3.40344
3.39664
3.38874
3.38024
0.15378
0.753525
0.907928
0.868985
0.761978
0.769412
0.993193
1.35032
1.69177
1.98354
2.22258
2.41629
2.5738
2.70308
2.81046
2.90076
2.97762
3.04369
3.10098
3.15093
3.19464
3.23291
3.26635
3.29545
3.32056
3.34199
3.35997
3.3747
3.38636
3.39509
3.40105
3.40429
3.40513
3.40374
3.40025
3.39487
3.38785
3.37947
3.37003
3.35999
0.0531827
0.317241
0.490242
0.489498
0.495418
0.630671
0.961163
1.33026
1.67177
1.96418
2.20601
2.4037
2.5653
2.69813
2.80828
2.90059
2.97878
3.04566
3.10335
3.1534
3.19699
3.23498
3.26801
3.29658
3.32107
3.34178
3.35894
3.37276
3.38342
3.39107
3.39581
3.39779
3.39739
3.39465
3.38978
3.38302
3.37462
3.36488
3.35409
3.34274
0.0425952
0.114066
0.202726
0.247305
0.342863
0.589955
0.953916
1.32511
1.66189
1.95133
2.1934
2.39324
2.55767
2.69328
2.80578
2.89989
2.97935
3.04706
3.10521
3.15545
3.19902
3.23682
3.26954
3.29769
3.32166
3.34176
3.35824
3.37128
3.38108
3.3878
3.39145
3.39243
3.39093
3.38704
3.38099
3.37304
3.36346
3.35255
3.34063
3.32815
0.0410951
0.0672527
0.101913
0.155765
0.290996
0.589006
0.963239
1.33032
1.65991
1.94451
2.18491
2.38534
2.55144
2.68901
2.80335
2.89897
2.97956
3.04805
3.10667
3.15715
3.20075
3.23843
3.27092
3.29873
3.32228
3.34188
3.35778
3.37017
3.37925
3.38515
3.3879
3.38805
3.38559
3.38073
3.37369
3.36473
3.35416
3.34227
3.32939
3.31596
0.0404643
0.0578048
0.0811373
0.134839
0.282127
0.604539
0.981067
1.34175
1.66341
1.94245
2.1801
2.37996
2.54675
2.68556
2.80123
2.89804
2.97959
3.04877
3.10783
3.15854
3.20222
3.23984
3.27215
3.2997
3.32291
3.3421
3.35751
3.36936
3.37784
3.38303
3.38509
3.3845
3.38126
3.37558
3.36772
3.35793
3.34653
3.33384
3.32018
3.30597
0.0397004
0.0531243
0.0761182
0.131554
0.287922
0.62467
1.00115
1.35573
1.67019
1.9437
2.17819
2.37677
2.54355
2.683
2.79956
2.89726
2.97956
3.04931
3.10877
3.15971
3.20347
3.24106
3.27324
3.30059
3.32353
3.34238
3.35741
3.36882
3.3768
3.3814
3.38293
3.38173
3.37784
3.37151
3.36297
3.35252
3.34046
3.32712
3.31283
3.298
0.0391678
0.05006
0.0731296
0.131187
0.296739
0.643616
1.02003
1.3698
1.67835
1.94698
2.1783
2.37531
2.54162
2.68128
2.79837
2.89668
2.97956
3.04976
3.10955
3.16069
3.20453
3.24212
3.27421
3.30141
3.32414
3.34273
3.35745
3.36851
3.37611
3.38024
3.38135
3.37967
3.37528
3.36843
3.35938
3.34841
3.33585
3.32201
3.30725
3.29195
0.0387778
0.0478707
0.0705124
0.130809
0.304817
0.658996
1.03606
1.38248
1.68651
1.95112
2.17961
2.37502
2.54067
2.68027
2.79764
2.89635
2.97963
3.05018
3.11022
3.16152
3.20545
3.24304
3.27508
3.30217
3.32475
3.34315
3.35764
3.36845
3.37576
3.37955
3.38035
3.37831
3.37356
3.36633
3.35691
3.34557
3.33265
3.31846
3.30338
3.28775
0.0384884
0.0462555
0.0681553
0.129837
0.310527
0.670645
1.04866
1.39283
1.6936
1.95515
2.18138
2.37539
2.54037
2.6798
2.79727
2.89623
2.97977
3.05057
3.1108
3.16223
3.20622
3.24382
3.27584
3.30286
3.32534
3.34362
3.35797
3.36861
3.37572
3.37929
3.3799
3.37763
3.37264
3.36518
3.35552
3.34396
3.33083
3.31645
3.30118
3.28538
0.0382807
0.0451339
0.066297
0.128701
0.314285
0.679133
1.05795
1.40054
1.69904
1.95846
2.18307
2.37605
2.54049
2.67974
2.79723
2.89632
2.98002
3.05097
3.11132
3.16284
3.20688
3.24451
3.27653
3.30353
3.32596
3.34418
3.35846
3.36902
3.37604
3.3795
3.38002
3.37765
3.37256
3.365
3.35526
3.34363
3.33043
3.31601
3.30073
3.28493
0.0382293
0.0450925
0.0668455
0.130924
0.320657
0.688513
1.06703
1.40771
1.70418
1.962
2.18548
2.37774
2.54178
2.68084
2.79827
2.89736
2.9811
3.0521
3.1125
3.16406
3.20814
3.2458
3.27785
3.30488
3.32735
3.34561
3.35992
3.37052
3.37759
3.38111
3.38169
3.37939
3.37438
3.36692
3.35729
3.34578
3.33274
3.3185
3.30343
3.28788
0.133607
0.181563
0.218575
0.246119
0.26876
0.288282
0.30561
0.321273
0.335605
0.348834
0.361119
0.372578
0.383301
0.393358
0.402805
0.411688
0.420044
0.427907
0.435303
0.442255
0.448784
0.454908
0.460644
0.466004
0.471003
0.475651
0.47996
0.483938
0.487595
0.490939
0.493978
0.49672
0.499173
0.501345
0.503245
0.504887
0.506288
0.507472
0.508483
0.509433
0.132274
0.181559
0.218951
0.246804
0.26964
0.289279
0.30668
0.322391
0.336757
0.350007
0.362307
0.373775
0.384502
0.39456
0.404006
0.412886
0.421238
0.429095
0.436484
0.443429
0.449951
0.456068
0.461795
0.467147
0.472138
0.476778
0.481079
0.48505
0.4887
0.492038
0.495071
0.497808
0.500255
0.502423
0.50432
0.505958
0.507355
0.508537
0.509544
0.510489
0.13194
0.182074
0.219502
0.24755
0.270599
0.29042
0.307967
0.323793
0.338245
0.351562
0.363911
0.375414
0.386166
0.39624
0.405694
0.414577
0.422927
0.430779
0.438159
0.445094
0.451603
0.457706
0.463419
0.468756
0.473732
0.478357
0.482643
0.486599
0.490236
0.49356
0.496581
0.499306
0.501744
0.503902
0.50579
0.507421
0.508811
0.509984
0.510976
0.511898
0.131685
0.182594
0.220291
0.248535
0.27175
0.291726
0.309413
0.325359
0.339914
0.353316
0.365733
0.377291
0.388085
0.398191
0.407668
0.416565
0.424925
0.432779
0.440158
0.447088
0.453589
0.459681
0.465382
0.470706
0.475667
0.480277
0.484548
0.488489
0.492111
0.495421
0.498429
0.501142
0.503568
0.505716
0.507595
0.509217
0.510599
0.511764
0.512746
0.513656
0.131608
0.18319
0.221154
0.249641
0.273044
0.293179
0.311004
0.32707
0.341729
0.35522
0.367712
0.379332
0.390177
0.400323
0.409831
0.418752
0.427127
0.434991
0.442375
0.449305
0.455802
0.461888
0.46758
0.472893
0.477842
0.482439
0.486696
0.490624
0.494232
0.497529
0.500524
0.503224
0.505639
0.507777
0.509647
0.511261
0.512635
0.513793
0.514769
0.515674
0.131587
0.183988
0.222192
0.250884
0.274466
0.294759
0.312721
0.328908
0.343672
0.357253
0.369823
0.381508
0.392407
0.402597
0.412141
0.421089
0.429483
0.437361
0.444754
0.451686
0.458184
0.464266
0.469951
0.475255
0.480194
0.48478
0.489024
0.492939
0.496534
0.499818
0.502801
0.50549
0.507894
0.510021
0.511882
0.513489
0.514857
0.516009
0.516981
0.517885
0.13172
0.184721
0.223269
0.252213
0.275988
0.296443
0.314546
0.330855
0.345726
0.359399
0.372048
0.383801
0.394756
0.404993
0.414573
0.42355
0.431967
0.439861
0.447263
0.454201
0.460699
0.466779
0.472459
0.477756
0.482685
0.48726
0.491493
0.495396
0.498978
0.50225
0.505221
0.507898
0.510292
0.51241
0.514262
0.515861
0.517223
0.518371
0.519342
0.520247
0.131857
0.185667
0.224469
0.253636
0.2776
0.298219
0.316464
0.332898
0.347877
0.361644
0.374374
0.386195
0.397209
0.407493
0.417112
0.42612
0.43456
0.442471
0.449884
0.456828
0.463329
0.469407
0.475082
0.480372
0.485293
0.489857
0.494079
0.49797
0.501541
0.5048
0.507759
0.510426
0.512809
0.514917
0.516761
0.518353
0.51971
0.520854
0.521824
0.52273
0.132123
0.186532
0.225702
0.255124
0.279286
0.300072
0.318462
0.335022
0.350112
0.363975
0.376788
0.388679
0.399752
0.410086
0.419745
0.428785
0.437249
0.445177
0.452603
0.459554
0.466057
0.472134
0.477806
0.483089
0.488001
0.492556
0.496766
0.500646
0.504204
0.507452
0.510399
0.513054
0.515427
0.517526
0.519362
0.520947
0.522299
0.52344
0.52441
0.525318
0.132367
0.187573
0.227024
0.25668
0.281038
0.301993
0.32053
0.337219
0.352421
0.366382
0.379279
0.391243
0.402376
0.41276
0.422461
0.431533
0.440023
0.44797
0.455408
0.462367
0.468873
0.47495
0.480617
0.485894
0.490798
0.495342
0.499542
0.50341
0.506956
0.510192
0.513127
0.515771
0.518133
0.520223
0.522051
0.52363
0.524976
0.526115
0.527085
0.527995
0.132721
0.188551
0.228375
0.258289
0.282848
0.303974
0.32266
0.339479
0.354795
0.368855
0.381838
0.393876
0.405072
0.415508
0.425251
0.434357
0.442873
0.450839
0.458291
0.465258
0.471767
0.477843
0.483507
0.488778
0.493673
0.498208
0.502397
0.506252
0.509787
0.51301
0.515934
0.518566
0.520918
0.522999
0.524819
0.526391
0.527733
0.528869
0.529839
0.530751
0.133051
0.189664
0.229794
0.259952
0.284712
0.30601
0.324846
0.341797
0.357228
0.371389
0.384459
0.396572
0.407831
0.41832
0.428107
0.437248
0.445791
0.453777
0.461242
0.468218
0.474731
0.480807
0.486468
0.491733
0.49662
0.501144
0.505322
0.509166
0.512688
0.515899
0.518811
0.521432
0.523774
0.525845
0.527657
0.529223
0.53056
0.531693
0.532663
0.533577
0.133469
0.190735
0.231242
0.261659
0.286624
0.308096
0.327083
0.344166
0.359714
0.373977
0.387135
0.399324
0.410648
0.421191
0.431022
0.440199
0.44877
0.456777
0.464256
0.471241
0.477758
0.483835
0.489492
0.494751
0.499629
0.504144
0.508311
0.512143
0.515652
0.518852
0.521751
0.524361
0.526692
0.528754
0.530558
0.532117
0.53345
0.534581
0.535551
0.536467
0.133868
0.191909
0.232745
0.263413
0.288582
0.310229
0.329368
0.346584
0.36225
0.376615
0.389863
0.402128
0.413518
0.424115
0.433992
0.443205
0.451804
0.459832
0.467326
0.47432
0.480842
0.486919
0.492573
0.497826
0.502696
0.507202
0.511357
0.515177
0.518674
0.521861
0.524749
0.527347
0.529668
0.53172
0.533516
0.535069
0.536396
0.537525
0.538494
0.539412
0.134336
0.19306
0.234275
0.265205
0.290583
0.312405
0.331697
0.349048
0.364831
0.3793
0.392637
0.40498
0.416435
0.427089
0.437011
0.44626
0.454888
0.462938
0.470447
0.477451
0.483978
0.490055
0.495706
0.500953
0.505815
0.510311
0.514455
0.518263
0.521748
0.524922
0.527798
0.530385
0.532695
0.534738
0.536525
0.538071
0.539394
0.54052
0.541489
0.542409
0.134793
0.19429
0.235851
0.267038
0.292624
0.314624
0.334069
0.351555
0.367456
0.382028
0.395456
0.407877
0.419398
0.430107
0.440075
0.449362
0.458019
0.46609
0.473615
0.480628
0.48716
0.493238
0.498886
0.504127
0.508982
0.513467
0.5176
0.521396
0.524869
0.52803
0.530894
0.533469
0.535768
0.537801
0.539581
0.54112
0.542438
0.543561
0.54453
0.545452
0.135303
0.19551
0.237454
0.268907
0.294704
0.316882
0.336482
0.354102
0.370122
0.384799
0.398316
0.410815
0.422403
0.433168
0.443182
0.452506
0.461192
0.469286
0.476826
0.483849
0.490385
0.496464
0.502109
0.507345
0.512191
0.516666
0.520788
0.524572
0.528032
0.531181
0.534032
0.536596
0.538884
0.540907
0.542678
0.544211
0.545524
0.546644
0.547613
0.548537
0.135809
0.196791
0.239097
0.270813
0.296821
0.319178
0.338933
0.35669
0.372828
0.387609
0.401217
0.413794
0.425449
0.43627
0.44633
0.455691
0.464406
0.472521
0.480077
0.487109
0.493651
0.499729
0.505372
0.510601
0.515439
0.519904
0.524015
0.527786
0.531233
0.53437
0.537208
0.53976
0.542038
0.544051
0.545814
0.54734
0.548648
0.549765
0.550733
0.55166
0.136355
0.198073
0.240768
0.272754
0.298975
0.321512
0.341423
0.359315
0.375573
0.390458
0.404157
0.416812
0.428533
0.439409
0.449515
0.458913
0.467657
0.475794
0.483365
0.490407
0.496953
0.503032
0.508671
0.513894
0.518723
0.523178
0.527277
0.531036
0.534471
0.537594
0.54042
0.54296
0.545226
0.54723
0.548984
0.550503
0.551806
0.55292
0.553888
0.554816
0.136902
0.199404
0.242474
0.274729
0.301165
0.323883
0.34395
0.361979
0.378356
0.393345
0.407134
0.419867
0.431654
0.442586
0.452737
0.462172
0.470944
0.479102
0.486688
0.493739
0.500289
0.506368
0.512004
0.517221
0.522041
0.526485
0.530572
0.534319
0.53774
0.540851
0.543664
0.546192
0.548447
0.550441
0.552186
0.553698
0.554996
0.556106
0.557074
0.558004
0.13748
0.200742
0.244208
0.276736
0.30339
0.32629
0.346514
0.36468
0.381176
0.396269
0.410149
0.422958
0.434811
0.445798
0.455995
0.465465
0.474266
0.482445
0.490045
0.497105
0.503658
0.509737
0.515369
0.520579
0.52539
0.529823
0.533898
0.537631
0.541039
0.544137
0.546937
0.549453
0.551696
0.55368
0.555416
0.556921
0.558214
0.559321
0.560288
0.56122
0.138063
0.202121
0.245975
0.278778
0.305649
0.328733
0.349115
0.367417
0.384034
0.39923
0.413199
0.426086
0.438004
0.449045
0.459286
0.468793
0.477621
0.48582
0.493433
0.500501
0.507058
0.513136
0.518763
0.523966
0.528767
0.533189
0.537252
0.540972
0.544366
0.54745
0.550237
0.55274
0.554972
0.556945
0.558673
0.560171
0.561457
0.562562
0.563527
0.564462
0.138672
0.203512
0.247769
0.280851
0.307943
0.331211
0.351752
0.370192
0.386927
0.402228
0.416286
0.429249
0.441232
0.452327
0.462611
0.472153
0.481007
0.489226
0.496852
0.503928
0.510487
0.516563
0.522185
0.52738
0.532172
0.536582
0.540631
0.544338
0.547718
0.550788
0.553561
0.556052
0.558272
0.560235
0.561953
0.563444
0.564725
0.565826
0.566791
0.567727
0.139287
0.204939
0.249596
0.282957
0.310271
0.333725
0.354425
0.373003
0.389858
0.405261
0.419409
0.432448
0.444494
0.455642
0.46597
0.475545
0.484425
0.492662
0.500301
0.507383
0.513944
0.520018
0.525634
0.530821
0.535601
0.539999
0.544035
0.547728
0.551094
0.554149
0.556909
0.559386
0.561594
0.563546
0.565256
0.566738
0.568014
0.569112
0.570075
0.571013
0.139924
0.206381
0.25145
0.285095
0.312633
0.336274
0.357134
0.37585
0.392825
0.408332
0.422568
0.435682
0.447791
0.458991
0.469361
0.478968
0.487874
0.496128
0.503779
0.510866
0.517428
0.523499
0.529109
0.534286
0.539055
0.54344
0.547462
0.55114
0.554491
0.557532
0.560277
0.562741
0.564937
0.566878
0.568578
0.570053
0.571323
0.572417
0.573379
0.574319
0.140568
0.207855
0.253334
0.287266
0.31503
0.338859
0.359879
0.378734
0.395828
0.411438
0.425762
0.438951
0.451122
0.462373
0.472784
0.482424
0.491352
0.499624
0.507284
0.514376
0.520938
0.527005
0.532607
0.537774
0.542532
0.546903
0.55091
0.554573
0.557909
0.560934
0.563665
0.566116
0.568299
0.570229
0.571919
0.573386
0.57465
0.57574
0.576701
0.577642
0.141231
0.209348
0.255247
0.289468
0.31746
0.341479
0.362661
0.381654
0.398868
0.414581
0.428992
0.442255
0.454488
0.465788
0.476239
0.48591
0.494861
0.503147
0.510817
0.517913
0.524474
0.530535
0.536129
0.541285
0.54603
0.550387
0.554379
0.558025
0.561345
0.564356
0.567071
0.569508
0.571678
0.573596
0.575276
0.576735
0.577993
0.579079
0.580039
0.580982
0.141903
0.210869
0.25719
0.291704
0.319925
0.344135
0.365479
0.384612
0.401945
0.41776
0.432259
0.445594
0.457887
0.469237
0.479726
0.489426
0.498399
0.5067
0.514377
0.521475
0.528033
0.534089
0.539674
0.544818
0.549548
0.55389
0.557866
0.561497
0.5648
0.567794
0.570494
0.572916
0.575073
0.576979
0.57865
0.5801
0.581352
0.582434
0.583392
0.584336
0.142591
0.21241
0.259162
0.293971
0.322425
0.346827
0.368335
0.387607
0.40506
0.420977
0.435561
0.448969
0.461321
0.472719
0.483246
0.492974
0.501966
0.51028
0.517963
0.525062
0.531618
0.537666
0.54324
0.548371
0.553087
0.557413
0.561372
0.564985
0.568271
0.571249
0.573933
0.57634
0.578483
0.580377
0.582037
0.583479
0.584724
0.585802
0.586758
0.587704
0.143289
0.213979
0.261164
0.296271
0.324959
0.349556
0.371227
0.390639
0.408212
0.42423
0.438901
0.452379
0.46479
0.476234
0.486797
0.496552
0.505563
0.513887
0.521576
0.528675
0.535225
0.541265
0.546827
0.551945
0.556645
0.560954
0.564895
0.56849
0.571759
0.574718
0.577386
0.579777
0.581907
0.583788
0.585437
0.58687
0.588109
0.589182
0.590137
0.591084
0.144002
0.21557
0.263195
0.298604
0.327529
0.352321
0.374157
0.39371
0.411402
0.427522
0.442277
0.455826
0.468293
0.479783
0.49038
0.50016
0.509188
0.517523
0.525215
0.532312
0.538856
0.544885
0.550435
0.555537
0.560221
0.564512
0.568434
0.572011
0.575261
0.578202
0.580853
0.583228
0.585343
0.587211
0.588849
0.590273
0.591505
0.592574
0.593527
0.594475
0.144725
0.217187
0.265257
0.300971
0.330134
0.355123
0.377125
0.396819
0.414631
0.430851
0.44569
0.459308
0.471832
0.483365
0.493995
0.503799
0.512843
0.521185
0.52888
0.535973
0.542509
0.548528
0.554063
0.559149
0.563814
0.568086
0.571989
0.575546
0.578776
0.5817
0.584332
0.586691
0.588791
0.590646
0.592272
0.593687
0.594911
0.595976
0.596927
0.597877
0.145461
0.218828
0.267349
0.303371
0.332775
0.357963
0.380132
0.399967
0.417898
0.434219
0.449141
0.462827
0.475405
0.486981
0.497643
0.507469
0.516526
0.524875
0.53257
0.539658
0.546185
0.552191
0.557711
0.562779
0.567425
0.571677
0.575559
0.579095
0.582305
0.585209
0.587824
0.590165
0.592249
0.594091
0.595705
0.59711
0.598327
0.599387
0.600336
0.601287
0.146209
0.220495
0.269471
0.305805
0.335453
0.360841
0.383178
0.403154
0.421205
0.437625
0.45263
0.466383
0.479015
0.490631
0.501323
0.511169
0.520238
0.528592
0.536285
0.543367
0.549883
0.555874
0.561377
0.566426
0.571052
0.575282
0.579143
0.582658
0.585847
0.58873
0.591326
0.593649
0.595717
0.597545
0.599147
0.600542
0.601751
0.602806
0.603753
0.604705
0.146969
0.222186
0.271625
0.308274
0.338168
0.363757
0.386263
0.406382
0.424552
0.441071
0.456158
0.469977
0.48266
0.494315
0.505035
0.5149
0.523979
0.532336
0.540025
0.547099
0.553603
0.559578
0.565062
0.570091
0.574694
0.578902
0.582741
0.586232
0.5894
0.592262
0.594838
0.597143
0.599194
0.601007
0.602597
0.603981
0.605183
0.606233
0.607177
0.60813
0.14774
0.223903
0.27381
0.310778
0.34092
0.366713
0.389389
0.40965
0.427939
0.444557
0.459724
0.473608
0.486341
0.498033
0.50878
0.518661
0.527749
0.536106
0.543791
0.550854
0.557343
0.563301
0.568765
0.573772
0.578352
0.582537
0.586351
0.589819
0.592963
0.595804
0.598359
0.600645
0.602679
0.604477
0.606054
0.607428
0.608621
0.609665
0.610608
0.611562
0.148524
0.225646
0.276027
0.313318
0.343711
0.369709
0.392555
0.412959
0.431367
0.448083
0.46333
0.477276
0.490058
0.501787
0.512558
0.522453
0.531547
0.539903
0.547581
0.554632
0.561105
0.567043
0.572486
0.577469
0.582025
0.586184
0.589973
0.593417
0.596537
0.599355
0.601888
0.604155
0.606171
0.607953
0.609517
0.61088
0.612065
0.613103
0.614043
0.614998
0.14932
0.227416
0.278277
0.315894
0.34654
0.372745
0.395763
0.41631
0.434836
0.45165
0.466975
0.480984
0.493812
0.505575
0.516368
0.526276
0.535374
0.543727
0.551395
0.558433
0.564887
0.570804
0.576223
0.581181
0.585711
0.589844
0.593607
0.597024
0.60012
0.602914
0.605425
0.607672
0.60967
0.611435
0.612985
0.614337
0.615513
0.616546
0.617483
0.618439
0.150127
0.229212
0.280559
0.318507
0.349409
0.375822
0.399013
0.419703
0.438348
0.455259
0.470661
0.48473
0.497603
0.509398
0.520211
0.53013
0.53923
0.547577
0.555234
0.562255
0.56869
0.574583
0.579977
0.584908
0.589411
0.593516
0.597251
0.600642
0.603711
0.606481
0.608969
0.611195
0.613174
0.614922
0.616458
0.617798
0.618965
0.619992
0.620926
0.621883
0.150947
0.231036
0.282876
0.321157
0.352318
0.378941
0.402306
0.42314
0.441903
0.458909
0.474388
0.488515
0.501432
0.513256
0.524088
0.534015
0.543114
0.551454
0.559097
0.5661
0.572512
0.578381
0.583747
0.58865
0.593124
0.597199
0.600905
0.604268
0.607311
0.610054
0.612519
0.614723
0.616682
0.618413
0.619934
0.621262
0.62242
0.623441
0.624372
0.62533
0.151779
0.232887
0.285226
0.323846
0.355268
0.382104
0.405643
0.42662
0.445501
0.462602
0.478156
0.49234
0.505298
0.51715
0.527998
0.53793
0.547026
0.555357
0.562984
0.569966
0.576354
0.582195
0.587533
0.592406
0.596848
0.600893
0.604569
0.607902
0.610917
0.613634
0.616074
0.618255
0.620194
0.621908
0.623413
0.624728
0.625877
0.626891
0.627819
0.628778
0.152623
0.234767
0.287611
0.326573
0.35826
0.385309
0.409024
0.430146
0.449144
0.466339
0.481965
0.496204
0.509202
0.521079
0.531941
0.541877
0.550967
0.559285
0.566894
0.573853
0.580215
0.586027
0.591334
0.596174
0.600585
0.604597
0.608242
0.611544
0.614529
0.617219
0.619633
0.621791
0.623709
0.625404
0.626893
0.628196
0.629335
0.630342
0.631267
0.632227
0.153479
0.236675
0.290032
0.329341
0.361295
0.388559
0.41245
0.433716
0.452831
0.470119
0.485817
0.50011
0.513144
0.525045
0.535917
0.545854
0.554937
0.563239
0.570828
0.577761
0.584094
0.589875
0.595149
0.599956
0.604332
0.608311
0.611922
0.615192
0.618147
0.620808
0.623196
0.625329
0.627225
0.628902
0.630375
0.631664
0.632793
0.633793
0.634715
0.635676
0.154348
0.238612
0.29249
0.332149
0.364373
0.391854
0.415922
0.437333
0.456564
0.473944
0.489712
0.504056
0.517125
0.529046
0.539927
0.549861
0.558934
0.567219
0.574784
0.58169
0.587991
0.593739
0.598978
0.603749
0.608089
0.612032
0.615609
0.618846
0.62177
0.624401
0.626761
0.62887
0.630743
0.6324
0.633856
0.635132
0.63625
0.637243
0.638162
0.639123
0.15523
0.24058
0.294984
0.334998
0.367495
0.395195
0.419442
0.440997
0.460343
0.477813
0.49365
0.508043
0.521145
0.533084
0.54397
0.5539
0.562959
0.571223
0.578763
0.585638
0.591906
0.597618
0.60282
0.607553
0.611856
0.615762
0.619303
0.622505
0.625396
0.627996
0.630328
0.632411
0.634261
0.635898
0.637337
0.638598
0.639706
0.640692
0.641606
0.642569
0.156124
0.242579
0.297516
0.33789
0.370663
0.398584
0.423009
0.444709
0.46417
0.481729
0.497632
0.512072
0.525203
0.537158
0.548047
0.557969
0.567012
0.575253
0.582763
0.589606
0.595838
0.601512
0.606675
0.611368
0.615632
0.619499