/*--------------------------------*- C++ -*----------------------------------*\
| =========                 |                                                 |
| \\      /  F ield         | OpenFOAM: The Open Source CFD Toolbox           |
|  \\    /   O peration     | Version:  2.3.0                                 |
|   \\  /    A nd           | Web:      www.OpenFOAM.org                      |
|    \\/     M anipulation  |                                                 |
\*---------------------------------------------------------------------------*/
FoamFile
{
    version     2.0;
    format      ascii;
    class       volScalarField;
    location    "10000";
    object      magU;
}
// * * * * * * * * * * * * * * * * * * * * * * * * * * * * * * * * * * * * * //

dimensions      [0 1 -1 0 0 0 0];

internalField   nonuniform List<scalar> 
26600
(
16.2485
15.7342
15.5311
15.4093
15.343
15.352
15.3949
15.4557
15.5174
15.5784
15.6309
15.6742
15.7038
15.7224
15.7276
15.7231
15.7079
15.6857
15.6557
15.6209
15.5797
15.5345
15.4856
15.417
15.364
15.2754
15.2202
15.117
15.0568
14.9353
14.8566
14.7339
14.6288
14.5147
14.3901
14.2573
14.1098
13.9495
13.7719
13.6039
16.179
15.7795
15.5977
15.5344
15.4881
15.4728
15.4882
15.5237
15.5707
15.6212
15.6679
15.7088
15.7403
15.7627
15.7742
15.7765
15.7685
15.7512
15.7238
15.6873
15.64
15.5831
15.5138
15.433
15.3369
15.2261
15.0977
14.9549
14.7949
14.6241
14.437
14.2473
14.0383
13.8409
13.6141
13.4268
13.1767
13.0269
12.6972
12.8438
16.206
15.7863
15.6182
15.5369
15.4726
15.434
15.4212
15.428
15.4467
15.4715
15.4955
15.5157
15.5284
15.5321
15.5249
15.5068
15.4753
15.4302
15.3687
15.2896
15.1894
15.0672
14.9204
14.7504
14.5567
14.3435
14.1128
13.8718
13.622
13.3715
13.119
12.8747
12.6288
12.3991
12.1597
11.9564
11.7116
11.5602
11.2418
11.359
16.2184
15.8264
15.6431
15.5149
15.4218
15.361
15.3261
15.3103
15.3062
15.3084
15.31
15.3078
15.2969
15.2743
15.2364
15.1797
15.0993
14.9915
14.8501
14.6723
14.4547
14.2001
13.9127
13.6008
13.2736
12.9404
12.6088
12.2873
11.9771
11.6842
11.4061
11.1477
10.901
10.6759
10.4547
10.2646
10.0531
9.91586
9.65098
9.76666
16.2145
15.8659
15.6636
15.4986
15.3746
15.2875
15.2291
15.1908
15.1647
15.1441
15.1208
15.0902
15.0446
14.9762
14.8773
14.7352
14.5409
14.2853
13.9652
13.5872
13.1645
12.7169
12.2658
11.8251
11.4059
11.0153
10.6546
10.323
10.0188
9.74179
9.48735
9.25623
9.04225
8.84977
8.66655
8.50811
8.34174
8.22782
8.02644
8.13952
16.2158
15.8891
15.6642
15.4756
15.3269
15.2153
15.1338
15.0727
15.024
14.9772
14.922
14.8466
14.7369
14.5682
14.3245
13.9746
13.5242
12.9776
12.3751
11.7564
11.1567
10.598
10.0914
9.63523
9.22916
8.86855
8.54739
8.26134
8.00686
7.77976
7.57569
7.39318
7.22762
7.07992
6.9433
6.82488
6.70648
6.62266
6.48286
6.58642
16.202
15.8873
15.6503
15.4457
15.2786
15.1462
15.0437
14.9595
14.8864
14.8041
14.6971
14.5309
14.2678
13.8451
13.2565
12.4988
11.671
10.8297
10.0494
9.35595
8.75082
8.23121
7.78463
7.40106
7.07173
6.78623
6.53867
6.32332
6.13513
5.97023
5.82482
5.69695
5.58349
5.4837
5.39375
5.31674
5.24267
5.19111
5.10434
5.19806
16.1713
15.8679
15.6252
15.4111
15.2306
15.0814
14.9604
14.8525
14.7487
14.6057
14.3816
13.9766
13.3018
12.3374
11.2207
10.0891
9.07649
8.20424
7.48122
6.886
6.39686
5.99621
5.66421
5.38847
5.15757
4.96252
4.79635
4.65408
4.53174
4.42636
4.33536
4.25712
4.18974
4.13225
4.08248
4.04173
4.00453
3.98165
3.93787
4.02105
16.142
15.8422
15.5944
15.374
15.1842
15.0219
14.8844
14.7484
14.5889
14.2954
13.7271
12.6825
11.2528
9.74558
8.38534
7.27029
6.37765
5.68346
5.14799
4.72969
4.4025
4.14201
3.93168
3.76029
3.61917
3.50228
3.40493
3.32374
3.25597
3.19956
3.15292
3.11493
3.08446
3.0608
3.04278
3.03083
3.02217
3.02254
3.01043
3.0825
16.119
15.8147
15.5611
15.3364
15.1408
14.968
14.8125
14.6259
14.3029
13.5304
12.0537
10.078
8.21758
6.70551
5.54776
4.71628
4.10959
3.67485
3.35479
3.11228
2.92572
2.77983
2.66405
2.57179
2.49794
2.4388
2.39175
2.35495
2.3268
2.30606
2.29175
2.28317
2.27967
2.28073
2.28572
2.29467
2.30631
2.32325
2.33385
2.39393
16.1002
15.7864
15.5269
15.3003
15.1016
14.9182
14.7277
14.3773
13.4582
11.4823
8.94843
6.77782
5.15876
4.0628
3.35233
2.89676
2.58125
2.35806
2.19384
2.06955
1.97496
1.9025
1.84674
1.80461
1.77355
1.75152
1.73709
1.72923
1.72708
1.7299
1.73707
1.74813
1.76262
1.78016
1.8004
1.82311
1.84783
1.87527
1.90089
1.94924
16.0822
15.7567
15.4934
15.2674
15.0665
14.8616
14.5339
13.4998
11.1329
8.0287
5.50202
3.86779
2.95027
2.43639
2.11507
1.89978
1.74703
1.63601
1.55338
1.4911
1.44543
1.41279
1.39065
1.37741
1.37167
1.37215
1.37791
1.38823
1.4025
1.4202
1.44091
1.46426
1.48992
1.51761
1.54706
1.57801
1.61035
1.64377
1.67844
1.71683
16.0626
15.7252
15.4629
15.2405
15.0315
14.7296
13.6959
11.1418
7.34673
4.4804
3.04236
2.36208
1.98341
1.74027
1.56907
1.44542
1.35363
1.28633
1.23818
1.20487
1.18398
1.17324
1.17088
1.17551
1.18597
1.20118
1.2203
1.24268
1.2678
1.29525
1.3247
1.35586
1.38852
1.42246
1.45749
1.49339
1.5302
1.56729
1.60715
1.63958
16.0404
15.6927
15.4392
15.2212
14.9577
13.9995
11.5129
6.94132
3.81624
2.57057
2.09081
1.81518
1.60916
1.45031
1.32726
1.23366
1.16425
1.11563
1.08441
1.0673
1.06181
1.06575
1.07726
1.09482
1.11715
1.14321
1.17219
1.20346
1.23657
1.27118
1.30703
1.34392
1.38172
1.42028
1.45949
1.49917
1.53942
1.57961
1.6228
1.65446
16.0181
15.6634
15.4279
15.2005
14.3767
12.0337
6.95951
3.42701
2.28947
2.01178
1.80711
1.6113
1.44193
1.303
1.19431
1.11324
1.05611
1.01974
1.00084
0.996143
1.00284
1.0185
1.04108
1.06893
1.10072
1.13543
1.17228
1.21072
1.25033
1.29086
1.33211
1.37395
1.41629
1.45905
1.50218
1.54556
1.58929
1.63283
1.67896
1.71354
16.0029
15.6446
15.4409
14.802
12.6256
7.43272
3.30045
2.08274
1.98363
1.89017
1.7002
1.50717
1.33929
1.20459
1.10236
1.02942
0.981806
0.955826
0.947742
0.953908
0.971135
0.996756
1.0286
1.06497
1.10457
1.14643
1.18985
1.23434
1.27955
1.32528
1.37139
1.4178
1.46446
1.51134
1.55842
1.60564
1.65308
1.70036
1.74981
1.78864
16.0078
15.669
15.2359
13.2506
8.16331
3.32106
1.79877
1.8966
1.98472
1.86899
1.64121
1.43247
1.25963
1.12602
1.02847
0.962553
0.923622
0.907225
0.909017
0.924908
0.95137
0.985554
1.02524
1.06878
1.11492
1.16281
1.21181
1.2615
1.31162
1.36199
1.41254
1.4632
1.51398
1.56487
1.61588
1.66698
1.71825
1.76942
1.82242
1.86604
16.0515
15.6776
13.8197
8.88604
3.45952
1.64389
1.7497
2.08202
2.07179
1.86658
1.59382
1.36696
1.18899
1.05664
0.963888
0.905004
0.874513
0.867187
0.878067
0.902657
0.937192
0.978732
1.02508
1.07466
1.12634
1.17933
1.2331
1.28731
1.34174
1.39626
1.45082
1.50542
1.56005
1.61475
1.66954
1.72443
1.77948
1.8345
1.89108
1.93954
16.1692
14.2705
9.20303
3.55415
1.63342
1.59629
2.10688
2.28487
2.16727
1.85146
1.54346
1.3021
1.12133
0.99175
0.904773
0.85342
0.831412
0.832806
0.852084
0.884438
0.925995
0.973826
1.02582
1.0805
1.13684
1.19418
1.25204
1.31016
1.36837
1.42657
1.48476
1.54293
1.60112
1.65936
1.7177
1.77617
1.83481
1.8935
1.95355
2.00663
14.7741
8.20574
3.13194
1.70737
1.69317
2.11304
2.45684
2.48301
2.22847
1.8161
1.48293
1.23337
1.05351
0.928988
0.849204
0.806173
0.792872
0.802726
0.829785
0.869066
0.916711
0.969898
1.02665
1.08562
1.1459
1.20692
1.26829
1.32979
1.39129
1.45275
1.51415
1.57554
1.63695
1.69844
1.76005
1.82181
1.88379
1.94589
2.00918
2.06651
4.46005
2.41204
1.94577
2.13007
2.35849
2.60058
2.7736
2.65907
2.21665
1.75393
1.40797
1.15836
0.983968
0.867151
0.796205
0.762421
0.758134
0.776241
0.810523
0.855983
0.908894
0.96662
1.02736
1.08993
1.15352
1.21764
1.282
1.3464
1.41076
1.47506
1.53933
1.60358
1.66788
1.73228
1.79684
1.86159
1.9266
1.99178
2.05802
2.11918
4.61634
3.70117
3.13784
2.97276
2.92968
3.03831
3.03973
2.71814
2.13792
1.66227
1.31796
1.07669
0.912243
0.805805
0.745359
0.721748
0.726765
0.752921
0.793908
0.844871
0.902329
0.963894
1.02797
1.09352
1.15988
1.22661
1.29349
1.36037
1.42721
1.49398
1.56074
1.6275
1.69436
1.76136
1.82855
1.89597
1.96366
2.03158
2.10044
2.165
4.65333
4.09533
3.61306
3.39102
3.33164
3.35892
3.16786
2.62943
2.01379
1.54512
1.21529
0.989392
0.838777
0.74512
0.696661
0.684008
0.698514
0.732464
0.779649
0.835505
0.896885
0.961687
1.02854
1.09656
1.1652
1.23412
1.30312
1.37211
1.44104
1.50996
1.57886
1.64784
1.71693
1.78619
1.85569
1.92544
1.9955
2.0658
2.13695
2.20443
4.72816
4.36181
3.97363
3.75617
3.67282
3.5254
3.12637
2.46434
1.85084
1.40773
1.10329
0.898403
0.764732
0.685737
0.650411
0.649237
0.67323
0.714629
0.767499
0.82769
0.892444
0.959969
1.02913
1.09919
1.16971
1.24043
1.3112
1.38195
1.45268
1.5234
1.59417
1.66504
1.73606
1.80729
1.87878
1.95055
2.02264
2.09499
2.16809
2.23806
4.78112
4.55522
4.24371
4.01341
3.81531
3.51032
2.93305
2.23227
1.65641
1.256
0.98634
0.806439
0.691739
0.62861
0.607098
0.617575
0.650816
0.699202
0.757229
0.821237
0.888886
0.958701
1.02976
1.1015
1.17357
1.24576
1.31799
1.39023
1.46246
1.53471
1.60705
1.67953
1.7522
1.82511
1.8983
1.97179
2.0456
2.11966
2.19439
2.26646
4.80824
4.66018
4.36036
4.07518
3.77028
3.28687
2.62301
1.94804
1.44104
1.09963
0.869996
0.716635
0.621619
0.574809
0.567268
0.58918
0.631185
0.685984
0.748621
0.815964
0.88609
0.957827
1.03046
1.10357
1.17689
1.2503
1.32373
1.39717
1.47065
1.54419
1.61785
1.6917
1.76575
1.84008
1.91469
1.9896
2.06484
2.14032
2.21638
2.29017
4.82823
4.57624
4.24216
3.89208
3.45494
2.88906
2.22646
1.63668
1.22699
0.950294
0.759808
0.631961
0.556055
0.525295
0.531386
0.564149
0.614219
0.674773
0.741466
0.811696
0.883932
0.957279
1.03121
1.10544
1.17978
1.25417
1.32857
1.40301
1.47751
1.55212
1.62688
1.70184
1.77705
1.85255
1.92833
2.00443
2.08082
2.15745
2.23455
2.30974
4.71332
4.1402
3.79617
3.41077
2.9396
2.38436
1.80294
1.34797
1.0368
0.816797
0.660003
0.554623
0.496287
0.480755
0.49972
0.542465
0.599754
0.665359
0.735565
0.808269
0.882293
0.956988
1.032
1.10713
1.1823
1.25748
1.33268
1.40792
1.48325
1.55872
1.63438
1.71027
1.78641
1.86285
1.93961
2.01664
2.09396
2.17148
2.2494
2.32569
2.93378
3.08722
3.01626
2.74391
2.34535
1.88409
1.44327
1.11903
0.881983
0.703787
0.572762
0.485722
0.442923
0.441484
0.47229
0.523971
0.587566
0.657519
0.730725
0.805529
0.881063
0.956884
1.03278
1.10865
1.18449
1.2603
1.33614
1.41202
1.48803
1.56419
1.64057
1.7172
1.7941
1.87131
1.94881
2.02659
2.10463
2.18285
2.26136
2.33849
2.09248
2.35653
2.35346
2.17436
1.86126
1.51024
1.199
0.956658
0.763293
0.611444
0.498121
0.42522
0.395913
0.407364
0.448874
0.508388
0.577391
0.651028
0.726767
0.803341
0.880144
0.956906
1.03353
1.11002
1.18639
1.26271
1.33903
1.41544
1.49197
1.56869
1.64564
1.72286
1.80036
1.87816
1.95626
2.03461
2.11318
2.1919
2.27084
2.34861
1.97688
1.9792
1.91601
1.76656
1.53343
1.2819
1.0502
0.845717
0.67405
0.536709
0.434486
0.372168
0.354676
0.377964
0.429064
0.495359
0.568941
0.645669
0.723528
0.801586
0.879451
0.956998
1.03423
1.1112
1.18802
1.26473
1.34146
1.41826
1.49521
1.57235
1.64975
1.72743
1.80539
1.88365
1.96218
2.04096
2.11993
2.19901
2.27823
2.35645
2.00916
1.86078
1.71188
1.55522
1.36494
1.16515
0.960669
0.768852
0.606013
0.475474
0.379539
0.325127
0.318334
0.352667
0.412361
0.484497
0.561935
0.641243
0.720868
0.800162
0.878915
0.957116
1.03485
1.11223
1.18938
1.26642
1.34346
1.42057
1.49783
1.57531
1.65305
1.73107
1.80938
1.88799
1.96684
2.04592
2.12517
2.20448
2.28387
2.36242
2.03203
1.8677
1.67132
1.48774
1.30238
1.10855
0.904468
0.713556
0.552601
0.424066
0.330971
0.282545
0.28595
0.330833
0.398269
0.475437
0.556118
0.637574
0.718665
0.798989
0.87848
0.957224
1.03537
1.11308
1.19051
1.2678
1.34507
1.42242
1.49994
1.57766
1.65565
1.73393
1.81249
1.89134
1.97043
2.04971
2.12913
2.2086
2.28806
2.36682
2.04227
1.89107
1.69647
1.49693
1.2913
1.08012
0.867034
0.672116
0.509402
0.379785
0.286869
0.243032
0.256729
0.311913
0.386361
0.467869
0.551278
0.63452
0.716826
0.798001
0.878103
0.957296
1.03578
1.11376
1.19141
1.2689
1.34635
1.42388
1.50157
1.57948
1.65767
1.73612
1.81487
1.89388
1.97313
2.05254
2.13206
2.21161
2.2911
2.37
2.04668
1.91216
1.7249
1.51905
1.29381
1.06421
0.840643
0.640134
0.47379
0.340972
0.245884
0.20549
0.230158
0.295534
0.376322
0.46156
0.547254
0.631972
0.715277
0.797151
0.877755
0.957317
1.03608
1.11427
1.19209
1.26973
1.34732
1.42498
1.5028
1.58085
1.65917
1.73775
1.81662
1.89574
1.97508
2.05458
2.13417
2.21374
2.29321
2.37218
2.04869
1.92861
1.74886
1.53843
1.29841
1.05431
0.821403
0.615218
0.444391
0.306895
0.207274
0.169157
0.206081
0.281512
0.367944
0.456344
0.543928
0.629851
0.713966
0.796406
0.877415
0.957271
1.03625
1.11462
1.19258
1.27032
1.34802
1.42578
1.50369
1.58183
1.66022
1.7389
1.81785
1.89704
1.97643
2.05598
2.13558
2.21516
2.2946
2.37361
2.04878
1.9411
1.76761
1.55356
1.30287
1.04804
0.8075
0.596131
0.420636
0.27756
0.170874
0.133486
0.184654
0.269768
0.36107
0.452076
0.541186
0.628071
0.712828
0.795714
0.87704
0.957128
1.03629
1.11477
1.19284
1.27067
1.34843
1.42626
1.50423
1.58244
1.66089
1.73962
1.81862
1.89785
1.97728
2.05684
2.13645
2.21601
2.29543
2.37446
2.0459
1.95138
1.78214
1.56617
1.3082
1.04522
0.798326
0.582341
0.402452
0.25357
0.137209
0.0979239
0.166252
0.260217
0.355508
0.448573
0.538871
0.6265
0.711751
0.794978
0.876548
0.95681
1.03609
1.11467
1.19282
1.2707
1.34852
1.42639
1.50441
1.58265
1.66114
1.73991
1.81893
1.89819
1.97763
2.05719
2.1368
2.21634
2.29571
2.37474
2.04318
1.95901
1.79392
1.57946
1.31757
1.04758
0.794633
0.574404
0.390811
0.237005
0.109945
0.0644213
0.152596
0.253405
0.351493
0.445971
0.537078
0.625213
0.710798
0.794254
0.875984
0.956361
1.03572
1.11437
1.19255
1.27048
1.34832
1.4262
1.50426
1.58251
1.66103
1.7398
1.81885
1.89813
1.97757
2.05714
2.13673
2.21624
2.29552
2.37449
2.04277
1.96577
1.80398
1.59346
1.33024
1.054
0.795521
0.571958
0.386226
0.230145
0.0972294
0.0450051
0.146831
0.250577
0.349785
0.444819
0.536241
0.624565
0.710266
0.793791
0.875558
0.95595
1.03531
1.11394
1.19211
1.27002
1.34785
1.42572
1.50374
1.58199
1.66049
1.73926
1.81828
1.89752
1.97695
2.05649
2.13605
2.21558
2.295
2.37416
2.26922
2.42901
2.46424
2.46762
2.4613
2.4504
2.43713
2.42257
2.40732
2.39176
2.37614
2.36063
2.34535
2.33036
2.31576
2.30156
2.28782
2.27457
2.26181
2.24958
2.23788
2.22672
2.21611
2.20606
2.19658
2.18767
2.17932
2.17155
2.16436
2.15775
2.15172
2.14628
2.14142
2.13715
2.13346
2.13034
2.12776
2.12562
2.12341
2.12039
2.20794
2.39564
2.44323
2.4556
2.45452
2.44712
2.43641
2.42384
2.41024
2.39607
2.38167
2.36723
2.3529
2.33879
2.32497
2.31151
2.29844
2.2858
2.27361
2.26191
2.2507
2.23999
2.2298
2.22014
2.21101
2.20243
2.19439
2.18689
2.17997
2.17359
2.16777
2.16252
2.15784
2.15372
2.15016
2.14717
2.14472
2.14277
2.14121
2.13982
2.19132
2.38265
2.43234
2.4468
2.44823
2.44319
2.43452
2.4237
2.41159
2.39873
2.38546
2.37203
2.35861
2.34532
2.33225
2.31946
2.30703
2.29496
2.28331
2.2721
2.26134
2.25105
2.24125
2.23195
2.22316
2.21487
2.20711
2.19988
2.19317
2.187
2.18138
2.17629
2.17176
2.16777
2.16434
2.16144
2.15907
2.15722
2.15587
2.15501
2.16517
2.3631
2.41851
2.43704
2.44136
2.43863
2.4319
2.42276
2.41212
2.40054
2.38842
2.37601
2.3635
2.35104
2.33871
2.32661
2.3148
2.3033
2.29218
2.28145
2.27113
2.26126
2.25184
2.24288
2.2344
2.2264
2.21891
2.21192
2.20544
2.19947
2.19403
2.18911
2.18472
2.18086
2.17753
2.17474
2.17248
2.17075
2.16956
2.16891
2.15387
2.352
2.40828
2.42861
2.43488
2.43398
2.42892
2.42128
2.412
2.40164
2.39063
2.37922
2.36762
2.35599
2.34442
2.33302
2.32184
2.31093
2.30035
2.29011
2.28025
2.27079
2.26176
2.25316
2.245
2.23731
2.2301
2.22336
2.21711
2.21134
2.20608
2.20133
2.19708
2.19335
2.19014
2.18745
2.18528
2.18365
2.18257
2.18201
2.13705
2.33905
2.3982
2.42063
2.42866
2.42936
2.42577
2.4195
2.41145
2.40224
2.39228
2.38183
2.37113
2.36031
2.3495
2.33879
2.32824
2.31793
2.30788
2.29816
2.28876
2.27973
2.27108
2.26285
2.25503
2.24764
2.2407
2.23422
2.2282
2.22265
2.21758
2.21299
2.2089
2.2053
2.20221
2.19961
2.19755
2.19599
2.19499
2.19446
2.12951
2.3303
2.38997
2.41358
2.42293
2.42495
2.42261
2.41754
2.41062
2.40246
2.39348
2.38395
2.37409
2.36406
2.35398
2.34395
2.33403
2.32431
2.31481
2.30558
2.29665
2.28805
2.2798
2.27193
2.26445
2.25738
2.25072
2.24449
2.23871
2.23337
2.22849
2.22407
2.22013
2.21667
2.21369
2.2112
2.20922
2.20773
2.20677
2.20627
2.11763
2.32115
2.38235
2.40715
2.41764
2.42076
2.41953
2.4155
2.40959
2.4024
2.39432
2.38565
2.3766
2.36732
2.35795
2.34858
2.33928
2.33013
2.32116
2.31242
2.30395
2.29578
2.28793
2.28043
2.27329
2.26652
2.26014
2.25418
2.24863
2.2435
2.23882
2.23458
2.23079
2.22746
2.2246
2.2222
2.2203
2.21888
2.21796
2.21747
2.11215
2.3143
2.37584
2.40144
2.41282
2.41687
2.41658
2.41347
2.40847
2.40215
2.3949
2.38702
2.37872
2.37016
2.36147
2.35273
2.34403
2.33543
2.32698
2.31873
2.31072
2.30298
2.29552
2.28837
2.28156
2.27511
2.26902
2.26331
2.258
2.25309
2.2486
2.24453
2.24089
2.2377
2.23494
2.23265
2.23082
2.22946
2.22859
2.2281
2.10343
2.30746
2.3699
2.39626
2.40841
2.41326
2.41378
2.41148
2.40729
2.40175
2.39527
2.38813
2.38055
2.37266
2.3646
2.35647
2.34835
2.34028
2.33234
2.32457
2.317
2.30966
2.30259
2.2958
2.28933
2.28318
2.27737
2.27192
2.26684
2.26214
2.25784
2.25395
2.25045
2.24739
2.24476
2.24256
2.2408
2.2395
2.23866
2.23818
2.09917
2.30201
2.3647
2.39162
2.4044
2.40994
2.41116
2.40958
2.4061
2.40128
2.39551
2.38905
2.38211
2.37486
2.36741
2.35985
2.35227
2.34473
2.33727
2.32996
2.32282
2.31589
2.30919
2.30276
2.2966
2.29076
2.28522
2.28003
2.27518
2.2707
2.26658
2.26286
2.25951
2.25658
2.25405
2.25195
2.25027
2.24902
2.24821
2.24774
2.0926
2.29669
2.35996
2.3874
2.40074
2.40686
2.40871
2.40776
2.40494
2.40076
2.39562
2.38979
2.38347
2.37681
2.36993
2.36292
2.35586
2.34881
2.34183
2.33496
2.32823
2.3217
2.31537
2.30928
2.30344
2.29788
2.29262
2.28768
2.28306
2.27877
2.27485
2.27129
2.2681
2.26529
2.26288
2.26086
2.25925
2.25805
2.25728
2.25682
2.08915
2.2923
2.35574
2.38358
2.3974
2.40403
2.40643
2.40606
2.40381
2.40022
2.39567
2.39042
2.38467
2.37855
2.37221
2.36571
2.35915
2.35258
2.34604
2.3396
2.33328
2.32711
2.32114
2.31538
2.30986
2.30459
2.29959
2.29489
2.29049
2.28642
2.28267
2.27927
2.27623
2.27355
2.27124
2.26931
2.26777
2.26663
2.26588
2.26543
2.0841
2.28802
2.35186
2.38008
2.39433
2.40142
2.40431
2.40445
2.40273
2.39968
2.39567
2.39095
2.38572
2.38014
2.37429
2.36829
2.36219
2.35607
2.34996
2.34392
2.33799
2.3322
2.32656
2.32112
2.3159
2.3109
2.30617
2.30171
2.29752
2.29365
2.29008
2.28684
2.28394
2.28137
2.27917
2.27733
2.27586
2.27476
2.27405
2.2736
2.08124
2.28441
2.34836
2.3769
2.39151
2.39903
2.40234
2.40295
2.40171
2.39914
2.39563
2.39141
2.38668
2.38157
2.3762
2.37065
2.365
2.3593
2.35361
2.34796
2.3424
2.33695
2.33165
2.32653
2.32159
2.31686
2.31238
2.30815
2.30418
2.30049
2.2971
2.29401
2.29125
2.28881
2.28671
2.28496
2.28354
2.2825
2.2818
2.28137
2.07728
2.28089
2.34512
2.37396
2.38892
2.3968
2.40052
2.40156
2.40075
2.39863
2.39557
2.39181
2.38754
2.38289
2.37796
2.37285
2.36762
2.36233
2.35703
2.35175
2.34654
2.34143
2.33645
2.33162
2.32697
2.3225
2.31826
2.31425
2.31049
2.30699
2.30376
2.30083
2.2982
2.29588
2.29387
2.29219
2.29085
2.28986
2.28919
2.28876
2.07485
2.27784
2.34217
2.37127
2.38652
2.39475
2.39883
2.40025
2.39985
2.39815
2.39552
2.39219
2.38834
2.38411
2.3796
2.3749
2.37006
2.36516
2.36023
2.35531
2.35044
2.34565
2.34098
2.33644
2.33205
2.32784
2.32383
2.32004
2.31647
2.31315
2.3101
2.3073
2.30481
2.30259
2.30069
2.29909
2.29781
2.29685
2.29622
2.29579
2.07168
2.2749
2.33941
2.36876
2.38429
2.39283
2.39726
2.39903
2.399
2.39771
2.39546
2.39253
2.38909
2.38526
2.38115
2.37683
2.37237
2.36783
2.36325
2.35868
2.35413
2.34965
2.34527
2.341
2.33687
2.33291
2.32912
2.32553
2.32216
2.31902
2.31612
2.31347
2.31109
2.309
2.30717
2.30566
2.30444
2.30353
2.30291
2.30249
2.06958
2.27229
2.33687
2.36643
2.38223
2.39105
2.39579
2.3979
2.39822
2.39728
2.39542
2.39286
2.3898
2.38635
2.3826
2.37865
2.37455
2.37036
2.36611
2.36186
2.35762
2.35344
2.34933
2.34533
2.34145
2.33772
2.33415
2.33077
2.32758
2.3246
2.32185
2.31935
2.31709
2.3151
2.31337
2.31192
2.31077
2.30989
2.30931
2.30889
2.067
2.26976
2.33449
2.36425
2.38028
2.38938
2.39442
2.39685
2.39751
2.3969
2.39538
2.39319
2.39048
2.38738
2.38399
2.38038
2.37662
2.37276
2.36884
2.36489
2.36095
2.35705
2.35321
2.34946
2.34582
2.34231
2.33895
2.33577
2.33275
2.32994
2.32734
2.32496
2.32282
2.32092
2.31929
2.31791
2.31681
2.31598
2.31542
2.31501
2.06516
2.26747
2.33226
2.36219
2.37847
2.38783
2.39313
2.39587
2.39683
2.39656
2.39537
2.3935
2.39114
2.38837
2.38532
2.38204
2.37861
2.37506
2.37144
2.36779
2.36413
2.3605
2.35692
2.35341
2.35
2.34671
2.34355
2.34054
2.33769
2.33505
2.33259
2.33034
2.32831
2.32651
2.32496
2.32365
2.3226
2.32181
2.32127
2.32086
2.06299
2.26526
2.33015
2.36027
2.37676
2.38636
2.39194
2.39495
2.39621
2.39624
2.39538
2.39382
2.39178
2.38934
2.3866
2.38364
2.38051
2.37726
2.37394
2.37056
2.36717
2.36381
2.36046
2.35719
2.354
2.35092
2.34794
2.34512
2.34244
2.33993
2.33761
2.33548
2.33356
2.33186
2.33039
2.32914
2.32815
2.3274
2.32688
2.32648
2.06134
2.26321
2.32815
2.35844
2.37513
2.38497
2.39081
2.39409
2.39564
2.39596
2.39539
2.39415
2.3924
2.39028
2.38785
2.38519
2.38235
2.37939
2.37634
2.37323
2.3701
2.36698
2.36389
2.36084
2.35785
2.35496
2.35218
2.34952
2.347
2.34464
2.34245
2.34044
2.33861
2.337
2.3356
2.33443
2.33349
2.33278
2.33228
2.33188
2.05948
2.26123
2.32625
2.3567
2.37359
2.38367
2.38974
2.39329
2.3951
2.39571
2.39543
2.39449
2.39304
2.3912
2.38905
2.38669
2.38413
2.38145
2.37867
2.37582
2.37294
2.37005
2.36717
2.36434
2.36156
2.35886
2.35625
2.35376
2.35139
2.34917
2.3471
2.3452
2.34349
2.34196
2.34064
2.33953
2.33863
2.33794
2.33747
2.33708
2.05798
2.25936
2.32443
2.35503
2.37212
2.38241
2.38873
2.39253
2.39462
2.39549
2.39549
2.39483
2.39366
2.39211
2.39025
2.38815
2.38587
2.38345
2.38092
2.37833
2.37569
2.37303
2.37037
2.36774
2.36515
2.36263
2.36019
2.35786
2.35563
2.35354
2.35159
2.34981
2.34819
2.34675
2.34549
2.34444
2.34359
2.34294
2.34249
2.34209
2.05635
2.25754
2.32267
2.35343
2.37071
2.38122
2.38778
2.39182
2.39416
2.39531
2.39558
2.39518
2.3943
2.39301
2.39142
2.3896
2.38758
2.38541
2.38313
2.38077
2.37836
2.37592
2.37347
2.37103
2.36863
2.36629
2.36401
2.36182
2.35974
2.35778
2.35595
2.35426
2.35273
2.35138
2.35019
2.34919
2.34838
2.34777
2.34733
2.34695
2.05495
2.25581
2.32098
2.35188
2.36936
2.38008
2.38686
2.39114
2.39375
2.39515
2.39568
2.39556
2.39493
2.39392
2.39259
2.39102
2.38926
2.38733
2.3853
2.38316
2.38097
2.37873
2.37648
2.37424
2.37202
2.36984
2.36772
2.36568
2.36373
2.36189
2.36018
2.35858
2.35714
2.35586
2.35475
2.3538
2.35304
2.35245
2.35204
2.35165
2.05346
2.25411
2.31933
2.35039
2.36805
2.37897
2.38599
2.39051
2.39336
2.39501
2.3958
2.39594
2.39558
2.39482
2.39375
2.39243
2.39091
2.38922
2.38741
2.3855
2.38353
2.3815
2.37944
2.37737
2.37533
2.37331
2.37134
2.36944
2.36762
2.3659
2.36428
2.3628
2.36143
2.36023
2.35917
2.35828
2.35756
2.357
2.35661
2.35623
2.05213
2.25246
2.31773
2.34893
2.36678
2.3779
2.38514
2.38991
2.393
2.3949
2.39595
2.39635
2.39623
2.39573
2.3949
2.39383
2.39254
2.39109
2.38951
2.38781
2.38604
2.38421
2.38234
2.38045
2.37856
2.3767
2.37487
2.37311
2.37141
2.3698
2.36829
2.36689
2.36562
2.36448
2.36349
2.36264
2.36196
2.36144
2.36106
2.36069
2.05074
2.25083
2.31616
2.3475
2.36553
2.37688
2.38434
2.38934
2.39266
2.39482
2.39612
2.39676
2.3969
2.39664
2.39607
2.39522
2.39417
2.39294
2.39158
2.39008
2.38852
2.38687
2.38518
2.38346
2.38174
2.38003
2.37835
2.37671
2.37513
2.37363
2.37221
2.3709
2.36971
2.36864
2.3677
2.36691
2.36626
2.36577
2.3654
2.36504
2.04945
2.24924
2.31461
2.34609
2.36432
2.37587
2.38355
2.38878
2.39236
2.39476
2.3963
2.39719
2.39758
2.39757
2.39723
2.39662
2.3958
2.39479
2.39363
2.39234
2.39096
2.3895
2.38798
2.38644
2.38487
2.3833
2.38175
2.38024
2.37878
2.37738
2.37606
2.37484
2.37372
2.37271
2.37183
2.37108
2.37048
2.37
2.36966
2.36929
2.04811
2.24766
2.31308
2.34472
2.36312
2.37489
2.38279
2.38826
2.39207
2.39472
2.39651
2.39764
2.39827
2.3985
2.3984
2.39802
2.39742
2.39662
2.39567
2.39458
2.39339
2.39211
2.39076
2.38937
2.38795
2.38652
2.38511
2.38371
2.38236
2.38107
2.37984
2.3787
2.37765
2.3767
2.37588
2.37518
2.37461
2.37416
2.37383
2.37347
2.04684
2.24609
2.31157
2.34335
2.36194
2.37392
2.38206
2.38776
2.39181
2.3947
2.39673
2.39812
2.39898
2.39944
2.39958
2.39942
2.39904
2.39846
2.39771
2.39682
2.3958
2.3947
2.39352
2.39228
2.39101
2.38972
2.38842
2.38715
2.38591
2.38471
2.38357
2.3825
2.38153
2.38065
2.37987
2.3792
2.37867
2.37825
2.37793
2.37758
2.04552
2.24453
2.31006
2.34199
2.36078
2.37297
2.38133
2.38727
2.39156
2.3947
2.39698
2.3986
2.39971
2.40042
2.40077
2.40085
2.40067
2.4003
2.39975
2.39905
2.39821
2.39727
2.39626
2.39517
2.39404
2.39288
2.39171
2.39055
2.3894
2.3883
2.38725
2.38626
2.38535
2.38453
2.3838
2.38318
2.38268
2.38228
2.38197
2.38162
2.04424
2.24296
2.30856
2.34063
2.35962
2.37203
2.38062
2.3868
2.39133
2.39471
2.39723
2.3991
2.40046
2.40139
2.40198
2.40228
2.40232
2.40215
2.40179
2.40127
2.40062
2.39985
2.39899
2.39805
2.39705
2.39602
2.39497
2.39391
2.39287
2.39186
2.39089
2.38998
2.38913
2.38837
2.38769
2.38711
2.38663
2.38626
2.38597
2.38562
2.04292
2.24139
2.30704
2.33929
2.35847
2.3711
2.37992
2.38634
2.39112
2.39475
2.39752
2.39963
2.40122
2.40239
2.40321
2.40372
2.40398
2.404
2.40384
2.40351
2.40303
2.40242
2.40171
2.40092
2.40006
2.39915
2.39821
2.39727
2.39632
2.3954
2.39451
2.39366
2.39288
2.39217
2.39154
2.39099
2.39055
2.3902
2.38993
2.38958
2.0416
2.2398
2.30553
2.33793
2.35732
2.37017
2.37923
2.38589
2.39092
2.3948
2.39782
2.40018
2.40201
2.40341
2.40445
2.40518
2.40564
2.40588
2.4059
2.40575
2.40544
2.405
2.40444
2.40378
2.40305
2.40227
2.40145
2.4006
2.39975
2.39891
2.39809
2.39732
2.3966
2.39594
2.39535
2.39485
2.39443
2.3941
2.39384
2.3935
2.04024
2.23821
2.304
2.33657
2.35617
2.36925
2.37855
2.38545
2.39074
2.39487
2.39813
2.40074
2.40282
2.40445
2.40572
2.40667
2.40734
2.40777
2.40798
2.40801
2.40787
2.40758
2.40717
2.40665
2.40605
2.40539
2.40467
2.40393
2.40317
2.40241
2.40167
2.40097
2.40031
2.39969
2.39915
2.39868
2.39829
2.39799
2.39774
2.3974
2.03888
2.23658
2.30246
2.33521
2.35501
2.36832
2.37787
2.38503
2.39056
2.39496
2.39848
2.40133
2.40365
2.40552
2.40701
2.40818
2.40905
2.40968
2.41009
2.41029
2.41031
2.41018
2.40991
2.40953
2.40906
2.4085
2.4079
2.40725
2.40659
2.40591
2.40525
2.4046
2.404
2.40343
2.40294
2.40251
2.40214
2.40185
2.40163
2.40128
2.03746
2.23493
2.30089
2.33382
2.35384
2.36739
2.37719
2.38461
2.39041
2.39505
2.39883
2.40193
2.40449
2.40661
2.40833
2.40971
2.4108
2.41162
2.41221
2.41258
2.41277
2.4128
2.41267
2.41242
2.41207
2.41164
2.41113
2.41058
2.41
2.40941
2.40882
2.40823
2.40768
2.40718
2.40671
2.40631
2.40599
2.40571
2.40549
2.40516
2.03603
2.23326
2.29931
2.33242
2.35267
2.36647
2.37652
2.38419
2.39026
2.39517
2.39921
2.40257
2.40538
2.40772
2.40967
2.41127
2.41257
2.41359
2.41436
2.41491
2.41526
2.41543
2.41545
2.41534
2.4151
2.41478
2.41438
2.41393
2.41343
2.41291
2.41238
2.41187
2.41138
2.41091
2.4105
2.41012
2.40982
2.40957
2.40936
2.40902
2.03455
2.23156
2.29771
2.331
2.35148
2.36553
2.37584
2.38379
2.39013
2.3953
2.3996
2.40322
2.40627
2.40886
2.41104
2.41286
2.41436
2.41558
2.41654
2.41726
2.41778
2.41809
2.41825
2.41826
2.41816
2.41794
2.41764
2.41728
2.41687
2.41643
2.41596
2.41552
2.41507
2.41465
2.41427
2.41394
2.41366
2.41342
2.41322
2.41289
2.03303
2.22982
2.29607
2.32956
2.35029
2.36458
2.37517
2.38339
2.39
2.39545
2.40002
2.4039
2.40721
2.41004
2.41244
2.41449
2.41619
2.41761
2.41874
2.41964
2.42031
2.42079
2.42108
2.42122
2.42123
2.42112
2.42092
2.42065
2.42032
2.41995
2.41957
2.41916
2.41877
2.4184
2.41806
2.41775
2.4175
2.41729
2.4171
2.41677
2.03147
2.22803
2.2944
2.32811
2.34906
2.36364
2.37449
2.383
2.38988
2.39561
2.40045
2.4046
2.40816
2.41123
2.41387
2.41614
2.41806
2.41966
2.42099
2.42205
2.42289
2.42351
2.42394
2.42421
2.42433
2.42434
2.42423
2.42405
2.4238
2.4235
2.42318
2.42284
2.4225
2.42217
2.42186
2.42159
2.42136
2.42116
2.42099
2.42066
2.02986
2.22622
2.29269
2.32661
2.34782
2.36267
2.37381
2.3826
2.38977
2.39579
2.40091
2.40532
2.40914
2.41246
2.41534
2.41783
2.41996
2.42176
2.42327
2.42451
2.42549
2.42627
2.42683
2.42723
2.42747
2.42757
2.42757
2.42747
2.4273
2.42708
2.42681
2.42653
2.42623
2.42596
2.42568
2.42544
2.42523
2.42505
2.42489
2.42457
2.02818
2.22435
2.29095
2.32509
2.34657
2.36169
2.37313
2.38221
2.38969
2.39598
2.40138
2.40607
2.41015
2.41373
2.41684
2.41955
2.42189
2.4239
2.42559
2.427
2.42815
2.42906
2.42977
2.43028
2.43063
2.43084
2.43094
2.43092
2.43083
2.43068
2.43047
2.43025
2.43
2.42976
2.42953
2.42932
2.42913
2.42897
2.42882
2.4285
2.02646
2.22243
2.28918
2.32355
2.34529
2.3607
2.37244
2.38182
2.3896
2.39619
2.40188
2.40684
2.4112
2.41503
2.41839
2.42132
2.42387
2.42608
2.42795
2.42953
2.43084
2.4319
2.43274
2.43337
2.43384
2.43415
2.43433
2.43441
2.4344
2.43431
2.43417
2.434
2.4338
2.4336
2.4334
2.43321
2.43305
2.4329
2.43276
2.43246
2.02466
2.22046
2.28735
2.32197
2.344
2.3597
2.37174
2.38144
2.38951
2.39642
2.4024
2.40765
2.41227
2.41635
2.41996
2.42313
2.42589
2.42829
2.43035
2.4321
2.43357
2.43477
2.43574
2.43651
2.43709
2.4375
2.43778
2.43793
2.43799
2.43797
2.43789
2.43777
2.43763
2.43746
2.4373
2.43714
2.437
2.43687
2.43674
2.43644
2.0228
2.21844
2.28549
2.32036
2.34267
2.35868
2.37104
2.38106
2.38945
2.39666
2.40294
2.40848
2.41338
2.41772
2.42158
2.42498
2.42795
2.43056
2.4328
2.43472
2.43634
2.4377
2.4388
2.43969
2.44037
2.44088
2.44126
2.44149
2.44163
2.44167
2.44166
2.44159
2.44148
2.44136
2.44123
2.4411
2.44098
2.44087
2.44074
2.44045
2.02088
2.21636
2.28357
2.31871
2.34132
2.35765
2.37033
2.38067
2.38939
2.39692
2.40352
2.40934
2.41453
2.41913
2.42323
2.42686
2.43006
2.43287
2.4353
2.43739
2.43918
2.44067
2.44191
2.44291
2.4437
2.44432
2.44478
2.4451
2.4453
2.44542
2.44546
2.44544
2.44538
2.4453
2.4452
2.4451
2.445
2.4449
2.44479
2.44449
2.0189
2.21422
2.28162
2.31702
2.33994
2.35659
2.36962
2.3803
2.38935
2.3972
2.4041
2.41024
2.41571
2.42058
2.42493
2.42881
2.43223
2.43523
2.43784
2.44011
2.44205
2.44369
2.44506
2.44618
2.44708
2.4478
2.44834
2.44874
2.44903
2.44921
2.4493
2.44934
2.44932
2.44928
2.44921
2.44914
2.44906
2.44898
2.44887
2.44858
2.01682
2.21202
2.2796
2.31528
2.33853
2.35553
2.36889
2.37991
2.38931
2.39749
2.40473
2.41116
2.41692
2.42208
2.42669
2.43079
2.43443