/*--------------------------------*- C++ -*----------------------------------*\
| =========                 |                                                 |
| \\      /  F ield         | OpenFOAM: The Open Source CFD Toolbox           |
|  \\    /   O peration     | Version:  2.3.0                                 |
|   \\  /    A nd           | Web:      www.OpenFOAM.org                      |
|    \\/     M anipulation  |                                                 |
\*---------------------------------------------------------------------------*/
FoamFile
{
    version     2.0;
    format      ascii;
    class       volScalarField;
    location    "10000";
    object      nut;
}
// * * * * * * * * * * * * * * * * * * * * * * * * * * * * * * * * * * * * * //

dimensions      [0 2 -1 0 0 0 0];

internalField   nonuniform List<scalar> 
26600
(
2.94568e-05
3.98164e-05
4.87737e-05
5.81694e-05
7.20277e-05
9.12661e-05
0.000113459
0.000134922
0.000155409
0.000174077
0.00019107
0.00020628
0.000219919
0.000232157
0.000243203
0.00025325
0.000262454
0.000270984
0.000278927
0.000286441
0.000293568
0.000300471
0.000307201
0.000313861
0.000320646
0.000327526
0.00033484
0.000342466
0.000350818
0.00035965
0.000369365
0.000379692
0.000390771
0.000402467
0.000414802
0.000427083
0.00044028
0.000451858
0.000465745
0.000439703
0.000820076
0.000557117
0.000560215
0.0010656
0.00172831
0.00227564
0.00227064
0.0021971
0.00210997
0.00201216
0.00192659
0.00183975
0.00176285
0.00169052
0.00162438
0.00156335
0.0015101
0.00146227
0.00142267
0.00138946
0.00136492
0.00134755
0.00134669
0.00136082
0.00139228
0.00143962
0.00150356
0.00158334
0.00167652
0.001784
0.0018976
0.00202221
0.0021427
0.00227375
0.00238533
0.00251592
0.00259725
0.00273591
0.00274709
0.00231893
0.00165832
0.00170877
0.00232149
0.00422724
0.00504007
0.00557045
0.00565541
0.0054959
0.00524828
0.00492231
0.00463494
0.00430983
0.00402221
0.00373156
0.00347371
0.0032382
0.0030318
0.00284704
0.0026959
0.00257081
0.00248265
0.00243065
0.00241322
0.00242701
0.00247973
0.00256174
0.00267144
0.00280126
0.00294728
0.00310633
0.00326683
0.00343581
0.00359545
0.00376329
0.00391546
0.00407679
0.0042112
0.00437103
0.00448325
0.00433635
0.00151071
0.00186376
0.00338198
0.00545842
0.00634694
0.00689759
0.00711748
0.00703699
0.00680848
0.00638451
0.00597586
0.00544621
0.00498752
0.00449241
0.00404515
0.0036291
0.00327201
0.00297194
0.00275663
0.00260802
0.00254856
0.00255395
0.00262276
0.00273514
0.00289162
0.0030635
0.00325374
0.00345069
0.00365786
0.00386555
0.00406553
0.00426993
0.00446839
0.00468201
0.0048626
0.00505146
0.00521528
0.00538546
0.00553083
0.00558878
0.00190158
0.002338
0.00476577
0.00626662
0.00710968
0.00755447
0.00768198
0.00749963
0.00716431
0.00656691
0.0060223
0.00525628
0.00464494
0.00395606
0.00340606
0.00294335
0.00261874
0.00241961
0.00235342
0.0023794
0.00249753
0.00265845
0.00285559
0.00307214
0.0033031
0.00355003
0.00378896
0.00401848
0.00425634
0.00447849
0.00469074
0.00490036
0.00509895
0.005296
0.00548467
0.00566789
0.00585014
0.00600555
0.00621568
0.0062557
0.00109487
0.00316554
0.00603035
0.00707541
0.00772042
0.00795596
0.00785929
0.00744065
0.00687042
0.00600793
0.00526359
0.00426204
0.00355997
0.00283532
0.00239677
0.00213557
0.00206134
0.00211354
0.00227055
0.00247313
0.00272207
0.00298125
0.00322526
0.00347452
0.00371935
0.00393353
0.00415341
0.00438173
0.00461118
0.00483798
0.00505851
0.00527939
0.00549693
0.00570879
0.00591507
0.00611323
0.00631816
0.00648989
0.00671967
0.00678224
0.00142519
0.00501058
0.00691659
0.00778257
0.00818982
0.00815081
0.00774699
0.00700836
0.00608776
0.00495253
0.00398929
0.00292897
0.00231184
0.00187294
0.00175689
0.00183232
0.00200025
0.0022555
0.00250995
0.00275487
0.00298909
0.00322444
0.00344762
0.00368682
0.00393212
0.00417799
0.00441369
0.00464531
0.00487544
0.00510419
0.00532891
0.00555266
0.00577645
0.00599572
0.0062111
0.00642037
0.00663079
0.00682716
0.00706365
0.00714346
0.00249544
0.00649991
0.0076603
0.00831911
0.00845759
0.00808693
0.00731273
0.00614087
0.00483779
0.00356823
0.00252348
0.00178537
0.00149615
0.00153759
0.00169914
0.00197653
0.00218115
0.00242926
0.00265694
0.00286851
0.00311633
0.00336114
0.00359999
0.00384052
0.0040813
0.0043241
0.00456533
0.00480472
0.00504255
0.00527926
0.00551396
0.00574709
0.00597948
0.00620965
0.00643713
0.00666025
0.00688227
0.00709623
0.00733485
0.00743266
0.00437686
0.00727928
0.00820384
0.00863825
0.00846261
0.00767775
0.00640757
0.00483198
0.00329872
0.00215879
0.00145901
0.00124152
0.00138752
0.00163255
0.00182892
0.00207848
0.002235
0.00246834
0.00271419
0.00295062
0.00319436
0.00344501
0.00369542
0.00394662
0.00419925
0.00445232
0.00470385
0.00495617
0.00520723
0.00545718
0.00570575
0.00595284
0.00619868
0.00644263
0.00668424
0.00692219
0.00715765
0.00738613
0.00761962
0.00774138
0.00591447
0.00775371
0.00853439
0.00870676
0.00812169
0.00677498
0.00508919
0.00318155
0.00188932
0.00122773
0.00104841
0.00128142
0.00148337
0.00167384
0.00180245
0.00202942
0.0022639
0.00251448
0.00278034
0.00304801
0.00331884
0.00359373
0.0038645
0.0041352
0.00440665
0.00467658
0.00494469
0.00521183
0.00547777
0.0057424
0.00600559
0.00626716
0.00652704
0.00678469
0.00703964
0.0072906
0.00753719
0.00777452
0.00800151
0.00815007
0.00707357
0.00805932
0.00866122
0.00845793
0.00731166
0.00542745
0.00330189
0.0017256
0.00102913
0.000948946
0.00110398
0.001316
0.00137462
0.00155654
0.00180853
0.00209733
0.00240225
0.00271713
0.00303218
0.00333795
0.00364408
0.00394645
0.00424224
0.00453302
0.00482051
0.00510485
0.0053863
0.00566552
0.00594288
0.00621852
0.00649244
0.00676448
0.00703437
0.00730151
0.00756521
0.00782402
0.00807641
0.00831706
0.00853963
0.0087053
0.00786967
0.00824497
0.00854311
0.00779159
0.00603438
0.00354882
0.00174101
0.000893806
0.000799871
0.00101273
0.00103064
0.00109305
0.00125062
0.0015569
0.00195818
0.00237004
0.00278211
0.00317878
0.003563
0.00392352
0.00426672
0.00458924
0.00489918
0.00520044
0.00549563
0.00578618
0.00607304
0.00635699
0.00663862
0.00691823
0.00719587
0.00747136
0.00774427
0.00801388
0.00827921
0.00853859
0.00878985
0.0090279
0.00924572
0.00941888
0.00826406
0.0083075
0.00807704
0.00666892
0.00406789
0.00179966
0.000790428
0.000651755
0.00083082
0.000786334
0.000784408
0.00107033
0.00155391
0.00207642
0.00261897
0.00312563
0.00359564
0.00403038
0.00443839
0.00481971
0.00516996
0.00549743
0.00580936
0.00611079
0.00640491
0.0066937
0.00697842
0.00725995
0.00753887
0.00781551
0.00808986
0.00836165
0.00863035
0.00889508
0.00915465
0.00940728
0.00965059
0.00988041
0.0100911
0.0102659
0.00851918
0.00813479
0.00722893
0.00471358
0.00200719
0.000744004
0.000495052
0.00066407
0.000559635
0.000581722
0.00100153
0.00165599
0.00238572
0.0030541
0.00365858
0.00420006
0.00468765
0.00512952
0.00553104
0.00590402
0.0062499
0.00657392
0.00688206
0.00717904
0.0074681
0.00775131
0.00803001
0.00830505
0.00857697
0.00884601
0.00911212
0.00937492
0.0096338
0.00988777
0.0101355
0.0103754
0.010605
0.0108212
0.0110203
0.0111886
0.00866835
0.00765094
0.00545948
0.00232845
0.000742654
0.000351686
0.000510844
0.000395386
0.000410615
0.000898743
0.00171342
0.00262889
0.00344827
0.00416839
0.00480124
0.00535478
0.00584204
0.00628085
0.00668047
0.00704937
0.0073921
0.00771361
0.00801895
0.00831236
0.00859687
0.00887453
0.00914669
0.00941418
0.00967747
0.00993674
0.0101919
0.0104425
0.0106879
0.010927
0.0111587
0.0113813
0.0115928
0.0117908
0.0119727
0.0121259
0.0086035
0.00626251
0.00274683
0.000695022
0.000259754
0.000350421
0.000282284
0.000271056
0.000676591
0.0015172
0.00254939
0.00352993
0.00440858
0.00518089
0.00584945
0.00642769
0.00693317
0.00738406
0.00779217
0.00816724
0.00851426
0.00883875
0.00914562
0.00943887
0.00972148
0.0099955
0.0102623
0.0105227
0.0107773
0.0110261
0.011269
0.0115056
0.0117353
0.0119571
0.0121697
0.0123719
0.012562
0.0127381
0.0128983
0.0130308
0.00772558
0.00326977
0.000595612
0.000183705
0.00023123
0.000246054
0.000260469
0.000614673
0.0011296
0.00212407
0.00317639
0.00421988
0.00517484
0.00601399
0.00673923
0.00736722
0.00791342
0.00839182
0.0088203
0.00921052
0.00956963
0.00990313
0.0102162
0.010513
0.0107966
0.0110692
0.0113321
0.0115864
0.0118325
0.0120706
0.0123007
0.0125224
0.012735
0.0129377
0.0131295
0.0133091
0.0134753
0.0136268
0.0137623
0.0138724
0.00637239
0.000456648
0.000103635
0.000132471
0.000151781
0.000220165
0.000387048
0.000775879
0.0014327
0.00248574
0.00360097
0.00470873
0.00575887
0.00668503
0.00748431
0.00817241
0.00876809
0.00928878
0.00974758
0.0101602
0.010537
0.0108842
0.0112072
0.0115105
0.0117972
0.0120699
0.0123301
0.0125789
0.012817
0.0130445
0.0132614
0.0134675
0.0136622
0.0138447
0.0140143
0.0141699
0.0143104
0.0144352
0.0145435
0.0146296
6.32621e-05
3.45106e-05
6.94035e-05
8.33958e-05
0.000176294
0.000370975
0.000736861
0.000914299
0.00160136
0.00268578
0.00388053
0.00507419
0.0062092
0.00722561
0.00810475
0.0088598
0.00951024
0.0100754
0.0105721
0.0110128
0.0114105
0.0117743
0.0121095
0.012421
0.0127122
0.012986
0.0132441
0.0134878
0.0137179
0.0139347
0.0141382
0.0143283
0.0145046
0.0146665
0.0148132
0.0149439
0.0150579
0.0151544
0.0152329
0.0152902
1.38395e-05
4.05946e-05
4.35485e-05
0.000140968
0.000364551
0.000684624
0.000791368
0.000961287
0.0016621
0.00281803
0.00407617
0.00534933
0.00657176
0.00767067
0.00862653
0.00944823
0.0101545
0.0107655
0.0112998
0.0117719
0.0121931
0.0125743
0.0129227
0.0132431
0.0135394
0.0138146
0.0140709
0.0143095
0.0145315
0.0147374
0.0149275
0.0151015
0.0152593
0.0154003
0.0155241
0.0156299
0.0157172
0.0157853
0.0158337
0.0158619
1.91313e-05
3.04568e-05
0.000123033
0.000366889
0.000681841
0.000817971
0.000785957
0.000918229
0.00176023
0.00295017
0.00423654
0.0055887
0.00688126
0.00805044
0.00907413
0.00995699
0.0107162
0.0113719
0.0119427
0.0124446
0.0128905
0.0132896
0.013651
0.0139803
0.0142816
0.0145582
0.0148124
0.0150458
0.0152597
0.0154547
0.0156312
0.0157892
0.0159287
0.0160493
0.0161507
0.0162323
0.0162938
0.0163345
0.0163541
0.0163549
0.000111297
0.000179957
0.000528567
0.000786951
0.000864292
0.000805353
0.000726471
0.000954615
0.00189259
0.00309309
0.00441456
0.00582124
0.00716372
0.00838858
0.00946826
0.0104038
0.0112101
0.0119065
0.0125117
0.0130418
0.01351
0.0139271
0.0143008
0.0146385
0.0149443
0.0152218
0.0154737
0.0157018
0.0159074
0.0160915
0.0162546
0.016397
0.0165187
0.0166196
0.0166996
0.0167584
0.0167956
0.0168111
0.0168046
0.0167816
0.000667757
0.000975199
0.00102407
0.000977504
0.000887868
0.000755469
0.000685579
0.00107913
0.00204419
0.00325689
0.00461983
0.00605425
0.00743622
0.00870232
0.00982505
0.0108031
0.0116491
0.0123809
0.0130166
0.0135722
0.0140611
0.0144941
0.0148795
0.0152245
0.0155341
0.0158121
0.0160613
0.0162838
0.0164812
0.0166546
0.0168047
0.016932
0.0170367
0.0171191
0.0171791
0.0172168
0.017232
0.0172247
0.017195
0.0171511
0.000968985
0.00132213
0.00128089
0.000994306
0.000830435
0.000652586
0.000712963
0.00125557
0.00224739
0.00344202
0.00484879
0.00630507
0.00771073
0.00900356
0.0101563
0.0111662
0.0120437
0.0128049
0.0134666
0.0140444
0.0145513
0.0149984
0.0153943
0.0157453
0.016058
0.0163359
0.016582
0.0167989
0.0169881
0.017151
0.0172887
0.0174017
0.0174906
0.0175558
0.0175975
0.017616
0.0176117
0.0175847
0.0175355
0.0174735
0.00122929
0.00128215
0.00119692
0.000734414
0.000702005
0.000682697
0.000858867
0.00147529
0.00244015
0.00366301
0.00510205
0.00657534
0.0079933
0.00929962
0.0104701
0.0115015
0.0124023
0.0131864
0.0138694
0.0144656
0.0149879
0.0154469
0.0158514
0.0162082
0.0165228
0.0167999
0.0170428
0.0172538
0.0174351
0.017588
0.0177139
0.0178136
0.0178879
0.0179374
0.0179627
0.0179643
0.017943
0.0178989
0.0178333
0.0177562
0.000757394
0.000782751
0.000842691
0.000770371
0.000820053
0.000816357
0.00104549
0.00163941
0.00263963
0.00394975
0.00539824
0.00687078
0.00828567
0.00959376
0.0107712
0.0118146
0.0127309
0.0135318
0.0142312
0.0148423
0.0153771
0.015846
0.0162574
0.0166185
0.0169347
0.0172105
0.0174497
0.0176551
0.0178287
0.0179722
0.0180871
0.0181745
0.0182355
0.018271
0.0182817
0.0182684
0.0182323
0.0181746
0.018096
0.0180053
0.000419593
0.000770553
0.00106207
0.00111356
0.000963032
0.000981902
0.00115079
0.00183277
0.00294116
0.00428483
0.00573276
0.00719093
0.00858974
0.00988661
0.0110617
0.0121089
0.0130337
0.0138459
0.0145572
0.0151797
0.0157243
0.0162009
0.0166179
0.016982
0.017299
0.0175734
0.0178089
0.0180085
0.0181748
0.0183096
0.0184144
0.0184907
0.0185398
0.0185628
0.0185602
0.0185348
0.0184867
0.0184173
0.0183282
0.0182267
0.000239736
0.00118262
0.0013247
0.00125465
0.00106377
0.00105618
0.0012986
0.00211969
0.0033122
0.00466643
0.00609613
0.00752711
0.0089001
0.0101778
0.0113416
0.0123861
0.0133137
0.0141321
0.0148514
0.015482
0.016034
0.0165165
0.0169375
0.0173037
0.0176208
0.0178933
0.0181252
0.0183195
0.0184789
0.0186054
0.0187012
0.0187675
0.0188059
0.0188173
0.0188049
0.0187688
0.0187106
0.018632
0.0185345
0.018425
0.00036025
0.0012235
0.0013499
0.00123321
0.0010306
0.00109576
0.00153165
0.00251881
0.00374131
0.00508068
0.00647567
0.00787012
0.00921017
0.0104628
0.0116103
0.0126466
0.0135722
0.0143929
0.0151168
0.0157528
0.0163099
0.0167966
0.0172204
0.0175879
0.0179045
0.0181749
0.0184031
0.0185924
0.0187454
0.0188646
0.0189521
0.0190094
0.0190377
0.0190408
0.0190192
0.0189744
0.0189082
0.0188224
0.018719
0.0186035
0.000143858
0.000995158
0.00112221
0.00105614
0.000976325
0.00119888
0.00191398
0.00299073
0.00419899
0.0055038
0.00685877
0.00820949
0.00951298
0.0107372
0.0118652
0.0128897
0.0138101
0.01463
0.0153557
0.0159947
0.0165552
0.0170446
0.0174702
0.0178381
0.0181538
0.0184219
0.0186466
0.0188311
0.0189783
0.0190909
0.019171
0.0192197
0.0192408
0.0192361
0.0192068
0.019155
0.0190825
0.0189914
0.0188843
0.0187649
0.000200422
0.000597418
0.000796207
0.000799665
0.000910634
0.0013976
0.00240124
0.00346976
0.00464762
0.0059146
0.0072268
0.00853562
0.00980164
0.0109966
0.0121036
0.0131146
0.0140275
0.0148442
0.0155697
0.01621
0.0167722
0.0172632
0.0176896
0.0180574
0.0183719
0.0186378
0.018859
0.0190391
0.0191811
0.0192878
0.0193609
0.0194027
0.0194177
0.0194063
0.0193707
0.0193131
0.0192357
0.019141
0.0190315
0.0189102
0.000628563
0.000423049
0.000506831
0.000625206
0.00094908
0.00180438
0.00282742
0.0039014
0.00506049
0.00629489
0.00756862
0.00883866
0.01007
0.0112369
0.0123231
0.0133199
0.0142241
0.0150363
0.01576
0.0164002
0.016963
0.0174546
0.0178812
0.0182485
0.0185616
0.0188251
0.0190432
0.0192193
0.0193567
0.0194581
0.0195248
0.0195615
0.0195708
0.0195539
0.0195132
0.019451
0.0193699
0.0192722
0.0191609
0.0190386
0.000866181
0.000634289
0.000530693
0.000691392
0.00118623
0.0021688
0.00318629
0.00426866
0.00542136
0.00663343
0.00787562
0.0091123
0.0103131
0.0114547
0.0125215
0.0135045
0.0143997
0.0152066
0.0159276
0.0165668
0.0171293
0.0176208
0.0180471
0.0184135
0.0187251
0.0189865
0.0192016
0.0193741
0.0195074
0.0196041
0.0196654
0.019698
0.0197024
0.019681
0.0196361
0.0195704
0.0194864
0.0193867
0.0192739
0.0191507
0.000933118
0.000852012
0.00082064
0.000912083
0.00142186
0.00244834
0.00347361
0.0045719
0.00572603
0.00692457
0.00814295
0.00935258
0.0105275
0.0116476
0.012697
0.0136673
0.0145538
0.0153552
0.0160731
0.0167106
0.0172723
0.0177633
0.018189
0.0185544
0.0188645
0.0191237
0.0193362
0.0195056
0.0196354
0.0197276
0.019785
0.0198138
0.0198143
0.0197892
0.019741
0.0196726
0.0195865
0.0194855
0.0193723
0.0192494
0.000909835
0.000926683
0.000999176
0.00108855
0.00158464
0.00265402
0.00369766
0.00481566
0.00597607
0.00716701
0.00836876
0.00955744
0.0107115
0.0118137
0.0128486
0.0138076
0.0146861
0.0154823
0.0161969
0.0168326
0.0173932
0.0178834
0.0183082
0.0186725
0.0189811
0.0192385
0.0194487
0.0196154
0.0197422
0.0198305
0.0198851
0.0199106
0.0199079
0.0198799
0.0198292
0.0197587
0.0196713
0.0195696
0.0194565
0.0193347
0.000881079
0.000947381
0.00104887
0.00116631
0.00169363
0.00280278
0.00386882
0.00500652
0.00617507
0.0073626
0.00855289
0.00972634
0.0108643
0.0119518
0.0129753
0.0139248
0.0147965
0.015588
0.0162995
0.0169333
0.0174926
0.0179819
0.0184059
0.0187692
0.0190765
0.0193322
0.0195405
0.019705
0.0198292
0.0199145
0.0199668
0.0199896
0.0199844
0.0199541
0.0199015
0.0198296
0.0197413
0.0196393
0.0195267
0.0194062
0.000866188
0.000944777
0.00104831
0.0011898
0.00176558
0.00290396
0.0039959
0.00515087
0.00632741
0.00751399
0.00869685
0.0098595
0.0109856
0.0120619
0.0130765
0.0140186
0.0148846
0.0156722
0.0163812
0.0170132
0.0175714
0.0180598
0.0184829
0.0188453
0.0191515
0.0194059
0.0196126
0.0197753
0.0198976
0.0199804
0.020031
0.0200517
0.0200446
0.0200126
0.0199587
0.0198858
0.0197969
0.019695
0.019583
0.0194638
0.00085934
0.000935364
0.00103471
0.00118975
0.00180976
0.00297188
0.00408558
0.00525392
0.00643721
0.00762401
0.00880232
0.00995774
0.0110757
0.012144
0.013152
0.0140888
0.0149506
0.0157351
0.016442
0.0170726
0.0176298
0.0181175
0.01854
0.0189016
0.019207
0.0194604
0.0196659
0.0198272
0.019948
0.0200292
0.0200785
0.0200978
0.0200893
0.0200562
0.0200013
0.0199278
0.0198387
0.019737
0.0196256
0.0195075
0.000855957
0.000926685
0.00102125
0.00118295
0.00183527
0.00301365
0.00414233
0.00531969
0.0065074
0.00769481
0.00887064
0.0100217
0.0111347
0.0121979
0.0132015
0.014135
0.014994
0.0157765
0.0164819
0.0171116
0.0176682
0.0181553
0.0185773
0.0189385
0.0192433
0.019496
0.0197007
0.0198612
0.019981
0.0200611
0.0201095
0.0201279
0.0201186
0.0200847
0.0200293
0.0199555
0.0198663
0.0197648
0.0196539
0.0195367
0.000854995
0.000924571
0.0010182
0.00118429
0.00185319
0.00303398
0.00416986
0.00535077
0.00654017
0.00772762
0.00890224
0.0100514
0.0111621
0.012223
0.0132246
0.0141566
0.0150143
0.0157959
0.0165007
0.0171299
0.0176862
0.0181732
0.0185949
0.0189559
0.0192605
0.019513
0.0197174
0.0198775
0.019997
0.0200767
0.0201248
0.0201429
0.0201333
0.0200992
0.0200437
0.0199698
0.0198807
0.0197795
0.0196691
0.0195525
0.000102175
0.00057294
0.00126291
0.00195611
0.00260692
0.0032119
0.00377474
0.00430008
0.00479231
0.00525524
0.00569209
0.00610554
0.00649779
0.00687065
0.00722558
0.00756379
0.00788622
0.00819366
0.0084867
0.00876582
0.00903137
0.00928362
0.00952276
0.00974891
0.00996214
0.0101625
0.0103499
0.0105244
0.010686
0.0108345
0.0109699
0.0110921
0.0112011
0.0112967
0.0113789
0.0114476
0.0115029
0.0115446
0.0115728
0.0115871
0.000101665
0.000561532
0.00124025
0.00193136
0.00258424
0.00319199
0.00375745
0.00428511
0.00477939
0.00524416
0.00568267
0.00609765
0.00649132
0.00686551
0.00722172
0.00756114
0.00788475
0.00819331
0.00848745
0.00876762
0.0090342
0.00928743
0.00952752
0.00975458
0.00996869
0.0101699
0.0103581
0.0105334
0.0106956
0.0108448
0.0109808
0.0111035
0.0112129
0.011309
0.0113915
0.0114606
0.0115161
0.0115581
0.0115864
0.0116007
0.000101535
0.00056001
0.00123382
0.00192104
0.002572
0.00317949
0.00374564
0.00427447
0.00477014
0.00523637
0.00567639
0.00609287
0.00648804
0.00686372
0.0072214
0.00756228
0.00788734
0.00819734
0.00849289
0.00877446
0.0090424
0.00929699
0.00953839
0.00976673
0.00998206
0.0101844
0.0103738
0.0105501
0.0107134
0.0108635
0.0110004
0.0111239
0.0112341
0.0113308
0.0114139
0.0114834
0.0115393
0.0115815
0.01161
0.0116243
0.000101437
0.000557087
0.00122669
0.00191194
0.00256255
0.0031705
0.00373757
0.0042676
0.00476463
0.00523233
0.00567386
0.00609189
0.00648862
0.00686587
0.00722513
0.00756759
0.00789423
0.00820581
0.00850293
0.00878607
0.00905556
0.00931167
0.00955458
0.00978438
0.0100011
0.0102049
0.0103956
0.0105732
0.0107376
0.0108888
0.0110267
0.0111513
0.0112623
0.0113597
0.0114435
0.0115136
0.0115699
0.0116124
0.011641
0.0116554
0.000101408
0.000556584
0.00122347
0.00190677
0.00255669
0.00316489
0.00373275
0.00426391
0.00476227
0.00523142
0.00567448
0.00609409
0.00649244
0.00687133
0.00723225
0.00757639
0.00790471
0.00821797
0.00851678
0.00880159
0.00907276
0.00933051
0.00957504
0.00980643
0.0100247
0.01023
0.0104221
0.0106011
0.0107668
0.0109193
0.0110583
0.0111839
0.0112958
0.0113941
0.0114786
0.0115493
0.0116061
0.0116489
0.0116778
0.0116923
0.0001014
0.000556376
0.00122146
0.00190371
0.00255344
0.00316204
0.00373072
0.00426297
0.00476262
0.00523319
0.00567778
0.00609897
0.00649896
0.00687954
0.00724216
0.00758802
0.00791809
0.0082331
0.00853367
0.00882024
0.00909315
0.00935263
0.00959886
0.00983193
0.0100519
0.0102587
0.0104523
0.0106328
0.0107999
0.0109536
0.0110939
0.0112205
0.0113335
0.0114326
0.0115179
0.0115892
0.0116465
0.0116898
0.0117189
0.0117335
0.000101451
0.000556779
0.00122106
0.00190267
0.0025524
0.00316152
0.00373106
0.00426441
0.00476533
0.00523731
0.00568339
0.00610616
0.00650779
0.00689005
0.00725439
0.00760201
0.00793385
0.00825066
0.00855303
0.00884141
0.00911611
0.00937738
0.00962537
0.00986016
0.0100818
0.0102902
0.0104855
0.0106674
0.010836
0.0109911
0.0111326
0.0112604
0.0113744
0.0114744
0.0115605
0.0116325
0.0116904
0.011734
0.0117634
0.0117781
0.000101504
0.000557772
0.00122164
0.0019031
0.00255314
0.00316293
0.0037334
0.00426788
0.00477008
0.00524345
0.00569102
0.00611537
0.00651862
0.00690256
0.00726864
0.00761802
0.00795165
0.00827028
0.00857448
0.00886469
0.00914122
0.00940431
0.00965409
0.00989065
0.010114
0.0103241
0.010521
0.0107045
0.0108745
0.011031
0.0111738
0.0113027
0.0114178
0.0115188
0.0116057
0.0116784
0.0117368
0.0117809
0.0118106
0.0118255
0.000101606
0.000558898
0.00122312
0.0019048
0.00255537
0.00316596
0.00373744
0.00427309
0.00477659
0.00525137
0.00570043
0.00612633
0.00653121
0.00691684
0.00728464
0.00763579
0.00797123
0.00829168
0.00859772
0.00888978
0.00916817
0.0094331
0.00968471
0.00992306
0.0101482
0.01036
0.0105585
0.0107436
0.0109151
0.011073
0.0112171
0.0113473
0.0114634
0.0115654
0.0116532
0.0117266
0.0117856
0.0118301
0.01186
0.0118751
0.0001017
0.000560541
0.00122529
0.00190751
0.00255882
0.00317035
0.00374293
0.0042798
0.00478462
0.00526082
0.00571137
0.00613884
0.00654535
0.00693266
0.0073022
0.00765512
0.00799237
0.00831466
0.00862255
0.00891648
0.00919673
0.00946352
0.00971697
0.00995713
0.010184
0.0103976
0.0105977
0.0107844
0.0109575
0.0111168
0.0112622
0.0113936
0.0115109
0.0116139
0.0117025
0.0117766
0.0118362
0.0118811
0.0119114
0.0119266
0.000101836
0.000562195
0.00122806
0.00191109
0.00256331
0.0031759
0.00374965
0.00428779
0.00479398
0.0052716
0.00572367
0.00615272
0.00656086
0.00694985
0.00732113
0.00767584
0.0080149
0.00833904
0.0086488
0.0089446
0.00922673
0.0094954
0.0097507
0.00999269
0.0102214
0.0104367
0.0106385
0.0108268
0.0110014
0.0111621
0.0113089
0.0114416
0.01156
0.011664
0.0117535
0.0118283
0.0118885
0.0119339
0.0119645
0.0119798
0.000101962
0.000564254
0.00123131
0.00191539
0.0025687
0.00318245
0.00375744
0.0042969
0.00480447
0.00528356
0.00573715
0.00616778
0.00657757
0.00696826
0.00734129
0.00769779
0.00803868
0.00836467
0.00867631
0.008974
0.00925803
0.00952858
0.00978576
0.0100296
0.0102601
0.0104771
0.0106807
0.0108706
0.0110467
0.011209
0.0113571
0.011491
0.0116106
0.0117156
0.011806
0.0118816
0.0119423
0.0119882
0.0120191
0.0120346
0.000102122
0.000566299
0.001235
0.00192032
0.00257485
0.00318985
0.00376614
0.00430697
0.00481596
0.00529653
0.00575166
0.00618389
0.00659534
0.00698775
0.00736253
0.00772083
0.00806356
0.00839142
0.00870495
0.00900455
0.00929049
0.00956295
0.00982201
0.0100677
0.0103
0.0105189
0.0107241
0.0109157
0.0110934
0.0112571
0.0114066
0.0115418
0.0116625
0.0117686
0.0118598
0.0119362
0.0119976
0.0120439
0.0120752
0.0120908
0.000102275
0.000568651
0.00123904
0.00192578
0.00258165
0.003198
0.00377565
0.00431787
0.00482832
0.00531039
0.00576708
0.00620093
0.00661405
0.00700818
0.00738474
0.00774486
0.00808944
0.00841919
0.00873463
0.00903615
0.00932402
0.0095984
0.00985937
0.010107
0.0103411
0.0105618
0.0107688
0.010962
0.0111413
0.0113065
0.0114574
0.0115939
0.0117157
0.0118228
0.011915
0.0119921
0.0120542
0.012101
0.0121325
0.0121483
0.000102453
0.000570998
0.0012434
0.00193172
0.00258904
0.00320679
0.00378586
0.00432952
0.00484144
0.00532504
0.00578331
0.00621879
0.0066336
0.00702947
0.00740781
0.00776977
0.00811623
0.00844788
0.00876524
0.00906871
0.00935852
0.00963484
0.00989775
0.0101472
0.0103833
0.0106057
0.0108145
0.0110094
0.0111903
0.011357
0.0115093
0.0116471
0.0117701
0.0118783
0.0119714
0.0120493
0.0121119
0.0121592
0.0121911
0.012207
0.000102628
0.000573575
0.00124804
0.00193806
0.00259692
0.00321615
0.00379669
0.00434182
0.00485524
0.00534038
0.00580025
0.00623738
0.00665389
0.00705151
0.00743166
0.00779547
0.00814382
0.00847739
0.00879671
0.00910213
0.00939392
0.0096722
0.00993705
0.0101885
0.0104264
0.0106507
0.0108612
0.0110578
0.0112404
0.0114086
0.0115623
0.0117014
0.0118257
0.0119349
0.0120289
0.0121076
0.0121709
0.0122187
0.0122509
0.0122669
0.000102822
0.000576157
0.00125293
0.00194477
0.00260525
0.00322602
0.00380805
0.00435469
0.00486963
0.00535634
0.00581781
0.00625661
0.00667484
0.00707424
0.00745621
0.00782189
0.00817214
0.00850766
0.00882894
0.00913635
0.00943013
0.0097104
0.00997722
0.0102306
0.0104704
0.0106965
0.0109089
0.0111072
0.0112914
0.0114612
0.0116164
0.0117568
0.0118823
0.0119925
0.0120875
0.012167
0.0122309
0.0122792
0.0123117
0.012328
0.000103013
0.000578919
0.00125803
0.0019518
0.00261398
0.00323634
0.0038199
0.00436807
0.00488456
0.00537284
0.00583595
0.00627642
0.00669638
0.00709757
0.00748138
0.00784895
0.00820114
0.00853862
0.00886189
0.00917131
0.0094671
0.00974938
0.0100182
0.0102735
0.0105153
0.0107433
0.0109575
0.0111576
0.0113434
0.0115148
0.0116714
0.0118132
0.0119399
0.0120512
0.0121472
0.0122275
0.012292
0.0123408
0.0123737
0.0123901
0.00010322
0.000581693
0.00126334
0.00195912
0.00262307
0.00324705
0.00383218
0.0043819
0.00489995
0.00538983
0.00585458
0.00629675
0.00671846
0.00712145
0.00750713
0.0078766
0.00823074
0.0085702
0.00889549
0.00920694
0.00950477
0.00978909
0.0100599
0.0103173
0.010561
0.0107909
0.0110069
0.0112088
0.0113963
0.0115693
0.0117274
0.0118705
0.0119984
0.0121109
0.0122078
0.0122889
0.0123542
0.0124035
0.0124367
0.0124532
0.000103428
0.000584606
0.00126883
0.00196671
0.00263246
0.00325812
0.00384485
0.00439613
0.00491577
0.00540726
0.00587366
0.00631754
0.00674102
0.00714583
0.00753338
0.00790478
0.00826089
0.00860237
0.0089297
0.00924321
0.0095431
0.00982949
0.0101024
0.0103617
0.0106074
0.0108393
0.0110572
0.0112608
0.0114501
0.0116246
0.0117843
0.0119288
0.012058
0.0121716
0.0122694
0.0123514
0.0124173
0.0124671
0.0125006
0.0125174
0.000103645
0.000587545
0.00127448
0.00197452
0.00264216
0.00326951
0.00385785
0.00441073
0.00493196
0.00542508
0.00589315
0.00633875
0.006764
0.00717066
0.00756011
0.00793346
0.00829156
0.00863508
0.00896447
0.00928006
0.00958205
0.00987052
0.0101455
0.0104069
0.0106546
0.0108884
0.0111082
0.0113137
0.0115047
0.0116809
0.011842
0.011988
0.0121184
0.0122331
0.012332
0.0124148
0.0124814
0.0125317
0.0125656
0.0125825
0.000103865
0.000590591
0.00128029
0.00198256
0.0026521
0.00328118
0.00387117
0.00442565
0.00494849
0.00544324
0.005913
0.00636033
0.00678739
0.0071959
0.00758726
0.00796258
0.00832271
0.00866828
0.00899976
0.00931746
0.00962157
0.00991217
0.0101892
0.0104527
0.0107025
0.0109383
0.01116
0.0113673
0.01156
0.0117379
0.0119006
0.012048
0.0121797
0.0122956
0.0123955
0.0124791
0.0125464
0.0125972
0.0126315
0.0126486
0.000104094
0.000593668
0.00128623
0.00199079
0.00266228
0.00329312
0.00388477
0.00444086
0.00496533
0.00546173
0.00593317
0.00638226
0.00681113
0.00722151
0.00761481
0.00799213
0.00835429
0.00870195
0.00903555
0.00935539
0.00966165
0.00995439
0.0102336
0.0104992
0.010751
0.0109888
0.0112125
0.0114217
0.0116162
0.0117958
0.0119601
0.0121089
0.0122419
0.012359
0.0124599
0.0125444
0.0126124
0.0126637
0.0126983
0.0127156
0.000104324
0.000596836
0.00129231
0.0019992
0.00267268
0.0033053
0.00389862
0.00445635
0.00498243
0.0054805
0.00595365
0.0064045
0.00683519
0.00724747
0.00764273
0.00802205
0.00838629
0.00873605
0.00907179
0.00939381
0.00970224
0.00999717
0.0102785
0.0105463
0.0108002
0.0110401
0.0112657
0.0114768
0.0116732
0.0118544
0.0120203
0.0121706
0.012305
0.0124232
0.0125251
0.0126105
0.0126792
0.0127311
0.0127661
0.0127835
0.000104562
0.000600036
0.0012985
0.00200778
0.00268327
0.00331769
0.0039127
0.00447207
0.00499979
0.00549952
0.00597439
0.00642702
0.00685955
0.00727374
0.00767097
0.00805234
0.00841866
0.00877057
0.00910848
0.00943269
0.00974334
0.0100405
0.0103241
0.010594
0.01085
0.011092
0.0113196
0.0115327
0.0117309
0.0119138
0.0120814
0.0122331
0.0123689
0.0124883
0.0125913
0.0126776
0.012747
0.0127994
0.0128348
0.0128524
0.000104804
0.000603311
0.00130481
0.00201652
0.00269403
0.00333028
0.00392698
0.004488
0.00501738
0.00551879
0.00599538
0.0064498
0.00688419
0.00730031
0.00769954
0.00808296
0.0084514
0.00880547
0.00914559
0.00947203
0.00978492
0.0100843
0.0103701
0.0106422
0.0109004
0.0111445
0.0113742
0.0115892
0.0117893
0.011974
0.0121432
0.0122965
0.0124336
0.0125543
0.0126583
0.0127455
0.0128157
0.0128687
0.0129044
0.0129222
0.00010505
0.000606626
0.00131122
0.00202539
0.00270497
0.00334304
0.00394145
0.00450413
0.00503516
0.00553825
0.00601659
0.00647281
0.00690907
0.00732714
0.00772838
0.00811389
0.00848448
0.00884074
0.0091831
0.0095118
0.00982697
0.0101286
0.0104167
0.0106911
0.0109515
0.0111977
0.0114295
0.0116465
0.0118484
0.012035
0.0122058
0.0123606
0.0124991
0.0126211
0.0127262
0.0128143
0.0128852
0.0129388
0.0129749
0.0129929
0.000105299
0.000610002
0.00131773
0.00203439
0.00271606
0.00335597
0.0039561
0.00452044
0.00505313
0.00555792
0.006038
0.00649603
0.00693419
0.00735422
0.00775751
0.00814512
0.00851788
0.00887637
0.00922099
0.00955198
0.00986946
0.0101734
0.0104638
0.0107404
0.0110031
0.0112515
0.0114854
0.0117044
0.0119083
0.0120967
0.0122692
0.0124256
0.0125655
0.0126887
0.012795
0.012884
0.0129557
0.0130098
0.0130463
0.0130644
0.000105555
0.000613419
0.00132434
0.00204353
0.00272728
0.00336905
0.0039709
0.0045369
0.00507126
0.00557775
0.00605959
0.00651945
0.00695952
0.00738153
0.00778688
0.00817663
0.00855159
0.00891233
0.00925925
0.00959257
0.0099124
0.0102187
0.0105114
0.0107904
0.0110553
0.0113059
0.011542
0.0117631
0.0119689
0.0121591
0.0123334
0.0124914
0.0126327
0.0127572
0.0128646
0.0129546
0.013027
0.0130817
0.0131186
0.013137