/*--------------------------------*- C++ -*----------------------------------*\
| =========                 |                                                 |
| \\      /  F ield         | OpenFOAM: The Open Source CFD Toolbox           |
|  \\    /   O peration     | Version:  2.3.0                                 |
|   \\  /    A nd           | Web:      www.OpenFOAM.org                      |
|    \\/     M anipulation  |                                                 |
\*---------------------------------------------------------------------------*/
FoamFile
{
    version     2.0;
    format      ascii;
    class       volScalarField;
    location    "10000";
    object      p;
}
// * * * * * * * * * * * * * * * * * * * * * * * * * * * * * * * * * * * * * //

dimensions      [0 2 -2 0 0 0 0];

internalField   nonuniform List<scalar> 
26600
(
8.15448
16.3004
19.04
20.2662
20.8078
20.4821
19.4198
17.8774
16.0453
14.0763
12.1082
10.2144
8.46461
6.87591
5.46679
4.22735
3.14404
2.20491
1.38743
0.677432
0.0574843
-0.490707
-0.972797
-1.39936
-1.76563
-2.11798
-2.43305
-2.74647
-3.02376
-3.30539
-3.56927
-3.82161
-4.05501
-4.2466
-4.42061
-4.54179
-4.63436
-4.57073
-4.32289
-3.75227
3.11937
10.8416
13.901
15.3213
16.1291
16.1552
15.4768
14.2655
12.743
11.031
9.27728
7.56679
5.97108
4.51397
3.21969
2.08011
1.0886
0.232998
-0.506906
-1.14307
-1.69016
-2.16326
-2.57313
-2.92783
-3.26026
-3.53944
-3.79791
-4.01895
-4.23734
-4.42984
-4.631
-4.81369
-5.00055
-5.14459
-5.3003
-5.3877
-5.52539
-5.51121
-5.66953
-4.62058
1.5714
8.42146
11.514
12.7968
13.339
13.2107
12.542
11.4568
10.0924
8.57652
7.01308
5.48942
4.06452
2.76736
1.62131
0.616036
-0.253256
-0.995888
-1.637
-2.18287
-2.65007
-3.05559
-3.40576
-3.70722
-3.97972
-4.21817
-4.43661
-4.63355
-4.82535
-5.00405
-5.18012
-5.33949
-5.49924
-5.63013
-5.77484
-5.85586
-5.99671
-5.95872
-6.09922
-4.88218
-0.532863
5.53789
8.36364
9.7039
10.411
10.4091
9.83225
8.84924
7.60282
6.22855
4.81263
3.44989
2.1768
1.02472
0.0132562
-0.872837
-1.63724
-2.2878
-2.85333
-3.33136
-3.7395
-4.09654
-4.40031
-4.6609
-4.89453
-5.09894
-5.28133
-5.44254
-5.59602
-5.73778
-5.87311
-5.99439
-6.12087
-6.22571
-6.34647
-6.41401
-6.55422
-6.51556
-6.70941
-5.46796
-2.40803
3.03666
5.55831
7.04199
7.88983
8.02484
7.57734
6.7121
5.57979
4.32842
3.03241
1.80673
0.653537
-0.383026
-1.29387
-2.09954
-2.7923
-3.37867
-3.89035
-4.31704
-4.67551
-4.99051
-5.25794
-5.48378
-5.68689
-5.86148
-6.00523
-6.1278
-6.2428
-6.34634
-6.44615
-6.53864
-6.6386
-6.72451
-6.824
-6.88698
-7.01324
-6.99748
-7.21103
-6.00365
-4.13843
0.507827
2.81128
4.48737
5.47239
5.75967
5.47448
4.75904
3.77197
2.6533
1.4742
0.355784
-0.718265
-1.69899
-2.55924
-3.32217
-3.96071
-4.48387
-4.94632
-5.32768
-5.6417
-5.90356
-6.11114
-6.27524
-6.41554
-6.53302
-6.63109
-6.7175
-6.79747
-6.86789
-6.9376
-7.00494
-7.07943
-7.1495
-7.2323
-7.29349
-7.40493
-7.41378
-7.62258
-6.53288
-5.87911
-2.09336
0.270281
2.06762
3.16705
3.60138
3.48331
2.92972
2.10706
1.10059
0.0131237
-1.07501
-2.1251
-3.0846
-3.8945
-4.58179
-5.1535
-5.59528
-5.97524
-6.26291
-6.48099
-6.65337
-6.78652
-6.89396
-6.98079
-7.05316
-7.11972
-7.18003
-7.23654
-7.28788
-7.33946
-7.39156
-7.44938
-7.50688
-7.57605
-7.63457
-7.73236
-7.76119
-7.95147
-7.0254
-7.89074
-4.53163
-2.03181
-0.187667
1.01079
1.58666
1.64305
1.25324
0.57303
-0.39979
-1.48272
-2.6054
-3.63771
-4.51649
-5.2373
-5.79909
-6.2422
-6.5457
-6.77906
-6.95209
-7.08753
-7.19657
-7.28305
-7.35615
-7.41589
-7.46331
-7.50413
-7.54245
-7.58083
-7.61833
-7.65761
-7.6996
-7.7473
-7.79727
-7.85748
-7.91395
-8.00111
-8.04673
-8.21476
-7.46095
-9.98361
-6.64988
-4.12731
-2.25336
-0.956742
-0.227592
0.0093555
-0.243733
-0.888702
-1.95674
-3.10779
-4.19087
-5.13282
-5.84969
-6.39241
-6.74418
-6.98817
-7.17597
-7.31847
-7.42818
-7.51895
-7.58923
-7.64392
-7.69044
-7.73076
-7.76457
-7.79357
-7.82088
-7.84908
-7.87845
-7.91056
-7.94639
-7.98815
-8.03403
-8.08898
-8.14452
-8.22384
-8.27914
-8.42606
-7.8366
-11.9791
-8.55907
-6.04331
-4.11293
-2.68964
-1.78791
-1.38133
-1.6139
-2.41124
-3.59805
-4.7415
-5.6578
-6.38616
-6.8086
-7.10656
-7.31996
-7.46183
-7.58682
-7.67922
-7.74739
-7.8069
-7.85621
-7.89509
-7.92858
-7.95869
-7.98523
-8.00917
-8.03235
-8.05651
-8.0826
-8.11186
-8.1452
-8.18432
-8.22854
-8.2809
-8.33634
-8.4102
-8.47042
-8.60222
-8.1555
-13.8731
-10.3416
-7.7833
-5.7345
-4.13878
-3.0388
-2.57382
-3.01285
-4.03142
-5.12116
-6.09824
-6.71944
-7.09734
-7.34413
-7.53267
-7.6814
-7.76646
-7.8396
-7.90063
-7.94879
-7.99262
-8.03119
-8.06322
-8.09195
-8.11866
-8.14337
-8.16682
-8.19017
-8.21469
-8.24133
-8.27117
-8.30506
-8.34434
-8.38895
-8.44083
-8.49691
-8.56726
-8.63057
-8.75407
-8.42242
-15.699
-11.9993
-9.32416
-7.07347
-5.23307
-3.98636
-3.76853
-4.45426
-5.52365
-6.32384
-6.8362
-7.18939
-7.45971
-7.6515
-7.77648
-7.8751
-7.93672
-7.98556
-8.0289
-8.0669
-8.10355
-8.1377
-8.16847
-8.19741
-8.22529
-8.25217
-8.2785
-8.3051
-8.33293
-8.36284
-8.39576
-8.43249
-8.47406
-8.52076
-8.57387
-8.63157
-8.70063
-8.76701
-8.88393
-8.63961
-17.4855
-13.5061
-10.6249
-8.03074
-5.92409
-4.89451
-5.01768
-5.89464
-6.47164
-6.89338
-7.1967
-7.43092
-7.61173
-7.75988
-7.86487
-7.94629
-8.00261
-8.04748
-8.0878
-8.12421
-8.15959
-8.19405
-8.22727
-8.25967
-8.29159
-8.32307
-8.3544
-8.38616
-8.41911
-8.45397
-8.49156
-8.53258
-8.57789
-8.62787
-8.68348
-8.74366
-8.81329
-8.88341
-8.99351
-8.81318
-19.2932
-14.8063
-11.5477
-8.47276
-6.46448
-6.01625
-6.39686
-6.66513
-6.9582
-7.15554
-7.35223
-7.52576
-7.65472
-7.76692
-7.85985
-7.93769
-7.99893
-8.04988
-8.09551
-8.13689
-8.17642
-8.21515
-8.25324
-8.29092
-8.32837
-8.36566
-8.40301
-8.44086
-8.4798
-8.52045
-8.56351
-8.6096
-8.65942
-8.71341
-8.77228
-8.83547
-8.90667
-8.98038
-9.08506
-8.95345
-21.1894
-15.7283
-11.8175
-8.57423
-7.3737
-7.26314
-7.21368
-7.11796
-7.16617
-7.29082
-7.41604
-7.53191
-7.63174
-7.7258
-7.814
-7.89368
-7.96159
-8.02038
-8.07342
-8.12207
-8.16815
-8.21294
-8.257
-8.30067
-8.34418
-8.38763
-8.43125
-8.47537
-8.5205
-8.56715
-8.6159
-8.6673
-8.72194
-8.78023
-8.84273
-8.90917
-8.98239
-9.05906
-9.1597
-9.06605
-23.1878
-15.9216
-11.3869
-9.19405
-8.48553
-8.11672
-7.61945
-7.36272
-7.3232
-7.35828
-7.41731
-7.50164
-7.5873
-7.67478
-7.76029
-7.84069
-7.91302
-7.97804
-8.03764
-8.09302
-8.14561
-8.19657
-8.24662
-8.2962
-8.3456
-8.39501
-8.44464
-8.49479
-8.54586
-8.5983
-8.65259
-8.70919
-8.7686
-8.83118
-8.89739
-8.96709
-9.04252
-9.12165
-9.2191
-9.15448
-25.0838
-15.2408
-11.6358
-10.251
-9.38847
-8.51203
-7.91511
-7.55135
-7.41246
-7.3775
-7.3897
-7.46318
-7.54511
-7.62926
-7.712
-7.79131
-7.86519
-7.9337
-7.99782
-8.05836
-8.11631
-8.17264
-8.22803
-8.28294
-8.33769
-8.39251
-8.44761
-8.50326
-8.55979
-8.61758
-8.67701
-8.73849
-8.80241
-8.86909
-8.93888
-9.01172
-9.08938
-9.1706
-9.2657
-9.22402
-25.9199
-14.8032
-12.5985
-11.1331
-9.79041
-8.89045
-8.1596
-7.69215
-7.42466
-7.3505
-7.35205
-7.42595
-7.5093
-7.59226
-7.6725
-7.74974
-7.82318
-7.89288
-7.95941
-8.02329
-8.08515
-8.14568
-8.20543
-8.26483
-8.32417
-8.38368
-8.44357
-8.50407
-8.56545
-8.62802
-8.69211
-8.75802
-8.82609
-8.89658
-8.96974
-9.04555
-9.12539
-9.20846
-9.302
-9.2791
-25.7201
-15.7347
-13.033
-11.4276
-10.1819
-9.17605
-8.34862
-7.75453
-7.39234
-7.28594
-7.30929
-7.39105
-7.47908
-7.56281
-7.6415
-7.71652
-7.7885
-7.85786
-7.92514
-7.99074
-8.05508
-8.11859
-8.18165
-8.24461
-8.30771
-8.37114
-8.43509
-8.49974
-8.56534
-8.6321
-8.7003
-8.77019
-8.84201
-8.91597
-8.99227
-9.07085
-9.15281
-9.23761
-9.33029
-9.32335
-28.2114
-16.3068
-13.3627
-11.7852
-10.4876
-9.36616
-8.42822
-7.73722
-7.33674
-7.20585
-7.26241
-7.35793
-7.45322
-7.53947
-7.61766
-7.69081
-7.76092
-7.8291
-7.89602
-7.96212
-8.02772
-8.0931
-8.15848
-8.22411
-8.29014
-8.35674
-8.42404
-8.49219
-8.56137
-8.63175
-8.70355
-8.77694
-8.85213
-8.92925
-9.00844
-9.08962
-9.17367
-9.26016
-9.35261
-9.35976
-25.3773
-17.2536
-13.6653
-11.9923
-10.6265
-9.41545
-8.41608
-7.66132
-7.24445
-7.13688
-7.21848
-7.32801
-7.43139
-7.52098
-7.5995
-7.67128
-7.73954
-7.80612
-7.87204
-7.93782
-8.00378
-8.07012
-8.13697
-8.20447
-8.2727
-8.34177
-8.41177
-8.4828
-8.55499
-8.62846
-8.70337
-8.77985
-8.85803
-8.93803
-9.01989
-9.10355
-9.18967
-9.27791
-9.37071
-9.39059
-21.0138
-16.7143
-13.6023
-11.871
-10.5617
-9.32822
-8.29553
-7.54248
-7.14137
-7.08634
-7.18458
-7.30436
-7.41415
-7.50669
-7.58577
-7.65659
-7.72321
-7.78812
-7.8527
-7.91768
-7.98339
-8.05002
-8.11766
-8.18636
-8.25616
-8.3271
-8.39922
-8.47258
-8.54726
-8.62335
-8.70094
-8.78012
-8.86099
-8.9436
-9.02797
-9.114
-9.20221
-9.2923
-9.38598
-9.41748
-18.1296
-15.9268
-13.3247
-11.6783
-10.3733
-9.12565
-8.09738
-7.40581
-7.06344
-7.05309
-7.16355
-7.28969
-7.40247
-7.49646
-7.57568
-7.64564
-7.71082
-7.77415
-7.83732
-7.90123
-7.96633
-8.0328
-8.10072
-8.17011
-8.24096
-8.31325
-8.387
-8.46223
-8.53896
-8.61724
-8.69714
-8.77869
-8.86196
-8.94696
-9.03369
-9.12202
-9.21237
-9.30445
-9.39944
-9.44165
-16.0199
-14.7543
-12.8062
-11.3172
-10.0241
-8.83056
-7.87757
-7.26803
-7.01203
-7.04096
-7.15857
-7.28559
-7.39713
-7.49024
-7.56865
-7.63757
-7.70144
-7.76334
-7.82515
-7.88793
-7.95222
-8.01826
-8.08612
-8.15581
-8.2273
-8.30055
-8.37553
-8.45221
-8.53061
-8.61074
-8.69261
-8.77626
-8.86168
-8.94889
-9.03785
-9.12843
-9.22095
-9.31514
-9.41181
-9.46393
-14.325
-13.6036
-12.1371
-10.7831
-9.58875
-8.50242
-7.65713
-7.16379
-7.00099
-7.055
-7.17195
-7.29223
-7.39811
-7.4878
-7.56422
-7.63171
-7.69429
-7.7549
-7.81549
-7.87719
-7.94062
-8.00608
-8.07367
-8.14341
-8.21525
-8.28913
-8.36501
-8.44284
-8.52259
-8.60426
-8.68784
-8.77332
-8.8607
-8.94995
-9.04103
-9.13381
-9.22853
-9.32494
-9.42356
-9.48487
-12.7797
-12.4037
-11.3196
-10.1772
-9.11558
-8.16214
-7.48673
-7.12042
-7.03279
-7.09588
-7.20119
-7.30771
-7.40428
-7.4885
-7.56185
-7.62751
-7.68876
-7.74822
-7.80773
-7.86846
-7.93107
-7.99592
-8.06314
-8.13275
-8.20474
-8.27902
-8.35555
-8.43427
-8.51512
-8.59809
-8.68313
-8.77025
-8.8594
-8.95055
-9.04365
-9.13857
-9.23551
-9.33422
-9.43499
-9.50484
-11.2494
-11.1439
-10.4561
-9.5365
-8.63103
-7.88252
-7.38917
-7.14071
-7.09998
-7.15518
-7.23922
-7.32844
-7.41376
-7.49131
-7.5609
-7.62444
-7.68434
-7.74277
-7.80138
-7.86129
-7.92318
-7.98744
-8.05425
-8.12366
-8.19566
-8.27019
-8.34718
-8.42658
-8.50834
-8.59239
-8.67872
-8.76728
-8.85805
-8.95097
-9.04599
-9.143
-9.24215
-9.34319
-9.44623
-9.524
-10.045
-9.90216
-9.55803
-8.8911
-8.21753
-7.69302
-7.36592
-7.20791
-7.18368
-7.21814
-7.27857
-7.35052
-7.4245
-7.49511
-7.56074
-7.62206
-7.68064
-7.73817
-7.79605
-7.85529
-7.91658
-7.98033
-8.04676
-8.11594
-8.18788
-8.26254
-8.33987
-8.41981
-8.5023
-8.58729
-8.67473
-8.76459
-8.85682
-8.95139
-9.04825
-9.14728
-9.24859
-9.35195
-9.45734
-9.54245
-10.6996
-9.48217
-8.99054
-8.45998
-7.9646
-7.61526
-7.39817
-7.29198
-7.26028
-7.27213
-7.3131
-7.37067
-7.43468
-7.49892
-7.56078
-7.61997
-7.67736
-7.73413
-7.79143
-7.85017
-7.911
-7.97434
-8.04043
-8.10938
-8.18124
-8.25598
-8.33356
-8.41392
-8.49702
-8.58281
-8.67123
-8.76225
-8.85582
-8.95194
-9.05053
-9.15149
-9.25489
-9.36053
-9.46828
-9.56016
-10.1726
-9.30053
-8.71954
-8.23587
-7.8472
-7.6026
-7.44621
-7.35578
-7.31272
-7.31082
-7.33954
-7.38684
-7.44306
-7.50201
-7.5606
-7.61793
-7.67428
-7.73045
-7.78733
-7.84571
-7.90621
-7.96923
-8.03506
-8.10383
-8.1756
-8.25038
-8.32815
-8.40887
-8.49249
-8.57897
-8.66825
-8.7603
-8.85512
-8.95268
-9.05289
-9.15568
-9.26108
-9.36892
-9.47899
-9.57708
-9.63403
-9.12677
-8.59073
-8.14073
-7.80981
-7.60915
-7.47726
-7.38747
-7.34149
-7.33515
-7.35769
-7.39844
-7.44909
-7.50399
-7.55996
-7.61576
-7.67128
-7.727
-7.7836
-7.84176
-7.90204
-7.96486
-8.0305
-8.09913
-8.17083
-8.24565
-8.32358
-8.40459
-8.48866
-8.57574
-8.66578
-8.75878
-8.85474
-8.95362
-9.05534
-9.15984
-9.26715
-9.37707
-9.48936
-9.5931
-9.27216
-8.9464
-8.49627
-8.08636
-7.78648
-7.6044
-7.48241
-7.39639
-7.35468
-7.34894
-7.36895
-7.40585
-7.45279
-7.50478
-7.55879
-7.61342
-7.66832
-7.72373
-7.78018
-7.83823
-7.8984
-7.9611
-8.02662
-8.09515
-8.16682
-8.24168
-8.31975
-8.40102
-8.48548
-8.57308
-8.6638
-8.75766
-8.85466
-8.95475
-9.05786
-9.16395
-9.27303
-9.38491
-9.4993
-9.60812
-9.01129
-8.77238
-8.39124
-8.01926
-7.74235
-7.57709
-7.4683
-7.39255
-7.35839
-7.35538
-7.37493
-7.40985
-7.45449
-7.50453
-7.55716
-7.61094
-7.66541
-7.72065
-7.77704
-7.83507
-7.89521
-7.95786
-8.02332
-8.09182
-8.16348
-8.23838
-8.31658
-8.39809
-8.48289
-8.57095
-8.66228
-8.75691
-8.85485
-8.95603
-9.06042
-9.16796
-9.27868
-9.39236
-9.50868
-9.62203
-8.81433
-8.6151
-8.27962
-7.93534
-7.67911
-7.53376
-7.44301
-7.38083
-7.35552
-7.35648
-7.377
-7.4113
-7.4547
-7.50352
-7.55524
-7.60846
-7.66266
-7.71782
-7.77423
-7.8323
-7.89248
-7.95514
-8.0206
-8.08908
-8.16076
-8.23573
-8.31405
-8.39577
-8.48088
-8.56934
-8.66121
-8.75654
-8.85531
-8.95746
-9.06298
-9.17184
-9.28402
-9.39932
-9.51739
-9.63476
-8.66149
-8.48585
-8.17678
-7.85213
-7.61164
-7.48446
-7.41156
-7.3636
-7.34783
-7.3538
-7.37639
-7.41104
-7.454
-7.50217
-7.55335
-7.60623
-7.66029
-7.71545
-7.77193
-7.83009
-7.89035
-7.95306
-8.01855
-8.08707
-8.15878
-8.23382
-8.31227
-8.39417
-8.47955
-8.56837
-8.66071
-8.75665
-8.85614
-8.95915
-9.06568
-9.17568
-9.28916
-9.40588
-9.52552
-9.64636
-8.54179
-8.38406
-8.09118
-7.77919
-7.54874
-7.43535
-7.37745
-7.34295
-7.33679
-7.34835
-7.37372
-7.40939
-7.45246
-7.5004
-7.55131
-7.60403
-7.65805
-7.71328
-7.76988
-7.82817
-7.88854
-7.95135
-8.01692
-8.0855
-8.15729
-8.23243
-8.31101
-8.39311
-8.47873
-8.56788
-8.66066
-8.75714
-8.85727
-8.96104
-9.06845
-9.17946
-9.29406
-9.41203
-9.53303
-9.65664
-8.45017
-8.30544
-8.02302
-7.71888
-7.49355
-7.38881
-7.34222
-7.31929
-7.32202
-7.3391
-7.36746
-7.40443
-7.44786
-7.49577
-7.54656
-7.59919
-7.65321
-7.70851
-7.76524
-7.82367
-7.88417
-7.9471
-8.01277
-8.08144
-8.15333
-8.22858
-8.30731
-8.38962
-8.4755
-8.56498
-8.65818
-8.75517
-8.8559
-8.96038
-9.0686
-9.18054
-9.29617
-9.41525
-9.53734
-9.66265
-8.38521
-8.24773
-7.9716
-7.67247
-7.44844
-7.348
-7.30939
-7.29573
-7.306
-7.32789
-7.35891
-7.39706
-7.44081
-7.48863
-7.53922
-7.59166
-7.64552
-7.70074
-7.75742
-7.81581
-7.87627
-7.93914
-8.00474
-8.07334
-8.14515
-8.22034
-8.29903
-8.38132
-8.46723
-8.5568
-8.65018
-8.74743
-8.84851
-8.95344
-9.06222
-9.17486
-9.29128
-9.41117
-9.53405
-9.66133
-8.34785
-8.21499
-7.94661
-7.65443
-7.4392
-7.35308
-7.32858
-7.32608
-7.34371
-7.36992
-7.40376
-7.44394
-7.48933
-7.53855
-7.59034
-7.64378
-7.69846
-7.75432
-7.81151
-7.87032
-7.93111
-7.99425
-8.06007
-8.12886
-8.20082
-8.27613
-8.35493
-8.4373
-8.52325
-8.61283
-8.70618
-8.80336
-8.90433
-9.00909
-9.11763
-9.22987
-9.34587
-9.46548
-9.5888
-9.72163
-8.34226
-8.22347
-7.97456
-7.70733
-7.5446
-7.52716
-7.55122
-7.57519
-7.60478
-7.63745
-7.67777
-7.72611
-7.78105
-7.84033
-7.90189
-7.96428
-8.02697
-8.08997
-8.15362
-8.21842
-8.28494
-8.35367
-8.42505
-8.49937
-8.57683
-8.65756
-8.74162
-8.82901
-8.91966
-9.0135
-9.11066
-9.21112
-9.31476
-9.42156
-9.53153
-9.64477
-9.76121
-9.88073
-10.0021
-10.119
0.0786085
0.0407626
0.0322237
0.022024
0.0154969
0.0094485
0.00361639
-0.00218703
-0.0079739
-0.013735
-0.0194493
-0.0250946
-0.0306485
-0.0360936
-0.0414142
-0.0465952
-0.051627
-0.0564993
-0.061202
-0.0657302
-0.0700769
-0.0742346
-0.0782018
-0.0819731
-0.085543
-0.0889121
-0.0920765
-0.0950321
-0.0977818
-0.100324
-0.102656
-0.104785
-0.106716
-0.108455
-0.110033
-0.111485
-0.112734
-0.113692
-0.119776
-0.154001
0.136924
0.0899885
0.0743844
0.0552814
0.0404698
0.0273722
0.0156446
0.0048275
-0.00530217
-0.0148986
-0.0240549
-0.0328283
-0.041254
-0.0493542
-0.057142
-0.0646258
-0.0718113
-0.0787008
-0.0852965
-0.0915997
-0.0976102
-0.103328
-0.108754
-0.113887
-0.118726
-0.123273
-0.127525
-0.131483
-0.135146
-0.138514
-0.141585
-0.14436
-0.146834
-0.149003
-0.150866
-0.1524
-0.153279
-0.152755
-0.157186
-0.200494
0.19736
0.14111
0.117585
0.0892331
0.066864
0.0473974
0.0302557
0.0148163
0.000732362
-0.012262
-0.0243522
-0.0356697
-0.0463127
-0.056353
-0.0658433
-0.0748268
-0.0833359
-0.0913955
-0.099028
-0.10625
-0.113076
-0.119518
-0.125586
-0.131289
-0.136635
-0.14163
-0.146279
-0.150589
-0.154563
-0.158205
-0.161518
-0.164506
-0.167168
-0.169506
-0.171529
-0.173233
-0.174347
-0.174278
-0.179589
-0.223415
0.241639
0.180963
0.152335
0.118819
0.0912021
0.0668794
0.0453049
0.0258554
0.00815976
-0.00808041
-0.0230885
-0.0370354
-0.0500511
-0.0622371
-0.0736744
-0.0844259
-0.0945435
-0.104071
-0.113041
-0.121485
-0.129428
-0.136891
-0.143891
-0.150446
-0.156569
-0.162271
-0.167565
-0.172459
-0.176961
-0.181079
-0.18482
-0.188189
-0.191191
-0.19383
-0.196125
-0.198084
-0.19948
-0.199844
-0.205606
-0.248296
0.279042
0.216581
0.184084
0.146314
0.11432
0.0857934
0.0602908
0.0372122
0.0161812
-0.00311546
-0.0209218
-0.0374308
-0.0527937
-0.0671321
-0.080545
-0.0931119
-0.104899
-0.115963
-0.126348
-0.136096
-0.145239
-0.153807
-0.161825
-0.169315
-0.176296
-0.182786
-0.188799
-0.194348
-0.199446
-0.204104
-0.20833
-0.212133
-0.215521
-0.218504
-0.221102
-0.223334
-0.224998
-0.225684
-0.231576
-0.272681
0.309088
0.245173
0.210728
0.170311
0.135202
0.103421
0.0746903
0.0485033
0.0245302
0.00247522
-0.0179025
-0.0367984
-0.0543747
-0.0707635
-0.0860733
-0.100397
-0.11381
-0.126377
-0.138154
-0.149189
-0.159522
-0.169189
-0.178222
-0.186647
-0.19449
-0.20177
-0.208507
-0.214718
-0.220418
-0.22562
-0.230337
-0.234581
-0.23836
-0.241689
-0.244592
-0.24709
-0.249001
-0.249944
-0.25583
-0.295222
0.334947
0.270525
0.234429
0.191922
0.154301
0.119832
0.088374
0.0595009
0.0329312
0.0083981
-0.0143244
-0.035428
-0.0550738
-0.0733975
-0.0905145
-0.106522
-0.121503
-0.135531
-0.148665
-0.160961
-0.172464
-0.183217
-0.193254
-0.202608
-0.211307
-0.219376
-0.226837
-0.23371
-0.240014
-0.245764
-0.250974
-0.25566
-0.259834
-0.26351
-0.266716
-0.269478
-0.271623
-0.272798
-0.278644
-0.316343
0.356613
0.291751
0.254804
0.210924
0.171458
0.134879
0.101178
0.0700225
0.0411896
0.0144529
-0.0103899
-0.0335175
-0.0550831
-0.0752203
-0.0940453
-0.111657
-0.128143
-0.143578
-0.158029
-0.171553
-0.184202
-0.19602
-0.207047
-0.217319
-0.226866
-0.235719
-0.2439
-0.251434
-0.258341
-0.264638
-0.270343
-0.275472
-0.28004
-0.284064
-0.287571
-0.29059
-0.29296
-0.294346
-0.300133
-0.336195
0.375818
0.310706
0.272961
0.22796
0.186995
0.148679
0.113098
0.0799891
0.0491845
0.0204945
-0.00625637
-0.0312274
-0.0545623
-0.076388
-0.0968157
-0.115945
-0.133864
-0.150648
-0.166366
-0.181079
-0.19484
-0.207697
-0.219693
-0.230865
-0.241249
-0.250874
-0.259768
-0.267957
-0.275461
-0.282302
-0.2885
-0.29407
-0.299029
-0.303397
-0.307203
-0.310473
-0.313058
-0.314643
-0.320363
-0.354856
0.392319
0.327046
0.288853
0.243079
0.200971
0.161262
0.12412
0.0893492
0.0568325
0.0264184
-0.00204026
-0.0286833
-0.0536398
-0.077027
-0.0989511
-0.119507
-0.138781
-0.15685
-0.173781
-0.189637
-0.204472
-0.218336
-0.231274
-0.243325
-0.254526
-0.264909
-0.274504
-0.283337
-0.291431
-0.29881
-0.305493
-0.311499
-0.316846
-0.321554
-0.325652
-0.329168
-0.331962
-0.333735
-0.339388
-0.372386
0.407226
0.341778
0.303129
0.256691
0.213628
0.172755
0.134294
0.0980983
0.064091
0.0321555
0.00217093
-0.0259833
-0.05242
-0.0772457
-0.100559
-0.12245
-0.143
-0.162285
-0.180371
-0.197319
-0.213186
-0.228021
-0.24187
-0.254774
-0.266771
-0.277893
-0.288172
-0.297636
-0.306309
-0.314216
-0.321377
-0.327812
-0.33354
-0.338581
-0.342966
-0.346723
-0.349719
-0.351672
-0.357262
-0.388841
0.420281
0.354731
0.315801
0.268882
0.225064
0.183233
0.14366
0.106242
0.0709375
0.03766
0.0063129
-0.0232033
-0.0509876
-0.0771347
-0.101733
-0.124867
-0.146614
-0.167044
-0.186224
-0.204213
-0.221066
-0.236833
-0.251559
-0.265287
-0.278053
-0.289894
-0.300838
-0.310917
-0.320156
-0.328578
-0.336206
-0.343062
-0.349163
-0.354531
-0.359197
-0.363188
-0.366379
-0.368507
-0.374037
-0.404274
0.432217
0.366519
0.327283
0.279928
0.235458
0.192811
0.152285
0.113808
0.077369
0.0429052
0.0103422
-0.0204017
-0.0494106
-0.0767673
-0.102552
-0.12684
-0.149704
-0.171211
-0.191423
-0.210399
-0.22819
-0.244847
-0.260414
-0.274933
-0.288442
-0.300976
-0.312566
-0.323242
-0.33303
-0.341954
-0.350038
-0.357303
-0.363768
-0.369456
-0.374394
-0.378614
-0.381995
-0.38429
-0.389767
-0.41874
0.442829
0.377033
0.33759
0.289905
0.244902
0.201564
0.160221
0.120827
0.0833915
0.0478774
0.0142285
-0.0176217
-0.0477424
-0.076205
-0.103081
-0.128439
-0.152343
-0.174858
-0.196042
-0.215948
-0.23463
-0.252134
-0.268504
-0.283782
-0.298004
-0.311206
-0.323418
-0.334671
-0.344991
-0.354402
-0.362928
-0.370591
-0.37741
-0.383407
-0.388612
-0.393053
-0.396619
-0.399074
-0.404503
-0.432288
0.452616
0.38668
0.347004
0.299005
0.253527
0.209588
0.167533
0.127334
0.0890212
0.0525739
0.0179523
-0.0148946
-0.0460245
-0.0754983
-0.103377
-0.129723
-0.154596
-0.178051
-0.200146
-0.22093
-0.240453
-0.258761
-0.275896
-0.291897
-0.306802
-0.320644
-0.333455
-0.345263
-0.356096
-0.365978
-0.374933
-0.382981
-0.390142
-0.39644
-0.401902
-0.406557
-0.410302
-0.412912
-0.418299
-0.444972
0.461429
0.395385
0.355535
0.307288
0.261407
0.216949
0.174272
0.133365
0.0942762
0.0569973
0.0215035
-0.0122432
-0.0442897
-0.0746869
-0.103487
-0.130746
-0.156516
-0.180849
-0.203795
-0.225404
-0.245721
-0.26479
-0.28265
-0.29934
-0.314896
-0.329351
-0.342735
-0.355077
-0.366403
-0.376739
-0.386106
-0.394525
-0.402019
-0.408606
-0.414317
-0.41918
-0.423096
-0.425855
-0.431205
-0.45684
0.469611
0.403427
0.363381
0.31489
0.268643
0.223721
0.180493
0.13896
0.0991784
0.0611555
0.0248779
-0.00968309
-0.0425627
-0.073803
-0.10345
-0.13155
-0.158151
-0.183301
-0.207044
-0.229426
-0.25049
-0.270276
-0.288823
-0.306167
-0.322343
-0.337382
-0.351314
-0.364167
-0.375967
-0.386737
-0.396501
-0.405279
-0.413091
-0.419958
-0.42591
-0.430973
-0.435054
-0.437956
-0.443274
-0.467943
0.477063
0.410757
0.370552
0.321859
0.275291
0.229961
0.186244
0.144151
0.103751
0.0650597
0.0280742
-0.00722364
-0.0408615
-0.0728735
-0.103297
-0.132174
-0.159546
-0.185454
-0.20994
-0.233046
-0.254811
-0.275274
-0.294469
-0.312433
-0.329197
-0.344792
-0.359246
-0.372587
-0.38484
-0.396027
-0.406171
-0.415292
-0.423411
-0.430547
-0.436729
-0.441985
-0.446226
-0.449264
-0.454555
-0.478328
0.484021
0.41757
0.377188
0.328293
0.281428
0.235726
0.191568
0.148973
0.108016
0.0687222
0.0310963
-0.00487096
-0.0392003
-0.0719184
-0.103056
-0.132649
-0.160733
-0.187346
-0.212526
-0.236309
-0.258732
-0.27983
-0.299638
-0.318186
-0.335508
-0.35163
-0.366582
-0.380388
-0.393072
-0.404658
-0.415165
-0.424616
-0.433028
-0.440423
-0.446827
-0.452267
-0.45666
-0.459829
-0.465098
-0.488043
0.490419
0.423835
0.3833
0.33423
0.287097
0.24106
0.196505
0.153456
0.111996
0.0721561
0.0339496
-0.00262799
-0.0375889
-0.0709535
-0.102749
-0.133002
-0.161746
-0.189014
-0.214839
-0.239254
-0.262294
-0.28399
-0.304373
-0.323475
-0.341323
-0.357946
-0.373369
-0.387617
-0.400712
-0.412678
-0.423533
-0.433298
-0.441991
-0.449633
-0.456249
-0.461867
-0.466406
-0.469699
-0.474951
-0.497133
0.496427
0.429692
0.388988
0.339742
0.292356
0.24601
0.201092
0.15763
0.115712
0.0753761
0.0366396
-0.000494578
-0.0360337
-0.0699928
-0.102392
-0.133256
-0.162612
-0.190487
-0.216913
-0.241919
-0.265536
-0.287792
-0.308717
-0.32834
-0.346686
-0.363782
-0.379652
-0.39432
-0.407807
-0.420134
-0.43132
-0.441385
-0.450347
-0.458224
-0.465043
-0.47083
-0.47551
-0.478921
-0.484159
-0.505642
0.502001
0.435122
0.394265
0.34486
0.297241
0.250611
0.20536
0.161521
0.119185
0.0783953
0.0391741
0.00153021
-0.0345396
-0.0690454
-0.102002
-0.13343
-0.163352
-0.191793
-0.218778
-0.244336
-0.268492
-0.291275
-0.312709
-0.332822
-0.351638
-0.369181
-0.385475
-0.40054
-0.414398
-0.427069
-0.43857
-0.448921
-0.458138
-0.466241
-0.473253
-0.479202
-0.484015
-0.487539
-0.492768
-0.513613
0.50726
0.440224
0.399203
0.349637
0.301795
0.254899
0.20934
0.165153
0.122433
0.0812269
0.0415616
0.00344845
-0.0331097
-0.0681187
-0.101591
-0.133541
-0.163988
-0.192954
-0.220461
-0.246534
-0.271195
-0.294471
-0.316383
-0.336958
-0.356217
-0.374182
-0.390876
-0.406318
-0.420528
-0.433525
-0.445326
-0.455948
-0.465409
-0.473726
-0.480923
-0.487026
-0.491966
-0.495597
-0.50082
-0.521086
0.512181
0.444989
0.403813
0.354098
0.306046
0.258902
0.213057
0.168548
0.125474
0.0838842
0.0438089
0.0052639
-0.0317449
-0.0672195
-0.101168
-0.133602
-0.164537
-0.193992
-0.221985
-0.248539
-0.273673
-0.29741
-0.319773
-0.340781
-0.360457
-0.378821
-0.395893
-0.411692
-0.426235
-0.439541
-0.451626
-0.462507
-0.472199
-0.480719
-0.488093
-0.494343
-0.499404
-0.503135
-0.508356
-0.528098
0.516845
0.44949
0.40815
0.358283
0.310029
0.262649
0.216535
0.171727
0.128324
0.0863789
0.0459242
0.00697995
-0.0304458
-0.0663518
-0.100742
-0.133625
-0.165015
-0.194924
-0.223371
-0.250374
-0.275951
-0.300122
-0.322906
-0.344323
-0.364392
-0.383132
-0.400561
-0.416696
-0.431555
-0.445154
-0.457509
-0.468634
-0.478546
-0.48726
-0.494801
-0.501191
-0.506367
-0.510194
-0.515416
-0.534688
0.521241
0.453722
0.412223
0.362212
0.313765
0.266161
0.219796
0.174708
0.130998
0.0887221
0.047916
0.00860013
-0.0292127
-0.0655184
-0.100319
-0.133621
-0.165433
-0.195767
-0.224638
-0.252061
-0.278053
-0.30263
-0.32581
-0.347611
-0.36805
-0.387144
-0.404911
-0.421365
-0.436522
-0.450399
-0.463009
-0.474367
-0.484487
-0.493385
-0.501084
-0.507608
-0.512893
-0.516811
-0.522037
-0.54089
0.525429
0.457739
0.416074
0.365917
0.31728
0.269463
0.222858
0.177506
0.133509
0.0909249
0.0497902
0.0101291
-0.0280441
-0.0647228
-0.0999061
-0.133597
-0.165804
-0.196535
-0.225802
-0.253618
-0.279998
-0.304957
-0.32851
-0.350672
-0.37146
-0.390888
-0.408973
-0.425728
-0.441168
-0.455307
-0.468159
-0.479737
-0.490055
-0.499129
-0.506978
-0.513628
-0.519017
-0.523021
-0.528255
-0.546736
0.529401
0.46154
0.419713
0.369414
0.320594
0.272572
0.225739
0.180137
0.135871
0.0929966
0.0515543
0.0115707
-0.0269391
-0.0639663
-0.0995065
-0.133562
-0.166138
-0.197239
-0.226877
-0.255063
-0.281808
-0.307125
-0.331028
-0.353531
-0.374647
-0.394391
-0.412775
-0.429815
-0.445522
-0.45991
-0.472991
-0.484778
-0.495284
-0.504523
-0.512516
-0.519285
-0.524773
-0.528857
-0.534102
-0.552258
0.533202
0.465164
0.423168
0.372725
0.323726
0.275504
0.228454
0.182616
0.138093
0.094946
0.0532156
0.0129283
-0.025897
-0.0632495
-0.099125
-0.133522
-0.166442
-0.197892
-0.227879
-0.25641
-0.283498
-0.309152
-0.333385
-0.356208
-0.377634
-0.397675
-0.416344
-0.433652
-0.449612
-0.464235
-0.477533
-0.489518
-0.500202
-0.509598
-0.517727
-0.524611
-0.530192
-0.534352
-0.53961
-0.557485
0.536831
0.468614
0.426449
0.375865
0.326691
0.278277
0.231017
0.184952
0.140187
0.0967818
0.0547788
0.0142064
-0.0249155
-0.0625746
-0.0987641
-0.133481
-0.166726
-0.198503
-0.228816
-0.257674
-0.285084
-0.311056
-0.335599
-0.358724
-0.380443
-0.400765
-0.419702
-0.437264
-0.453463
-0.468309
-0.481813
-0.493985
-0.504838
-0.514383
-0.522642
-0.529634
-0.535304
-0.539536
-0.544809
-0.562445
0.540319
0.471918
0.42958
0.378852
0.329504
0.280903
0.23344
0.187158
0.142162
0.0985113
0.0562498
0.0154084
-0.0239935
-0.0619417
-0.0984267
-0.133445
-0.166996
-0.19908
-0.229702
-0.258867
-0.28658
-0.312851
-0.337688
-0.361098
-0.383093
-0.403681
-0.422871
-0.440674
-0.4571
-0.472157
-0.485855
-0.498206
-0.509219
-0.518906
-0.527287
-0.534382
-0.540136
-0.544436
-0.549728
-0.567164
0.543665
0.475078
0.43257
0.381695
0.332178
0.283393
0.235735
0.189244
0.144025
0.100141
0.0576348
0.0165369
-0.0231299
-0.0613504
-0.0981156
-0.133419
-0.167257
-0.199632
-0.230545
-0.259999
-0.288
-0.314554
-0.339667
-0.363347
-0.385603
-0.406442
-0.425873
-0.443904
-0.460543
-0.475801
-0.489685
-0.502204
-0.513369
-0.52319
-0.531688
-0.538881
-0.544715
-0.549079
-0.554391
-0.571665
0.546894
0.478117
0.435434
0.384411
0.334725
0.28576
0.237911
0.191217
0.145786
0.101677
0.0589369
0.0175959
-0.0223226
-0.0608022
-0.0978321
-0.133405
-0.167517
-0.200166
-0.231354
-0.261082
-0.289354
-0.316175
-0.341551
-0.365487
-0.38799
-0.409067
-0.428725
-0.446972
-0.463816
-0.479263
-0.493322
-0.506002
-0.517311
-0.527261
-0.535869
-0.543155
-0.549065
-0.553489
-0.558825
-0.575971
0.550008
0.481038
0.43818
0.387007
0.337154
0.288012
0.239977
0.193087
0.14745
0.103126
0.0601609
0.0185878
-0.0215706
-0.0602971
-0.0975783
-0.133407
-0.167778
-0.200687
-0.232136
-0.262124
-0.290654
-0.317728
-0.343353
-0.367531
-0.390268
-0.411572
-0.431446
-0.449898
-0.466935
-0.482563
-0.496789
-0.509621
-0.521067
-0.531138
-0.539852
-0.547227
-0.553209
-0.55769
-0.563051
-0.580104
0.553023
0.483858
0.44082
0.389496
0.339476
0.290159
0.24194
0.19486
0.149023
0.104491
0.0613114
0.0195148
-0.0208731
-0.0598342
-0.0973561
-0.133428
-0.168045
-0.201203
-0.232899
-0.263134
-0.291908
-0.319224
-0.345084
-0.369493
-0.392454
-0.413971
-0.434051
-0.452699
-0.469919
-0.485718
-0.500103
-0.51308
-0.524657
-0.534844
-0.543658
-0.551117
-0.557169
-0.561704
-0.567091
-0.584083
0.555943
0.486579
0.44336
0.391884
0.341698
0.292208
0.243809
0.196542
0.150511
0.105779
0.0623905
0.0203797
-0.0202285
-0.059415
-0.0971662
-0.133472
-0.168323
-0.201717
-0.23365
-0.26412
-0.293127
-0.320672
-0.346757
-0.371385
-0.394558
-0.41628
-0.436556
-0.455389
-0.472784
-0.488747
-0.503283
-0.516398
-0.5281
-0.538397
-0.547306
-0.554846
-0.560963
-0.565549
-0.570966
-0.587926
0.55878
0.489215
0.445809
0.39418
0.343827
0.294165
0.245589
0.198139
0.151919
0.106992
0.0634016
0.0211843
-0.0196358
-0.0590394
-0.0970103
-0.133539
-0.168616
-0.202235
-0.234394
-0.265089
-0.294318
-0.322082
-0.348382
-0.373218
-0.396594
-0.418511
-0.438973
-0.457983
-0.475546
-0.491664
-0.506344
-0.519591
-0.531412
-0.541814
-0.550815
-0.558432
-0.564612
-0.569246
-0.574694
-0.591651
0.561537
0.491768
0.448174
0.396389
0.345871
0.296037
0.247286
0.199656
0.153251
0.108133
0.0643483
0.0219299
-0.019095
-0.0587065
-0.0968901
-0.133633
-0.168925
-0.202762
-0.235137
-0.266046
-0.295489
-0.323462
-0.349967
-0.375003
-0.398572
-0.420676
-0.441316
-0.460495
-0.478217
-0.494485
-0.509303
-0.522676
-0.53461
-0.545113
-0.554201
-0.561892
-0.568131
-0.572811
-0.578292
-0.595274
0.564223
0.494247
0.45046
0.398519
0.347833
0.297829
0.248905
0.201097
0.154511
0.109207