/*--------------------------------*- C++ -*----------------------------------*\
| =========                 |                                                 |
| \\      /  F ield         | OpenFOAM: The Open Source CFD Toolbox           |
|  \\    /   O peration     | Version:  2.3.0                                 |
|   \\  /    A nd           | Web:      www.OpenFOAM.org                      |
|    \\/     M anipulation  |                                                 |
\*---------------------------------------------------------------------------*/
FoamFile
{
    version     2.0;
    format      ascii;
    class       surfaceScalarField;
    location    "10000";
    object      phi;
}
// * * * * * * * * * * * * * * * * * * * * * * * * * * * * * * * * * * * * * //

dimensions      [0 3 -1 0 0 0 0];

internalField   nonuniform List<scalar> 
52739
(
5.39019e-05
-5.92124e-08
5.61227e-05
-2.22084e-06
5.89453e-05
-2.82261e-06
6.25498e-05
-3.60449e-06
6.69338e-05
-4.38395e-06
7.18377e-05
-4.90394e-06
7.70846e-05
-5.24693e-06
8.2558e-05
-5.47334e-06
8.81611e-05
-5.60309e-06
9.38378e-05
-5.67673e-06
9.95489e-05
-5.71109e-06
0.000105244
-5.69559e-06
0.000110915
-5.67099e-06
0.000116543
-5.62762e-06
0.000122131
-5.58756e-06
0.000127683
-5.55249e-06
0.000133205
-5.52236e-06
0.000138715
-5.50952e-06
0.000144214
-5.49878e-06
0.000149706
-5.49264e-06
0.000155199
-5.49255e-06
0.000160678
-5.47864e-06
0.000166181
-5.50341e-06
0.000171572
-5.39141e-06
0.000177095
-5.52211e-06
0.000182464
-5.36923e-06
0.000187925
-5.46104e-06
0.000193207
-5.28213e-06
0.000198544
-5.3366e-06
0.000203659
-5.11509e-06
0.000208766
-5.10773e-06
0.000213697
-4.93057e-06
0.000218565
-4.86806e-06
0.000223301
-4.73624e-06
0.000227842
-4.54129e-06
0.000232207
-4.36455e-06
0.000236232
-4.02496e-06
0.000239966
-3.73373e-06
0.00024266
-2.69454e-06
-3.33088e-06
0.000245991
5.35778e-05
-1.15746e-06
5.58932e-05
-4.53625e-06
5.88702e-05
-5.79956e-06
6.24418e-05
-7.17606e-06
6.65036e-05
-8.44584e-06
7.10162e-05
-9.41651e-06
7.59109e-05
-1.01417e-05
8.10898e-05
-1.06522e-05
8.6482e-05
-1.09953e-05
9.19881e-05
-1.11828e-05
9.7565e-05
-1.1288e-05
0.000103168
-1.12982e-05
0.000108779
-1.12819e-05
0.000114374
-1.12231e-05
0.00011995
-1.11638e-05
0.000125501
-1.11031e-05
0.000131017
-1.10387e-05
0.000136495
-1.09876e-05
0.00014193
-1.09334e-05
0.000147313
-1.08757e-05
0.000152636
-1.08159e-05
0.000157891
-1.07332e-05
0.000163025
-1.06372e-05
0.000168113
-1.04801e-05
0.000172947
-1.03555e-05
0.000177693
-1.01153e-05
0.000182134
-9.90269e-06
0.000186445
-9.5928e-06
0.000190435
-9.32627e-06
0.000194287
-8.96691e-06
0.000197847
-8.66839e-06
0.000201241
-8.32443e-06
0.000204415
-8.04177e-06
0.000207409
-7.73002e-06
0.000210295
-7.42793e-06
0.000213024
-7.09283e-06
0.000215735
-6.73672e-06
0.000218382
-6.38006e-06
0.000221559
-5.87149e-06
-5.65535e-06
0.000223883
5.20828e-05
-2.1238e-06
5.39781e-05
-6.43154e-06
5.68936e-05
-8.71507e-06
6.03889e-05
-1.06713e-05
6.42803e-05
-1.23373e-05
6.85296e-05
-1.36658e-05
7.30957e-05
-1.47077e-05
7.79227e-05
-1.54793e-05
8.29492e-05
-1.60218e-05
8.81114e-05
-1.63449e-05
9.33519e-05
-1.65284e-05
9.86269e-05
-1.65733e-05
0.000103909
-1.65637e-05
0.000109168
-1.64825e-05
0.000114392
-1.63873e-05
0.000119561
-1.6272e-05
0.000124653
-1.61312e-05
0.000129652
-1.59862e-05
0.000134522
-1.58043e-05
0.000139231
-1.55847e-05
0.000143743
-1.5327e-05
0.000148017
-1.50077e-05
0.000152016
-1.46358e-05
0.000155742
-1.42064e-05
0.00015914
-1.3754e-05
0.000162274
-1.3249e-05
0.000165119
-1.27474e-05
0.000167756
-1.22303e-05
0.000170179
-1.17493e-05
0.000172472
-1.12598e-05
0.000174632
-1.08281e-05
0.00017671
-1.04028e-05
0.000178718
-1.00492e-05
0.000180664
-9.67662e-06
0.00018261
-9.37376e-06
0.000184499
-8.98142e-06
0.000186471
-8.70891e-06
0.00018827
-8.17936e-06
0.000190388
-7.98939e-06
-7.67058e-06
0.000192403
5.10478e-05
-3.41821e-06
5.28592e-05
-8.24296e-06
5.54466e-05
-1.13025e-05
5.85763e-05
-1.3801e-05
6.215e-05
-1.5911e-05
6.61003e-05
-1.76161e-05
7.03624e-05
-1.89698e-05
7.48745e-05
-1.99913e-05
7.9577e-05
-2.07244e-05
8.44168e-05
-2.11847e-05
8.93314e-05
-2.14431e-05
9.42801e-05
-2.15221e-05
9.92179e-05
-2.15015e-05
0.000104103
-2.13675e-05
0.0001089
-2.11845e-05
0.000113561
-2.09324e-05
0.000118027
-2.05972e-05
0.000122243
-2.0203e-05
0.000126135
-1.96963e-05
0.000129642
-1.90909e-05
0.00013272
-1.84053e-05
0.000135352
-1.76402e-05
0.000137558
-1.68414e-05
0.000139397
-1.60454e-05
0.000140924
-1.5281e-05
0.000142231
-1.45561e-05
0.000143385
-1.39007e-05
0.00014446
-1.33063e-05
0.000145498
-1.27873e-05
0.000146552
-1.23131e-05
0.000147634
-1.19105e-05
0.000148769
-1.15377e-05
0.000149958
-1.12378e-05
0.000151214
-1.09335e-05
0.000152545
-1.07043e-05
0.000153941
-1.03776e-05
0.000155444
-1.02118e-05
0.000156962
-9.69689e-06
0.000158688
-9.71552e-06
-9.25751e-06
0.000160275
4.97525e-05
-4.78045e-06
5.14878e-05
-9.97823e-06
5.37985e-05
-1.36132e-05
5.66455e-05
-1.66481e-05
5.99323e-05
-1.91977e-05
6.35956e-05
-2.12795e-05
6.75701e-05
-2.29443e-05
7.17892e-05
-2.42103e-05
7.619e-05
-2.51252e-05
8.07197e-05
-2.57144e-05
8.53011e-05
-2.60245e-05
8.98905e-05
-2.61115e-05
9.44063e-05
-2.60172e-05
9.87711e-05
-2.57323e-05
0.000102891
-2.53039e-05
0.000106643
-2.46853e-05
0.000109908
-2.3862e-05
0.000112588
-2.28832e-05
0.000114617
-2.1725e-05
0.000116009
-2.0483e-05
0.000116853
-1.92493e-05
0.000117281
-1.80679e-05
0.000117439
-1.69995e-05
0.000117459
-1.60653e-05
0.000117437
-1.52591e-05
0.000117453
-1.4572e-05
0.000117544
-1.39921e-05
0.000117734
-1.34963e-05
0.000118035
-1.30882e-05
0.000118459
-1.27366e-05
0.000118998
-1.245e-05
0.000119661
-1.22e-05
0.000120432
-1.20089e-05
0.000121318
-1.18196e-05
0.000122303
-1.16892e-05
0.000123407
-1.14815e-05
0.000124604
-1.14087e-05
0.000125926
-1.10198e-05
0.000127398
-1.11866e-05
-1.05837e-05
0.000128724
4.84192e-05
-6.17247e-06
5.00183e-05
-1.15773e-05
5.21169e-05
-1.57119e-05
5.47099e-05
-1.9241e-05
5.77249e-05
-2.22128e-05
6.11081e-05
-2.46626e-05
6.48005e-05
-2.66367e-05
6.87351e-05
-2.8145e-05
7.28445e-05
-2.92345e-05
7.70634e-05
-2.99334e-05
8.12822e-05
-3.02432e-05
8.54171e-05
-3.02463e-05
8.9298e-05
-2.98981e-05
9.27341e-05
-2.91685e-05
9.5509e-05
-2.80788e-05
9.74202e-05
-2.65965e-05
9.83875e-05
-2.48294e-05
9.8482e-05
-2.29776e-05
9.79026e-05
-2.11457e-05
9.69145e-05
-1.94949e-05
9.57596e-05
-1.80943e-05
9.46127e-05
-1.6921e-05
9.357e-05
-1.59568e-05
9.26878e-05
-1.51831e-05
9.19929e-05
-1.45643e-05
9.14837e-05
-1.40628e-05
9.11541e-05
-1.36625e-05
9.10045e-05
-1.33466e-05
9.10227e-05
-1.31064e-05
9.11993e-05
-1.29132e-05
9.15175e-05
-1.27682e-05
9.19721e-05
-1.26547e-05
9.25467e-05
-1.25835e-05
9.32446e-05
-1.25176e-05
9.40466e-05
-1.24912e-05
9.49761e-05
-1.24111e-05
9.5995e-05
-1.24276e-05
9.71684e-05
-1.21931e-05
9.84316e-05
-1.24498e-05
-1.17866e-05
9.96344e-05
4.69618e-05
-7.47024e-06
4.84691e-05
-1.30846e-05
5.04112e-05
-1.7654e-05
5.27801e-05
-2.16099e-05
5.55433e-05
-2.4976e-05
5.86591e-05
-2.77785e-05
6.20775e-05
-3.00552e-05
6.57343e-05
-3.18018e-05
6.95529e-05
-3.30531e-05
7.34203e-05
-3.38007e-05
7.71526e-05
-3.39756e-05
8.04963e-05
-3.359e-05
8.30664e-05
-3.24683e-05
8.4486e-05
-3.05881e-05
8.456e-05
-2.81528e-05
8.34092e-05
-2.54456e-05
8.14139e-05
-2.28341e-05
7.90361e-05
-2.05998e-05
7.66427e-05
-1.87523e-05
7.44376e-05
-1.72898e-05
7.25089e-05
-1.61656e-05
7.08852e-05
-1.52974e-05
6.95581e-05
-1.46297e-05
6.85092e-05
-1.41342e-05
6.77142e-05
-1.37693e-05
6.71483e-05
-1.34968e-05
6.67863e-05
-1.33005e-05
6.66063e-05
-1.31666e-05
6.65874e-05
-1.30874e-05
6.67176e-05
-1.30435e-05
6.69808e-05
-1.30314e-05
6.73685e-05
-1.30424e-05
6.78664e-05
-1.30814e-05
6.84741e-05
-1.31252e-05
6.91764e-05
-1.31935e-05
6.99916e-05
-1.32263e-05
7.0887e-05
-1.3323e-05
7.19318e-05
-1.32379e-05
7.30236e-05
-1.35416e-05
-1.291e-05
7.4147e-05
4.55073e-05
-8.67658e-06
4.69202e-05
-1.44976e-05
4.87068e-05
-1.94406e-05
5.08728e-05
-2.37759e-05
5.3403e-05
-2.75062e-05
5.6267e-05
-3.06424e-05
5.94244e-05
-3.32126e-05
6.2807e-05
-3.51844e-05
6.6302e-05
-3.65481e-05
6.9643e-05
-3.71416e-05
7.2396e-05
-3.67286e-05
7.38787e-05
-3.50727e-05
7.3544e-05
-3.21336e-05
7.14207e-05
-2.84648e-05
6.80893e-05
-2.48214e-05
6.43533e-05
-2.17096e-05
6.07344e-05
-1.92153e-05
5.75121e-05
-1.73775e-05
5.47765e-05
-1.60167e-05
5.25147e-05
-1.5028e-05
5.06937e-05
-1.43446e-05
4.92612e-05
-1.38649e-05
4.81565e-05
-1.3525e-05
4.73256e-05
-1.33033e-05
4.67247e-05
-1.31683e-05
4.63193e-05
-1.30914e-05
4.60793e-05
-1.30606e-05
4.59825e-05
-1.30698e-05
4.60105e-05
-1.31155e-05
4.61541e-05
-1.3187e-05
4.6403e-05
-1.32803e-05
4.67512e-05
-1.33905e-05
4.71894e-05
-1.35196e-05
4.77174e-05
-1.36532e-05
4.83258e-05
-1.38018e-05
4.90276e-05
-1.39282e-05
4.97981e-05
-1.40935e-05
5.06992e-05
-1.4139e-05
5.16274e-05
-1.44698e-05
-1.39396e-05
5.2657e-05
4.40567e-05
-9.7954e-06
4.53716e-05
-1.58125e-05
4.70105e-05
-2.10794e-05
4.8992e-05
-2.57573e-05
5.1309e-05
-2.98233e-05
5.39403e-05
-3.32737e-05
5.68522e-05
-3.61245e-05
5.99383e-05
-3.82705e-05
6.29111e-05
-3.9521e-05
6.50282e-05
-3.92587e-05
6.52385e-05
-3.69389e-05
6.28529e-05
-3.26871e-05
5.84625e-05
-2.77432e-05
5.33505e-05
-2.33528e-05
4.84309e-05
-1.99018e-05
4.41776e-05
-1.74563e-05
4.06504e-05
-1.56881e-05
3.78339e-05
-1.4561e-05
3.56445e-05
-1.38272e-05
3.39575e-05
-1.3341e-05
3.26616e-05
-1.30487e-05
3.16742e-05
-1.28775e-05
3.09342e-05
-1.2785e-05
3.03903e-05
-1.27594e-05
3.00075e-05
-1.27855e-05
2.9762e-05
-1.2846e-05
2.96339e-05
-1.29325e-05
2.9607e-05
-1.30428e-05
2.96681e-05
-1.31767e-05
2.98106e-05
-1.33295e-05
3.00291e-05
-1.34988e-05
3.03204e-05
-1.36818e-05
3.068e-05
-1.38792e-05
3.1109e-05
-1.40823e-05
3.16028e-05
-1.42955e-05
3.21711e-05
-1.44965e-05
3.27978e-05
-1.47202e-05
3.35261e-05
-1.48672e-05
3.42726e-05
-1.52163e-05
-1.48381e-05
3.51711e-05
4.25937e-05
-1.08144e-05
4.38101e-05
-1.70289e-05
4.53158e-05
-2.25852e-05
4.71338e-05
-2.75753e-05
4.92604e-05
-3.19499e-05
5.16798e-05
-3.56931e-05
5.43461e-05
-3.87908e-05
5.69382e-05
-4.08626e-05
5.84852e-05
-4.10679e-05
5.73384e-05
-3.8112e-05
5.28347e-05
-3.24353e-05
4.64544e-05
-2.63067e-05
4.00612e-05
-2.13501e-05
3.45882e-05
-1.78798e-05
3.0207e-05
-1.55206e-05
2.68664e-05
-1.41157e-05
2.43935e-05
-1.32152e-05
2.25502e-05
-1.27177e-05
2.11672e-05
-1.24442e-05
2.01217e-05
-1.22955e-05
1.93203e-05
-1.22473e-05
1.87067e-05
-1.22639e-05
1.82423e-05
-1.23206e-05
1.78961e-05
-1.24132e-05
1.76468e-05
-1.25362e-05
1.74815e-05
-1.26806e-05
1.73908e-05
-1.28418e-05
1.73667e-05
-1.30187e-05
1.74021e-05
-1.32121e-05
1.74932e-05
-1.34206e-05
1.76376e-05
-1.36432e-05
1.78341e-05
-1.38784e-05
1.80811e-05
-1.41262e-05
1.83802e-05
-1.43814e-05
1.87299e-05
-1.46452e-05
1.91373e-05
-1.49039e-05
1.95933e-05
-1.51763e-05
2.01259e-05
-1.53998e-05
2.06751e-05
-1.57655e-05
-1.55578e-05
2.13949e-05
4.11122e-05
-1.1715e-05
4.22292e-05
-1.81459e-05
4.36169e-05
-2.39729e-05
4.52937e-05
-2.9252e-05
4.72541e-05
-3.39103e-05
4.94765e-05
-3.79155e-05
5.17354e-05
-4.10497e-05
5.28115e-05
-4.19387e-05
5.04488e-05
-3.87052e-05
4.40478e-05
-3.17109e-05
3.60301e-05
-2.44176e-05
2.8925e-05
-1.92016e-05
2.3368e-05
-1.57931e-05
1.93863e-05
-1.38981e-05
1.66783e-05
-1.28126e-05
1.47825e-05
-1.222e-05
1.34198e-05
-1.18525e-05
1.23854e-05
-1.16832e-05
1.15758e-05
-1.16346e-05
1.09319e-05
-1.16517e-05
1.04086e-05
-1.1724e-05
9.97939e-06
-1.18347e-05
9.62864e-06
-1.19698e-05
9.34271e-06
-1.21273e-05
9.11169e-06
-1.23052e-05
8.9303e-06
-1.24992e-05
8.79535e-06
-1.27068e-05
8.70406e-06
-1.29274e-05
8.65365e-06
-1.31617e-05
8.64253e-06
-1.34095e-05
8.66982e-06
-1.36705e-05
8.73537e-06
-1.3944e-05
8.83873e-06
-1.42295e-05
8.98133e-06
-1.4524e-05
9.16299e-06
-1.48269e-05
9.38853e-06
-1.51294e-05
9.6532e-06
-1.54409e-05
9.97592e-06
-1.57225e-05
1.03176e-05
-1.61072e-05
-1.60624e-05
1.08221e-05
3.96142e-05
-1.24807e-05
4.06304e-05
-1.91621e-05
4.19151e-05
-2.52576e-05
4.34722e-05
-3.0809e-05
4.52886e-05
-3.57267e-05
4.72241e-05
-3.9851e-05
4.80077e-05
-4.18333e-05
4.48744e-05
-3.88054e-05
3.69662e-05
-3.07971e-05
2.7694e-05
-2.24387e-05
2.02294e-05
-1.6953e-05
1.51978e-05
-1.417e-05
1.21151e-05
-1.27104e-05
1.01556e-05
-1.19385e-05
8.81768e-06
-1.14747e-05
7.81867e-06
-1.12209e-05
7.04451e-06
-1.10784e-05
6.39811e-06
-1.10368e-05
5.83551e-06
-1.1072e-05
5.33927e-06
-1.11554e-05
4.89422e-06
-1.12789e-05
4.49195e-06
-1.14324e-05
4.12934e-06
-1.16072e-05
3.80279e-06
-1.18007e-05
3.50912e-06
-1.20115e-05
3.2469e-06
-1.2237e-05
3.01564e-06
-1.24755e-05
2.81481e-06
-1.27266e-05
2.64367e-06
-1.29906e-05
2.50172e-06
-1.32675e-05
2.38872e-06
-1.35575e-05
2.30472e-06
-1.386e-05
2.24966e-06
-1.41745e-05
2.22446e-06
-1.44988e-05
2.22936e-06
-1.48318e-05
2.26744e-06
-1.51675e-05
2.33654e-06
-1.551e-05
2.44921e-06
-1.58352e-05
2.57769e-06
-1.62357e-05
-1.63268e-05
2.84213e-06
3.81028e-05
-1.30981e-05
3.90213e-05
-2.00806e-05
4.02194e-05
-2.64557e-05
4.168e-05
-3.22697e-05
4.33266e-05
-3.73733e-05
4.40132e-05
-4.05377e-05
4.07466e-05
-3.85668e-05
3.17893e-05
-2.98481e-05
2.14092e-05
-2.0417e-05
1.42656e-05
-1.52951e-05
1.04038e-05
-1.30912e-05
8.2333e-06
-1.19995e-05
6.84362e-06
-1.13207e-05
5.80737e-06
-1.09023e-05
4.9781e-06
-1.06454e-05
4.27076e-06
-1.05136e-05
3.65123e-06
-1.04588e-05
3.08686e-06
-1.04725e-05
2.55903e-06
-1.05442e-05
2.06116e-06
-1.06575e-05
1.58751e-06
-1.08053e-05
1.13583e-06
-1.09808e-05
7.06558e-07
-1.11779e-05
2.9953e-07
-1.13937e-05
-8.5797e-08
-1.16262e-05
-4.4944e-07
-1.18734e-05
-7.91087e-07
-1.21339e-05
-1.11053e-06
-1.24072e-05
-1.40785e-06
-1.26933e-05
-1.68313e-06
-1.29923e-05
-1.93649e-06
-1.33041e-05
-2.16794e-06
-1.36285e-05
-2.37753e-06
-1.39649e-05
-2.56482e-06
-1.43115e-05
-2.72955e-06
-1.4667e-05
-2.8698e-06
-1.50272e-05
-2.98634e-06
-1.53935e-05
-3.07098e-06
-1.57505e-05
-3.14675e-06
-1.61599e-05
-1.6349e-05
-3.12458e-06
3.65898e-05
-1.35656e-05
3.74205e-05
-2.09113e-05
3.85501e-05
-2.75853e-05
3.99299e-05
-3.36494e-05
4.06539e-05
-3.80973e-05
3.77817e-05
-3.76655e-05
2.82996e-05
-2.90847e-05
1.70907e-05
-1.86391e-05
1.05037e-05
-1.383e-05
7.68009e-06
-1.24715e-05
6.29629e-06
-1.17074e-05
5.33821e-06
-1.10414e-05
4.52757e-06
-1.051e-05
3.78372e-06
-1.01584e-05
3.08961e-06
-9.95129e-06
2.43352e-06
-9.85753e-06
1.8153e-06
-9.84063e-06
1.2273e-06
-9.88445e-06
6.61507e-07
-9.9784e-06
1.14522e-07
-1.01106e-05
-4.16618e-07
-1.02742e-05
-9.33298e-07
-1.04641e-05
-1.43537e-06
-1.06759e-05
-1.92259e-06
-1.09065e-05
-2.39493e-06
-1.11538e-05
-2.85214e-06
-1.14162e-05
-3.29384e-06
-1.16922e-05
-3.71974e-06
-1.19813e-05
-4.12976e-06
-1.22832e-05
-4.52396e-06
-1.25981e-05
-4.90248e-06
-1.29256e-05
-5.26545e-06
-1.32655e-05
-5.61306e-06
-1.36172e-05
-5.9452e-06
-1.39794e-05
-6.26181e-06
-1.43504e-05
-6.5618e-06
-1.47272e-05
-6.84553e-06
-1.51098e-05
-7.10814e-06
-1.54879e-05
-7.36706e-06
-1.5901e-05
-1.61557e-05
-7.56033e-06
3.50981e-05
-1.39044e-05
3.58535e-05
-2.16668e-05
3.69513e-05
-2.8683e-05
3.77412e-05
-3.44393e-05
3.54667e-05
-3.58228e-05
2.61435e-05
-2.83423e-05
1.43861e-05
-1.73273e-05
8.0823e-06
-1.23353e-05
6.09227e-06
-1.184e-05
5.34408e-06
-1.17233e-05
4.71035e-06
-1.10737e-05
4.04861e-06
-1.03796e-05
3.37792e-06
-9.83935e-06
2.70152e-06
-9.48204e-06
2.03171e-06
-9.28148e-06
1.37419e-06
-9.20001e-06
7.34519e-07
-9.20095e-06
1.12743e-07
-9.26267e-06
-4.93883e-07
-9.37177e-06
-1.0871e-06
-9.51734e-06
-1.6687e-06
-9.69255e-06
-2.23997e-06
-9.89282e-06
-2.80137e-06
-1.01145e-05
-3.35305e-06
-1.03548e-05
-3.89506e-06
-1.06118e-05
-4.42734e-06
-1.08839e-05
-4.94966e-06
-1.11699e-05
-5.4619e-06
-1.1469e-05
-5.96404e-06
-1.17811e-05
-6.45621e-06
-1.21059e-05
-6.93864e-06
-1.24432e-05
-7.41161e-06
-1.27926e-05
-7.87543e-06
-1.31534e-05
-8.33029e-06
-1.35245e-05
-8.77633e-06
-1.39044e-05
-9.21313e-06
-1.42904e-05
-9.64109e-06
-1.46818e-05
-1.00577e-05
-1.50713e-05
-1.04753e-05
-1.54835e-05
-1.57802e-05
-1.08507e-05
3.36516e-05
-1.416e-05
3.43666e-05
-2.23818e-05
3.51701e-05
-2.94866e-05
3.35134e-05
-3.27827e-05
2.50418e-05
-2.73512e-05
1.31337e-05
-1.64342e-05
6.46094e-06
-1.06546e-05
4.99368e-06
-1.08681e-05
4.78702e-06
-1.16333e-05
4.46301e-06
-1.13993e-05
3.93999e-06
-1.05507e-05
3.32579e-06
-9.76544e-06
2.67585e-06
-9.1894e-06
2.01352e-06
-8.8197e-06
1.34954e-06
-8.6175e-06
6.89305e-07
-8.53978e-06
3.75034e-08
-8.54915e-06
-6.04168e-07
-8.621e-06
-1.23628e-06
-8.73966e-06
-1.85961e-06
-8.89401e-06
-2.47525e-06
-9.07691e-06
-3.0843e-06
-9.28377e-06
-3.68748e-06
-9.51129e-06
-4.28526e-06
-9.75703e-06
-4.87797e-06
-1.00191e-05
-5.46573e-06
-1.02961e-05
-6.0486e-06
-1.0587e-05
-6.62663e-06
-1.0891e-05
-7.19996e-06
-1.12078e-05
-7.76884e-06
-1.1537e-05
-8.33361e-06
-1.18784e-05
-8.89468e-06
-1.22315e-05
-9.45251e-06
-1.25956e-05
-1.00075e-05
-1.29696e-05
-1.05599e-05
-1.33519e-05
-1.111e-05
-1.37404e-05
-1.16581e-05
-1.41337e-05
-1.22032e-05
-1.45261e-05
-1.27539e-05
-1.49328e-05
-1.5253e-05
-1.32812e-05
3.22677e-05
-1.43947e-05
3.28624e-05
-2.29765e-05
3.17338e-05
-2.83579e-05
2.43998e-05
-2.54487e-05
1.26932e-05
-1.56446e-05
5.32041e-06
-9.06136e-06
3.87786e-06
-9.212e-06
4.23166e-06
-1.12219e-05
4.34853e-06
-1.17502e-05
4.02848e-06
-1.10792e-05
3.46839e-06
-9.99059e-06
2.83355e-06
-9.1306e-06
2.17818e-06
-8.53404e-06
1.51921e-06
-8.16073e-06
8.61158e-07
-7.95945e-06
2.05498e-07
-7.88412e-06
-4.46037e-07
-7.89761e-06
-1.09262e-06
-7.97442e-06
-1.73441e-06
-8.09787e-06
-2.37181e-06
-8.25661e-06
-3.00553e-06
-8.44319e-06
-3.63643e-06
-8.65286e-06
-4.2653e-06
-8.88242e-06
-4.89276e-06
-9.12956e-06
-5.51932e-06
-9.39258e-06
-6.14531e-06
-9.67015e-06
-6.771e-06
-9.96131e-06
-7.39664e-06
-1.02654e-05
-8.02252e-06
-1.05819e-05
-8.64902e-06
-1.09105e-05
-9.2766e-06
-1.12508e-05
-9.9058e-06
-1.16023e-05
-1.05372e-05
-1.19642e-05
-1.11713e-05
-1.23354e-05
-1.18087e-05
-1.27146e-05
-1.24496e-05
-1.30994e-05
-1.30949e-05
-1.34884e-05
-1.37443e-05
-1.38768e-05
-1.44036e-05
-1.42734e-05
-1.46038e-05
-1.50528e-05
3.10272e-05
-1.47521e-05
3.00971e-05
-2.20463e-05
2.37291e-05
-2.19898e-05
1.26296e-05
-1.43493e-05
4.86105e-06
-7.87601e-06
3.21494e-06
-7.41525e-06
3.88075e-06
-9.87781e-06
4.34799e-06
-1.16891e-05
4.27059e-06
-1.16728e-05
3.77658e-06
-1.05852e-05
3.13362e-06
-9.34763e-06
2.46057e-06
-8.45755e-06
1.79302e-06
-7.86649e-06
1.1364e-06
-7.50411e-06
4.87548e-07
-7.3106e-06
-1.57016e-07
-7.23956e-06
-7.98944e-07
-7.25569e-06
-1.43909e-06
-7.33428e-06
-2.07818e-06
-7.45878e-06
-2.71681e-06
-7.61798e-06
-3.35558e-06
-7.80442e-06
-3.99521e-06
-8.01323e-06
-4.63647e-06
-8.24116e-06
-5.28004e-06
-8.48599e-06
-5.92652e-06
-8.7461e-06
-6.57639e-06
-9.02028e-06
-7.23009e-06
-9.30761e-06
-7.88802e-06
-9.60745e-06
-8.55061e-06
-9.9193e-06
-9.21838e-06
-1.02427e-05
-9.89189e-06
-1.05773e-05
-1.05718e-05
-1.09224e-05
-1.12587e-05
-1.12773e-05
-1.19532e-05
-1.16409e-05
-1.26562e-05
-1.20116e-05
-1.3368e-05
-1.23876e-05
-1.40895e-05
-1.27669e-05
-1.48208e-05
-1.31455e-05
-1.55659e-05
-1.35283e-05
-1.38592e-05
-1.63104e-05
2.85959e-05
-1.40412e-05
2.28177e-05
-1.62681e-05
1.24482e-05
-1.16203e-05
4.89622e-06
-6.79733e-06
3.16535e-06
-6.14515e-06
3.79286e-06
-8.04275e-06
4.56858e-06
-1.06535e-05
4.68674e-06
-1.18073e-05
4.31387e-06
-1.12999e-05
3.60774e-06
-9.8791e-06
2.87114e-06
-8.61103e-06
2.15834e-06
-7.74475e-06
1.47938e-06
-7.18754e-06
8.26957e-07
-6.85168e-06
1.90496e-07
-6.67413e-06
-4.38261e-07
-6.6108e-06
-1.06423e-06
-6.62971e-06
-1.69018e-06
-6.70833e-06
-2.31778e-06
-6.83118e-06
-2.94812e-06
-6.98765e-06
-3.58197e-06
-7.17056e-06
-4.22009e-06
-7.37512e-06
-4.86318e-06
-7.59807e-06
-5.51197e-06
-7.83721e-06
-6.16709e-06
-8.09098e-06
-6.82914e-06
-8.35823e-06
-7.49866e-06
-8.6381e-06
-8.17617e-06
-8.92994e-06
-8.86223e-06
-9.23324e-06
-9.55744e-06
-9.54752e-06
-1.02625e-05
-9.8723e-06
-1.0978e-05
-1.02069e-05
-1.17047e-05
-1.05506e-05
-1.24435e-05
-1.09021e-05
-1.31949e-05
-1.12602e-05
-1.39597e-05
-1.16228e-05
-1.47385e-05
-1.19881e-05
-1.55317e-05
-1.23523e-05
-1.63421e-05
-1.2718e-05
-1.30424e-05
-1.7159e-05
2.08292e-05
-6.92673e-06
1.10667e-05
-6.50564e-06
4.92547e-06
-5.47907e-06
3.6581e-06
-5.52996e-06
4.26864e-06
-6.75569e-06
5.02812e-06
-8.80223e-06
5.32104e-06
-1.09465e-05
5.07381e-06
-1.156e-05
4.35675e-06
-1.05829e-05
3.4667e-06
-8.98904e-06
2.64543e-06
-7.78976e-06
1.90002e-06
-6.99934e-06
1.21498e-06
-6.5025e-06
5.70491e-07
-6.20719e-06
-5.04419e-08
-6.0532e-06
-6.59979e-07
-6.00126e-06
-1.26577e-06
-6.02392e-06
-1.87236e-06
-6.10175e-06
-2.48245e-06
-6.22109e-06
-3.09772e-06
-6.37237e-06
-3.7193e-06
-6.54898e-06
-4.34806e-06
-6.74636e-06
-4.98475e-06
-6.96137e-06
-5.63011e-06
-7.19185e-06
-6.28482e-06
-7.43627e-06
-6.94952e-06
-7.69352e-06
-7.62484e-06
-7.96277e-06
-8.3114e-06
-8.24338e-06
-9.00983e-06
-8.53481e-06
-9.72081e-06
-8.83655e-06
-1.0445e-05
-9.14805e-06
-1.11833e-05
-9.46866e-06
-1.19364e-05
-9.79751e-06
-1.2705e-05
-1.01335e-05
-1.34899e-05
-1.04753e-05
-1.42918e-05
-1.08209e-05
-1.51114e-05
-1.11685e-05
-1.59489e-05
-1.15148e-05
-1.68063e-05
-1.18606e-05
-1.21733e-05
-1.76753e-05
7.62962e-06
-1.72591e-06
5.55213e-06
-4.42815e-06
5.09427e-06
-5.02121e-06
5.42721e-06
-5.8629e-06
5.89587e-06
-7.22435e-06
6.15817e-06
-9.06454e-06
6.03793e-06
-1.08262e-05
5.37892e-06
-1.0901e-05
4.31782e-06
-9.52176e-06
3.30531e-06
-7.97653e-06
2.42954e-06
-6.91399e-06
1.66779e-06
-6.2376e-06
9.85848e-07
-5.82055e-06
3.54597e-07
-5.57594e-06
-2.47394e-07
-5.45121e-06
-8.34955e-07
-5.4137e-06
-1.41766e-06
-5.44121e-06
-2.00145e-06
-5.51796e-06
-2.58996e-06
-5.63258e-06
-3.18545e-06
-5.77689e-06
-3.7894e-06
-5.94503e-06
-4.40291e-06
-6.13286e-06
-5.02683e-06
-6.33746e-06
-5.66192e-06
-6.55675e-06
-6.30893e-06
-6.78927e-06
-6.96852e-06
-7.03392e-06
-7.64139e-06
-7.2899e-06
-8.32821e-06
-7.55656e-06
-9.02968e-06
-7.83334e-06
-9.74651e-06
-8.11971e-06
-1.04795e-05
-8.41509e-06
-1.12294e-05
-8.71879e-06
-1.19969e-05
-9.02994e-06
-1.2783e-05
-9.34746e-06
-1.35882e-05
-9.66999e-06
-1.44133e-05
-9.99581e-06
-1.52589e-05
-1.0323e-05
-1.61251e-05
-1.06485e-05
-1.70132e-05
-1.09725e-05
-1.12697e-05
-1.79168e-05
9.83986e-06
6.06695e-07
8.48013e-06
-3.06841e-06
7.75138e-06
-4.29247e-06
7.3862e-06
-5.49771e-06
7.2379e-06
-7.07604e-06
7.11445e-06
-8.9411e-06
6.53325e-06
-1.0245e-05
5.42071e-06
-9.78848e-06
4.16017e-06
-8.26122e-06
3.09447e-06
-6.91084e-06
2.20561e-06
-6.02512e-06
1.44949e-06
-5.48148e-06
7.82396e-07
-5.15346e-06
1.70937e-07
-4.96448e-06
-4.08303e-07
-4.87197e-06
-9.71366e-07
-4.85064e-06
-1.52883e-06
-4.88375e-06
-2.08749e-06
-4.9593e-06
-2.65165e-06
-5.06842e-06
-3.22406e-06
-5.20447e-06
-3.80654e-06
-5.36254e-06
-4.4004e-06
-5.539e-06
-5.00663e-06
-5.73123e-06
-5.62607e-06
-5.93731e-06
-6.25949e-06
-6.15585e-06
-6.90762e-06
-6.38579e-06
-7.57119e-06
-6.62634e-06
-8.25091e-06
-6.87684e-06
-8.94751e-06
-7.13674e-06
-9.66175e-06
-7.40547e-06
-1.03944e-05
-7.68243e-06
-1.11463e-05
-7.96693e-06
-1.19181e-05
-8.2581e-06
-1.27107e-05
-8.55488e-06
-1.35247e-05
-8.85598e-06
-1.43607e-05
-9.15977e-06
-1.52193e-05
-9.46441e-06
-1.61005e-05
-9.76732e-06
-1.7005e-05
-1.00679e-05
-1.03469e-05
-1.79279e-05
1.04922e-05
1.62902e-06
9.36005e-06
-1.9363e-06
8.69403e-06
-3.62645e-06
8.28257e-06
-5.08626e-06
8.03144e-06
-6.8249e-06
7.6001e-06
-8.50976e-06
6.57496e-06
-9.21986e-06
5.18949e-06
-8.40302e-06
3.89268e-06
-6.96441e-06
2.83173e-06
-5.84989e-06
1.96678e-06
-5.16018e-06
1.23814e-06
-4.75284e-06
5.98324e-07
-4.51364e-06
1.37306e-08
-4.37989e-06
-5.38737e-07
-4.3195e-06
-1.07487e-06
-4.3145e-06
-1.60533e-06
-4.35329e-06
-2.13719e-06
-4.42745e-06
-2.67509e-06
-4.53052e-06
-3.22212e-06
-4.65745e-06
-3.78036e-06
-4.8043e-06
-4.35128e-06
-4.96807e-06
-4.93604e-06
-5.14647e-06
-5.53555e-06
-5.3378e-06
-6.15064e-06
-5.54076e-06
-6.78209e-06
-5.75434e-06
-7.43064e-06
-5.97778e-06
-8.09705e-06
-6.21043e-06
-8.78207e-06
-6.45172e-06
-9.48647e-06
-6.70107e-06
-1.0211e-05
-6.95788e-06
-1.09565e-05
-7.22145e-06
-1.17237e-05
-7.49094e-06
-1.25132e-05
-7.76533e-06
-1.33258e-05
-8.04339e-06
-1.4162e-05
-8.32362e-06
-1.5022e-05
-8.60433e-06
-1.59061e-05
-8.88324e-06
-1.68145e-05
-9.15951e-06
-9.41823e-06
-1.77432e-05
1.04666e-05
2.01895e-06
9.73565e-06
-1.20535e-06
9.20622e-06
-3.09702e-06
8.83416e-06
-4.7142e-06
8.40418e-06
-6.39492e-06
7.59811e-06
-7.70369e-06
6.27427e-06
-7.89602e-06
4.79497e-06
-6.92372e-06
3.52859e-06
-5.69804e-06
2.52368e-06
-4.84498e-06
1.71371e-06
-4.35021e-06
1.03158e-06
-4.07071e-06
4.30347e-07
-3.9124e-06
-1.20802e-07
-3.82874e-06
-6.42676e-07
-3.79763e-06
-1.14963e-06
-3.80755e-06
-1.65158e-06
-3.85133e-06
-2.15537e-06
-3.92366e-06
-2.66566e-06
-4.02023e-06
-3.18566e-06
-4.13744e-06
-3.71762e-06
-4.27234e-06
-4.26315e-06
-4.42254e-06
-4.8235e-06
-4.58612e-06
-5.39969e-06
-4.76161e-06
-5.9926e-06
-4.94785e-06
-6.60305e-06
-5.1439e-06
-7.23181e-06
-5.34902e-06
-7.87966e-06
-5.56259e-06
-8.54735e-06
-5.78402e-06
-9.23566e-06
-6.01276e-06
-9.94534e-06
-6.2482e-06
-1.06772e-05
-6.48964e-06
-1.14318e-05
-6.73629e-06
-1.221e-05
-6.98717e-06
-1.30122e-05
-7.24116e-06
-1.38389e-05
-7.49688e-06
-1.46905e-05
-7.75279e-06
-1.55668e-05
-8.00692e-06
-1.6468e-05
-8.2583e-06
-8.49549e-06
-1.73907e-05
1.01791e-05
2.03836e-06
9.79093e-06
-8.17134e-07
9.36918e-06
-2.67527e-06
8.90559e-06
-4.25061e-06
8.2371e-06
-5.72643e-06
7.14527e-06
-6.61186e-06
5.68027e-06
-6.43102e-06
4.24552e-06
-5.48897e-06
3.08533e-06
-4.53785e-06
2.18199e-06
-3.94163e-06
1.45268e-06
-3.62091e-06
8.31572e-07
-3.4496e-06
2.77615e-07
-3.35844e-06
-2.34822e-07
-3.3163e-06
-7.22925e-07
-3.30953e-06
-1.19876e-06
-3.33172e-06
-1.67095e-06
-3.37914e-06
-2.14569e-06
-3.44893e-06
-2.62737e-06
-3.53855e-06
-3.11915e-06
-3.64566e-06
-3.62331e-06
-3.76818e-06
-4.14156e-06
-3.90429e-06
-4.67522e-06
-4.05246e-06
-5.22537e-06
-4.21146e-06
-5.79295e-06
-4.38026e-06
-6.37882e-06
-4.55803e-06
-6.98377e-06
-4.74407e-06
-7.60859e-06
-4.93777e-06
-8.25403e-06
-5.13858e-06
-8.92086e-06
-5.34594e-06
-9.60981e-06
-5.55925e-06
-1.03216e-05
-5.77786e-06
-1.10569e-05
-6.001e-06
-1.18163e-05
-6.22778e-06
-1.26003e-05
-6.45715e-06
-1.34093e-05
-6.68789e-06
-1.42434e-05
-6.91864e-06
-1.51027e-05
-7.14767e-06
-1.59869e-05
-7.37403e-06
-7.58897e-06
-1.68935e-05
9.6893e-06
1.88965e-06
9.46944e-06
-5.97281e-07
9.04125e-06
-2.24708e-06
8.46314e-06
-3.67251e-06
7.57231e-06
-4.83559e-06
6.30026e-06
-5.33981e-06
4.86832e-06
-4.99907e-06
3.5875e-06
-4.20816e-06
2.59538e-06
-3.54572e-06
1.82726e-06
-3.17351e-06
1.19457e-06
-2.98822e-06
6.42775e-07
-2.89781e-06
1.4116e-07
-2.85683e-06
-3.29251e-07
-2.84589e-06
-7.81404e-07
-2.85737e-06
-1.22471e-06
-2.88842e-06
-1.66618e-06
-2.93766e-06
-2.1111e-06
-3.00401e-06
-2.5634e-06
-3.08624e-06
-3.02605e-06
-3.18301e-06
-3.50127e-06
-3.29296e-06
-3.99078e-06
-3.41478e-06
-4.49592e-06
-3.54732e-06
-5.01784e-06
-3.68954e-06
-5.55751e-06
-3.84059e-06
-6.1158e-06
-3.99974e-06
-6.69355e-06
-4.16633e-06
-7.29152e-06
-4.3398e-06
-7.91047e-06
-4.51962e-06
-8.55115e-06
-4.70526e-06
-9.21427e-06
-4.89614e-06
-9.90048e-06
-5.09164e-06
-1.06104e-05
-5.29106e-06
-1.13446e-05
-5.49358e-06
-1.21035e-05
-5.69826e-06
-1.28874e-05
-5.904e-06
-1.36964e-05
-6.10963e-06
-1.45304e-05
-6.31368e-06
-1.53892e-05
-6.51523e-06
-6.70763e-06
-1.62705e-05
8.9765e-06
1.79576e-06
8.69673e-06
-3.17512e-07
8.19754e-06
-1.74789e-06
7.46641e-06
-2.94138e-06
6.44051e-06
-3.80969e-06
5.19217e-06
-4.09147e-06
3.92972e-06
-3.73662e-06
2.89235e-06
-3.17079e-06
2.109e-06
-2.76237e-06
1.48581e-06
-2.55032e-06
9.51915e-07
-2.45433e-06
4.7085e-07
-2.41674e-06
2.29025e-08
-2.40888e-06
-4.04264e-07
-2.41872e-06
-8.19439e-07
-2.4422e-06
-1.2294e-06
-2.47846e-06
-1.63952e-06
-2.52754e-06
-2.05407e-06
-2.58946e-06
-2.47643e-06
-2.66388e-06
-2.90925e-06
-2.75019e-06
-3.35462e-06
-2.84759e-06
-3.81421e-06
-2.9552e-06
-4.28937e-06
-3.07215e-06
-4.78125e-06
-3.19766e-06
-5.29085e-06
-3.331e-06
-5.81906e-06
-3.47153e-06
-6.3667e-06
-3.61868e-06
-6.93457e-06
-3.77194e-06
-7.52339e-06
-3.9308e-06
-8.13388e-06
-4.09476e-06
-8.76671e-06
-4.2633e-06
-9.42252e-06
-4.43584e-06
-1.01019e-05
-4.61172e-06
-1.08052e-05
-4.79022e-06
-1.1533e-05
-4.9705e-06
-1.22854e-05
-5.15162e-06
-1.30624e-05
-5.33256e-06
-1.3864e-05
-5.51208e-06
-1.46899e-05
-5.68934e-06
-5.85933e-06
-1.55382e-05
7.84392e-06
2.17648e-06
7.33881e-06
1.876e-07
6.78385e-06
-1.19293e-06
6.02961e-06
-2.18715e-06
5.06151e-06
-2.84158e-06
3.99095e-06
-3.02091e-06
3.01278e-06
-2.75845e-06
2.25656e-06
-2.41457e-06
1.67216e-06
-2.17797e-06
1.17935e-06
-2.05751e-06
7.3555e-07
-2.01052e-06
3.20859e-07
-2.00205e-06
-7.53058e-08
-2.01272e-06
-4.59842e-07
-2.03419e-06
-8.38071e-07
-2.06397e-06
-1.21448e-06
-2.10205e-06
-1.59295e-06
-2.14908e-06
-1.97678e-06
-2.20563e-06
-2.36876e-06
-2.2719e-06
-2.77119e-06
-2.34776e-06
-3.18597e-06
-2.43281e-06
-3.61469e-06
-2.52648e-06
-4.05865e-06
-2.62819e-06
-4.519e-06
-2.73731e-06
-4.99672e-06
-2.85327e-06
-5.49271e-06
-2.97553e-06
-6.0078e-06
-3.10359e-06
-6.54275e-06
-3.23699e-06
-7.09829e-06
-3.37527e-06
-7.67509e-06
-3.51796e-06
-8.27379e-06
-3.6646e-06
-8.89497e-06
-3.81466e-06
-9.53915e-06
-3.96754e-06
-1.02068e-05
-4.12261e-06
-1.08981e-05
-4.27915e-06
-1.16134e-05
-4.43636e-06
-1.23526e-05
-4.59335e-06
-1.31155e-05
-4.74911e-06
-1.3902e-05
-4.90287e-06
-5.05092e-06
-1.47104e-05
4.88023e-06
5.14475e-07
5.22554e-06
-1.57707e-07
5.00125e-06
-9.68642e-07
4.4547e-06
-1.6406e-06
3.71224e-06
-2.09912e-06
2.92819e-06
-2.23686e-06
2.26125e-06
-2.09151e-06
1.74239e-06
-1.89572e-06
1.31062e-06
-1.7462e-06
9.20735e-07
-1.66763e-06
5.52232e-07
-1.64202e-06
1.9609e-07
-1.64591e-06
-1.52316e-07
-1.66431e-06
-4.96175e-07
-1.69033e-06
-8.38307e-07
-1.72184e-06
-1.18145e-06
-1.7589e-06
-1.52825e-06
-1.80228e-06
-1.88118e-06
-1.8527e-06
-2.24247e-06
-1.91062e-06
-2.61406e-06
-1.97617e-06
-2.99765e-06
-2.04922e-06
-3.39469e-06
-2.12945e-06
-3.80643e-06
-2.21645e-06
-4.23397e-06
-2.30977e-06
-4.67828e-06
-2.40896e-06
-5.14024e-06
-2.51357e-06
-5.62066e-06
-2.62317e-06
-6.12029e-06
-2.73737e-06
-6.63981e-06
-2.85574e-06
-7.17989e-06
-2.97789e-06
-7.7411e-06
-3.10339e-06
-8.32399e-06
-3.23176e-06
-8.92903e-06
-3.3625e-06
-9.55659e-06
-3.49506e-06
-1.02069e-05
-3.62882e-06
-1.08802e-05
-3.7631e-06
-1.15764e-05
-3.89717e-06
-1.22953e-05
-4.03019e-06
-1.30366e-05
-4.16151e-06
-4.28837e-06