/*--------------------------------*- C++ -*----------------------------------*\
| =========                 |                                                 |
| \\      /  F ield         | OpenFOAM: The Open Source CFD Toolbox           |
|  \\    /   O peration     | Version:  2.3.0                                 |
|   \\  /    A nd           | Web:      www.OpenFOAM.org                      |
|    \\/     M anipulation  |                                                 |
\*---------------------------------------------------------------------------*/
FoamFile
{
    version     2.0;
    format      ascii;
    class       volScalarField;
    location    "10000";
    object      Ux;
}
// * * * * * * * * * * * * * * * * * * * * * * * * * * * * * * * * * * * * * //

dimensions      [0 1 -1 0 0 0 0];

internalField   nonuniform List<scalar> 
26600
(
9.87237
9.41771
9.41528
9.51293
9.69379
9.94623
10.2236
10.5098
10.7816
11.037
11.2689
11.4759
11.6557
11.811
11.9422
12.0529
12.1451
12.2217
12.2852
12.3368
12.378
12.4101
12.4326
12.4472
12.4533
12.4523
12.4475
12.4269
12.411
12.3683
12.3358
12.277
12.2207
12.1551
12.079
11.9942
11.8954
11.7831
11.6539
11.5233
10.0082
9.62918
9.63703
9.758
9.91204
10.1138
10.3498
10.6024
10.8579
11.104
11.3322
11.5403
11.7252
11.8885
12.0294
12.1506
12.2528
12.3373
12.4049
12.4576
12.4948
12.5185
12.5268
12.5221
12.5006
12.4634
12.4073
12.3362
12.2468
12.1461
12.028
11.9056
11.7628
11.6279
11.4648
11.3341
11.1486
11.0465
10.803
10.9359
9.98859
9.56089
9.56012
9.68537
9.84115
10.0308
10.244
10.4712
10.7014
10.9264
11.1375
11.3309
11.5033
11.6545
11.7831
11.8908
11.977
12.0421
12.0856
12.1072
12.1047
12.0785
12.0267
11.9509
11.8505
11.7298
11.5898
11.4373
11.2727
11.1041
10.929
10.7578
10.5801
10.4148
10.2362
10.0893
9.90053
9.79662
9.53861
9.65212
10.0201
9.63869
9.60357
9.6727
9.78907
9.95091
10.1408
10.3463
10.5555
10.7618
10.9561
11.1341
11.2916
11.4265
11.5359
11.6188
11.6721
11.6931
11.6788
11.6269
11.5347
11.4051
11.2412
11.0495
10.8378
10.6143
10.3851
10.158
9.93432
9.72062
9.51446
9.32164
9.13448
8.96451
8.79363
8.65118
8.48355
8.38892
8.16606
8.28268
10.014
9.66815
9.60481
9.63236
9.71806
9.85371
10.0212
10.2069
10.3979
10.587
10.7643
10.9237
11.0598
11.1654
11.2345
11.2581
11.2297
11.1408
10.9906
10.7825
10.5265
10.2387
9.93578
9.63003
9.33163
9.04792
8.78162
8.53341
8.30285
8.09118
7.89465
7.71544
7.54764
7.39715
7.25143
7.12896
6.99374
6.9136
6.73619
6.85501
10.0077
9.67892
9.59462
9.5861
9.64396
9.75331
9.89783
10.0633
10.2367
10.4082
10.5665
10.6988
10.7958
10.8353
10.8045
10.6782
10.4591
10.1463
9.77165
9.36422
8.95233
8.55698
8.18947
7.85121
7.54517
7.26944
7.02033
6.79618
6.59479
6.41389
6.25008
6.10302
5.96847
5.84876
5.7366
5.64179
5.54268
5.4822
5.35159
5.46599
9.96076
9.67481
9.57046
9.53629
9.5687
9.65256
9.77415
9.91884
10.0749
10.2251
10.3548
10.4315
10.4285
10.2916
10.0104
9.57604
9.05901
8.49969
7.9609
7.46627
7.02198
6.63161
6.28949
5.99029
5.72949
5.50084
5.3006
5.12452
4.96894
4.83158
4.70948
4.6015
4.50479
4.41972
4.34209
4.27707
4.21156
4.17262
4.08364
4.19201
9.92497
9.6673
9.54119
9.48627
9.49491
9.55426
9.65382
9.77753
9.91464
10.0309
10.0906
10.011
9.72055
9.18713
8.49969
7.75561
7.06234
6.43929
5.9076
5.45745
5.07797
4.7613
4.49433
4.2686
4.07628
3.91137
3.76891
3.64526
3.53729
3.44302
3.36045
3.2885
3.22542
3.171
3.12281
3.08368
3.04562
3.02535
2.97031
3.07062
9.90499
9.65366
9.51103
9.43652
9.4233
9.46005
9.53904
9.64205
9.74858
9.77421
9.60662
9.0807
8.23378
7.27085
6.3567
5.57304
4.92384
4.39859
3.982
3.64848
3.38006
3.16065
2.97949
2.82823
2.70049
2.59208
2.49947
2.42003
2.3515
2.29239
2.24146
2.19795
2.1608
2.12984
2.10369
2.08394
2.06578
2.05966
2.02836
2.11891
9.89112
9.63425
9.47779
9.38581
9.35378
9.37038
9.43146
9.50649
9.51487
9.22295
8.42044
7.20677
6.00176
4.97361
4.15162
3.53114
3.0633
2.71383
2.44546
2.23493
2.06646
1.92928
1.81593
1.72122
1.6412
1.57325
1.51541
1.46625
1.42438
1.38885
1.35891
1.33408
1.31377
1.29783
1.28552
1.27776
1.27167
1.27396
1.2576
1.33638
9.87805
9.60831
9.43907
9.33304
9.28561
9.28689
9.32734
9.30896
8.91935
7.78952
6.21202
4.80251
3.70486
2.91283
2.37471
2.00955
1.74344
1.54332
1.38644
1.26003
1.15612
1.06942
0.99618
0.933993
0.880785
0.835142
0.796105
0.762938
0.734909
0.711447
0.692096
0.676533
0.664392
0.655545
0.649577
0.646989
0.646053
0.651135
0.642526
0.707932
9.86447
9.5745
9.39466
9.27797
9.22031
9.21012
9.17695
8.71332
7.30375
5.36109
3.7544
2.64558
1.9789
1.57108
1.29783
1.10156
0.952875
0.83339
0.733273
0.647641
0.573781
0.509326
0.452955
0.403737
0.360722
0.323183
0.290614
0.262599
0.238717
0.218593
0.201903
0.188392
0.17779
0.169955
0.164609
0.162005
0.161073
0.164675
0.158483
0.208715
9.84873
9.53323
9.34572
9.22412
9.16241
9.11089
8.63956
7.06982
4.69155
2.9058
1.96035
1.45309
1.1453
0.931635
0.767742
0.635994
0.526569
0.432808
0.350425
0.27708
0.211479
0.152464
0.0995148
0.0521875
0.00998101
-0.0275427
-0.0607254
-0.0898685
-0.115279
-0.13725
-0.156055
-0.171931
-0.185113
-0.195767
-0.204112
-0.210049
-0.214271
-0.214942
-0.222206
-0.187666
9.83286
9.48681
9.29858
9.17901
9.10552
8.67151
7.11321
4.21397
2.33771
1.53752
1.18091
0.962143
0.787287
0.638902
0.509348
0.394373
0.292578
0.202108
0.12083
0.0473265
-0.0193722
-0.080074
-0.135276
-0.185359
-0.23071
-0.271679
-0.308563
-0.341632
-0.371154
-0.397394
-0.420603
-0.441015
-0.458852
-0.474297
-0.487546
-0.498595
-0.50793
-0.514408
-0.525277
-0.504666
9.82386
9.44277
9.263
9.15561
8.78338
7.31014
4.03477
1.95152
1.27033
1.06037
0.907751
0.758948
0.618941
0.486909
0.364762
0.252514
0.150226
0.0574386
-0.0269657
-0.103954
-0.17433
-0.238809
-0.297932
-0.352125
-0.401768
-0.447201
-0.488715
-0.526575
-0.561039
-0.592358
-0.620775
-0.646516
-0.6698
-0.690814
-0.709748
-0.726656
-0.741909
-0.754814
-0.770703
-0.762209
9.83378
9.41227
9.26046
8.96251
7.59679
4.21225
1.7315
1.07435
0.989098
0.917133
0.792751
0.656928
0.520681
0.390967
0.269605
0.156918
0.0529657
-0.0424696
-0.130083
-0.210601
-0.284699
-0.353019
-0.416106
-0.474413
-0.528333
-0.578208
-0.624335
-0.666981
-0.706401
-0.742836
-0.776521
-0.807677
-0.836517
-0.863229
-0.887996
-0.910908
-0.932268
-0.951666
-0.973091
-0.975368
9.87818
9.41296
9.17341
7.94113
4.61107
1.6425
0.865237
0.891521
0.93186
0.872999
0.736243
0.593112
0.452669
0.320969
0.198553
0.0849687
-0.0202369
-0.117511
-0.207463
-0.290707
-0.367831
-0.439406
-0.505947
-0.567906
-0.625676
-0.679599
-0.729972
-0.777065
-0.821125
-0.862388
-0.901082
-0.937421
-0.971607
-1.00383
-1.03425
-1.063
-1.09032
-1.11599
-1.14303
-1.15476
10.0057
9.42852
8.27721
5.08055
1.71942
0.768431
0.833193
0.988945
0.979022
0.868666
0.705943
0.548142
0.400194
0.264904
0.140879
0.0264931
-0.0794389
-0.177744
-0.269134
-0.35423
-0.43358
-0.507698
-0.577061
-0.642098
-0.703187
-0.760663
-0.814817
-0.865913
-0.914193
-0.959887
-1.00321
-1.04437
-1.08356
-1.12095
-1.15672
-1.19098
-1.22395
-1.25551
-1.28801
-1.30803
10.1443
8.61249
5.40546
1.91558
0.846337
0.85371
1.10946
1.14992
1.07019
0.881789
0.689114
0.513562
0.356862
0.217353
0.0915375
-0.0235083
-0.129762
-0.228504
-0.320642
-0.406868
-0.487743
-0.563753
-0.635338
-0.702897
-0.766786
-0.827324
-0.884791
-0.939442
-0.99151
-1.04121
-1.08876
-1.13434
-1.17814
-1.22032
-1.26105
-1.30044
-1.33868
-1.37569
-1.41335
-1.44069
9.45856
5.06101
1.95723
1.05095
1.1001
1.3128
1.41554
1.34897
1.16724
0.902053
0.677902
0.484463
0.319079
0.175434
0.0478907
-0.0676713
-0.173976
-0.272759
-0.365163
-0.45199
-0.533842
-0.611206
-0.684498
-0.754089
-0.820313
-0.883466
-0.943814
-1.0016
-1.05704
-1.11035
-1.16171
-1.21132
-1.25933
-1.30591
-1.3512
-1.39531
-1.4384
-1.48043
-1.52288
-1.5567
4.33332
2.12971
1.49786
1.63652
1.72915
1.77925
1.72873
1.57076
1.2347
0.917985
0.665244
0.456994
0.284414
0.137326
0.00838787
-0.107495
-0.213656
-0.312224
-0.404577
-0.491639
-0.574069
-0.652369
-0.726951
-0.798166
-0.866322
-0.931696
-0.994539
-1.05507
-1.11351
-1.17004
-1.22485
-1.2781
-1.32995
-1.38054
-1.43
-1.47842
-1.52595
-1.57255
-1.6194
-1.65898
4.46744
3.3702
2.75932
2.49806
2.31467
2.22829
2.04626
1.71571
1.26423
0.917805
0.645721
0.42814
0.250967
0.101723
-0.0279967
-0.143906
-0.249745
-0.347932
-0.440032
-0.527086
-0.609814
-0.688745
-0.764292
-0.836795
-0.906547
-0.973806
-1.0388
-1.10175
-1.16284
-1.22225
-1.28015
-1.33668
-1.392
-1.44623
-1.49948
-1.55183
-1.60339
-1.65413
-1.705
-1.74971
4.59095
3.89417
3.30555
2.9693
2.74794
2.58102
2.25056
1.74912
1.26141
0.89706
0.616483
0.395854
0.217332
0.0676606
-0.0619903
-0.177524
-0.282847
-0.380524
-0.472246
-0.559139
-0.641979
-0.721321
-0.797588
-0.871116
-0.942187
-1.01104
-1.0779
-1.14296
-1.20639
-1.26837
-1.32903
-1.38853
-1.44698
-1.50449
-1.56117
-1.61707
-1.67228
-1.72677
-1.78128
-1.83055
4.69563
4.20343
3.70482
3.36369
3.11806
2.79616
2.32461
1.72279
1.22171
0.855099
0.576536
0.359084
0.182723
0.0345101
-0.0940938
-0.208777
-0.313362
-0.41042
-0.501682
-0.588322
-0.671154
-0.750757
-0.827565
-0.901914
-0.974079
-1.04429
-1.11276
-1.17967
-1.24517
-1.30942
-1.37256
-1.43471
-1.49597
-1.55645
-1.61621
-1.67532
-1.73382
-1.79168
-1.84949
-1.90281
4.76108
4.43239
4.01138
3.65674
3.29988
2.86942
2.26213
1.62998
1.14357
0.791892
0.526498
0.317892
0.14695
0.00198924
-0.124603
-0.237946
-0.341565
-0.437901
-0.528648
-0.614983
-0.697735
-0.777499
-0.854719
-0.929733
-1.00282
-1.07419
-1.14405
-1.21258
-1.27991
-1.34618
-1.41152
-1.47604
-1.53983
-1.60296
-1.6655
-1.72748
-1.78894
-1.84982
-1.91059
-1.96753
4.79413
4.5586
4.15662
3.7495
3.31997
2.74946
2.08503
1.47472
1.03061
0.711966
0.468812
0.273481
0.11044
-0.0298464
-0.15362
-0.265194
-0.367638
-0.463163
-0.553357
-0.639359
-0.721991
-0.801855
-0.879396
-0.95496
-1.02882
-1.10119
-1.17226
-1.2422
-1.31114
-1.37921
-1.44651
-1.51315
-1.57919
-1.6447
-1.70972
-1.77427
-1.83837
-1.90195
-1.96539
-2.02554
4.81929
4.49641
4.07214
3.62155
3.08548
2.46344
1.8123
1.2724
0.898453
0.62417
0.407419
0.227775
0.0740543
-0.0606721
-0.181086
-0.290578
-0.391692
-0.48634
-0.575959
-0.661619
-0.744115
-0.824039
-0.901842
-0.977867
-1.05239
-1.12562
-1.19775
-1.26893
-1.33929
-1.40895
-1.47799
-1.5465
-1.61455
-1.68218
-1.74941
-1.81626
-1.88272
-1.94872
-2.01452
-2.07754
4.71297
4.0943
3.67347
3.20433
2.65635
2.05989
1.49002
1.06378
0.767317
0.53741
0.346843
0.182984
0.0388484
-0.0900213
-0.206835
-0.314089
-0.413786
-0.507525
-0.596566
-0.681888
-0.764243
-0.84421
-0.922231
-0.998653
-1.07375
-1.14773
-1.22079
-1.29306
-1.36467
-1.43572
-1.50631
-1.57649
-1.64631
-1.71582
-1.78503
-1.85391
-1.92247
-1.99061
-2.05854
-2.12409
2.93353
3.05545
2.92516
2.58863
2.12998
1.63412
1.19741
0.885819
0.652499
0.459109
0.290946
0.141127
0.00586097
-0.117395
-0.230661
-0.335673
-0.433947
-0.526783
-0.61526
-0.70026
-0.782482
-0.862482
-0.940695
-1.01746
-1.09306
-1.1677
-1.24157
-1.31479
-1.38751
-1.45979
-1.53174
-1.60339
-1.67479
-1.74597
-1.81691
-1.8876
-1.95802
-2.02807
-2.09788
-2.16567
2.08435
2.31647
2.27505
2.05088
1.69035
1.30723
0.991726
0.755024
0.561716
0.393666
0.242275
0.103685
-0.0240757
-0.142358
-0.252368
-0.355269
-0.452188
-0.544162
-0.63211
-0.716811
-0.798915
-0.878947
-0.957332
-1.03441
-1.11045
-1.18567
-1.26024
-1.33431
-1.40799
-1.48136
-1.5545
-1.62745
-1.70024
-1.77288
-1.84536
-1.91765
-1.9897
-2.06143
-2.13291
-2.20269
1.96084
1.93192
1.84346
1.66202
1.3903
1.10876
0.868451
0.667336
0.495194
0.342139
0.201865
0.0714472
-0.0504394
-0.164609
-0.271807
-0.37283
-0.468519
-0.559706
-0.647171
-0.731607
-0.81361
-0.893678
-0.972221
-1.04957
-1.12601
-1.20173
-1.27693
-1.35174
-1.42626
-1.50058
-1.57476
-1.64885
-1.72285
-1.79678
-1.8706
-1.94429
-2.01778
-2.09099
-2.16395
-2.23547
2.0001
1.82019
1.64808
1.46529
1.24236
1.01618
0.802346
0.612746
0.449105
0.30339
0.169596
0.0445949
-0.0730248
-0.184
-0.288904
-0.388337
-0.482958
-0.573455
-0.660498
-0.744705
-0.826627
-0.906735
-0.985425
-1.06303
-1.13981
-1.21598
-1.29173
-1.36718
-1.44243
-1.51758
-1.59267
-1.66774
-1.7428
-1.81785
-1.89284
-1.96775
-2.0425
-2.117
-2.19125
-2.26431
2.02674
1.84033
1.62317
1.41589
1.2013
0.984121
0.771302
0.581365
0.41876
0.275375
0.14468
0.0228785
-0.0918803
-0.200525
-0.303653
-0.401803
-0.495539
-0.585454
-0.672139
-0.756157
-0.838018
-0.91817
-0.996998
-1.07482
-1.15191
-1.22848
-1.3047
-1.3807
-1.4566
-1.53245
-1.60833
-1.68425
-1.76022
-1.83623
-1.91224
-1.98819
-2.06403
-2.13966
-2.21503
-2.28942
2.03916
1.87296
1.66222
1.44231
1.21192
0.981355
0.760471
0.565254
0.399914
0.255899
0.12604
0.00579895
-0.107228
-0.214286
-0.316112
-0.413274
-0.506305
-0.595748
-0.682143
-0.76601
-0.847829
-0.928029
-1.00698
-1.08501
-1.16236
-1.23927
-1.3159
-1.39238
-1.46881
-1.54528
-1.62183
-1.69847
-1.77522
-1.85204
-1.92892
-2.00577
-2.08254
-2.15913
-2.23547
-2.31101
2.04489
1.90046
1.70124
1.47954
1.23522
0.990511
0.760368
0.558682
0.389125
0.24295
0.112547
-0.00725424
-0.119389
-0.225455
-0.326382
-0.422817
-0.515311
-0.604387
-0.690555
-0.774307
-0.856101
-0.936351
-1.01542
-1.09362
-1.1712
-1.2484
-1.32537
-1.40225
-1.47914
-1.55612
-1.63323
-1.71048
-1.78787
-1.86539
-1.94298
-2.0206
-2.09816
-2.17556
-2.25272
-2.32922
2.04768
1.92154
1.7335
1.51176
1.25826
1.00332
0.765361
0.557716
0.383731
0.234811
0.103142
-0.0169065
-0.128721
-0.234236
-0.334582
-0.430512
-0.522616
-0.611418
-0.697417
-0.781087
-0.862869
-0.943165
-1.02233
-1.10068
-1.17846
-1.25589
-1.33315
-1.41036
-1.48762
-1.56502
-1.64258
-1.72033
-1.79826
-1.87634
-1.95452
-2.03276
-2.11096
-2.18904
-2.26688
-2.34419
2.04824
1.93721
1.75859
1.53737
1.27813
1.01633
0.772385
0.55977
0.381765
0.230101
0.0969216
-0.0237168
-0.135558
-0.240823
-0.340826
-0.436427
-0.528263
-0.616874
-0.702754
-0.786368
-0.868147
-0.948486
-1.02774
-1.1062
-1.18414
-1.26176
-1.33924
-1.41671
-1.49427
-1.572
-1.64992
-1.72806
-1.80641
-1.88493
-1.96359
-2.04232
-2.12104
-2.19965
-2.27805
-2.35601
2.04564
1.94959
1.77771
1.55802
1.29554
1.02881
0.780043
0.563293
0.381883
0.227814
0.0932093
-0.0281047
-0.140139
-0.24534
-0.345173
-0.440583
-0.532257
-0.620749
-0.706556
-0.790138
-0.871923
-0.952297
-1.03161
-1.11016
-1.18822
-1.26598
-1.34363
-1.4213
-1.49908
-1.57705
-1.65524
-1.73367
-1.81233
-1.89119
-1.9702
-2.04929
-2.1284
-2.20741
-2.28621
-2.36464
2.04309
1.9584
1.79234
1.57655
1.31296
1.04148
0.787802
0.567278
0.383085
0.227159
0.0914613
-0.0304071
-0.142657
-0.247887
-0.347667
-0.443001
-0.534603
-0.623043
-0.70882
-0.792394
-0.874189
-0.954592
-1.03395
-1.11257
-1.1907
-1.26856
-1.34632
-1.42411
-1.50205
-1.58018
-1.65856
-1.73718
-1.81606
-1.89515
-1.9744
-2.05375
-2.13311
-2.21238
-2.2914
-2.37009
2.04274
1.96559
1.80348
1.59254
1.32875
1.05199
0.793255
0.569593
0.383662
0.226861
0.0907617
-0.0312706
-0.14357
-0.248803
-0.34857
-0.443887
-0.535474
-0.623902
-0.709671
-0.79324
-0.875034
-0.955442
-1.03481
-1.11344
-1.1916
-1.2695
-1.34731
-1.42516
-1.50316
-1.58138
-1.65985
-1.73858
-1.81757
-1.89677
-1.97615
-2.05564
-2.13515
-2.21462
-2.29398
-2.37308
1.93226
2.06576
2.10474
2.11894
2.1261
2.12992
2.13195
2.13293
2.13327
2.13321
2.13289
2.13243
2.13188
2.13128
2.13068
2.13007
2.12949
2.12894
2.12842
2.12794
2.1275
2.12709
2.12671
2.12637
2.12607
2.12579
2.12553
2.1253
2.12509
2.1249
2.12472
2.12456
2.12441
2.12426
2.12411
2.12395
2.12375
2.1234
2.12241
2.12015
1.85988
2.02473
2.07804
2.10294
2.11643
2.12449
2.12962
2.13301
2.13531
2.1369
2.13801
2.13878
2.13933
2.13971
2.13998
2.14017
2.14031
2.14041
2.14048
2.14054
2.14059
2.14063
2.14067
2.14071
2.14074
2.14078
2.14081
2.14083
2.14086
2.14088
2.14089
2.1409
2.1409
2.14089
2.14086
2.14081
2.14073
2.14056
2.14021
2.13959
1.83931
2.00832
2.06393
2.09101
2.10734
2.11814
2.12567
2.13113
2.13521
2.13834
2.14079
2.14276
2.14436
2.1457
2.14682
2.14779
2.14864
2.14938
2.15004
2.15064
2.15118
2.15167
2.15212
2.15253
2.15291
2.15325
2.15356
2.15385
2.1541
2.15433
2.15453
2.1547
2.15485
2.15496
2.15505
2.15509
2.15508
2.15501
2.15488
2.15478
1.80759
1.9837
2.04599
2.07784
2.09754
2.11103
2.12084
2.12828
2.13408
2.13872
2.14252
2.14568
2.14835
2.15065
2.15264
2.15439
2.15595
2.15734
2.1586
2.15973
2.16076
2.16171
2.16257
2.16335
2.16407
2.16472
2.16532
2.16586
2.16635
2.16678
2.16717
2.16751
2.1678
2.16805
2.16824
2.16839
2.16849
2.16854
2.16857
2.16868
1.79292
1.96925
2.03242
2.06628
2.08823
2.10387
2.11563
2.12483
2.13222
2.1383
2.14339
2.14772
2.15145
2.15471
2.15758
2.16014
2.16242
2.16448
2.16635
2.16804
2.16958
2.17099
2.17228
2.17346
2.17453
2.17551
2.17641
2.17722
2.17795
2.1786
2.17918
2.1797
2.18014
2.18052
2.18084
2.1811
2.18129
2.18144
2.18158
2.18178
1.77197
1.95249
2.019
2.05528
2.07929
2.0968
2.11029
2.12108
2.12993
2.13735
2.14367
2.14912
2.15389
2.15809
2.16183
2.16518
2.1682
2.17093
2.17341
2.17568
2.17774
2.17963
2.18135
2.18293
2.18438
2.18569
2.18689
2.18798
2.18896
2.18984
2.19063
2.19132
2.19193
2.19245
2.19289
2.19325
2.19355
2.19378
2.19399
2.19423
1.76168
1.94076
2.00781
2.04544
2.07098
2.09003
2.105
2.1172
2.12737
2.13602
2.14349
2.15001
2.15576
2.16088
2.16546
2.16959
2.17333
2.17673
2.17983
2.18266
2.18525
2.18762
2.18979
2.19177
2.19359
2.19525
2.19676
2.19813
2.19937
2.20048
2.20147
2.20235
2.20312
2.20379
2.20435
2.20482
2.20521
2.20551
2.20577
2.20604
1.74643
1.92854
1.99736
2.03637
2.06325
2.0836
2.09986
2.1133
2.12466
2.13444
2.14297
2.15049
2.15718
2.16317
2.16857
2.17346
2.1779
2.18196
2.18566
2.18905
2.19216
2.19501
2.19762
2.20002
2.20221
2.20421
2.20603
2.20769
2.20919
2.21053
2.21174
2.2128
2.21374
2.21455
2.21524
2.21581
2.21628
2.21666
2.21696
2.21724
1.73857
1.91907
1.98827
2.0282
2.05612
2.07757
2.09494
2.10947
2.1219
2.13271
2.14221
2.15066
2.15823
2.16505
2.17123
2.17685
2.18198
2.18666
2.19096
2.1949
2.19852
2.20185
2.2049
2.2077
2.21026
2.21261
2.21474
2.21668
2.21844
2.22002
2.22144
2.22269
2.22379
2.22475
2.22556
2.22624
2.22679
2.22723
2.22758
2.22787
1.72697
1.90963
1.97988
2.0207
2.04953
2.07193
2.09027
2.10576
2.11915
2.13088
2.14129
2.1506
2.159
2.1666
2.17352
2.17983
2.18562
2.19092
2.19579
2.20027
2.20439
2.20818
2.21166
2.21486
2.2178
2.22048
2.22293
2.22515
2.22717
2.22898
2.2306
2.23205
2.23331
2.23441
2.23535
2.23613
2.23676
2.23726
2.23765
2.23795
1.72056
1.90185
1.9724
2.01387
2.04346
2.06667
2.08585
2.1022
2.11644
2.12902
2.14026
2.15037
2.15953
2.16787
2.17549
2.18247
2.18888
2.19478
2.2002
2.2052
2.20981
2.21405
2.21796
2.22155
2.22484
2.22786
2.23061
2.23312
2.23539
2.23744
2.23927
2.2409
2.24232
2.24356
2.24462
2.24551
2.24622
2.24678
2.2472
2.24751
1.71146
1.89424
1.96548
2.00758
2.03784
2.06176
2.08169
2.0988
2.11382
2.12717
2.13916
2.15001
2.15989
2.16892
2.1772
2.18481
2.19182
2.19828
2.20424
2.20975
2.21482
2.21951
2.22383
2.2278
2.23145
2.23479
2.23784
2.24063
2.24315
2.24542
2.24746
2.24927
2.25086
2.25224
2.25342
2.2544
2.25519
2.2558
2.25626
2.25658
1.70601
1.88773
1.95921
2.00179
2.03263
2.05718
2.07777
2.09558
2.11129
2.12534
2.13803
2.14956
2.16011
2.16978
2.17869
2.18689
2.19447
2.20148
2.20795
2.21394
2.21947
2.22458
2.2293
2.23364
2.23764
2.2413
2.24465
2.2477
2.25047
2.25297
2.2552
2.25719
2.25894
2.26046
2.26175
2.26283
2.2637
2.26437
2.26486
2.26519
1.69868
1.88138
1.95336
1.99642
2.02779
2.0529
2.07409
2.09252
2.10886
2.12356
2.13689
2.14906
2.16022
2.17051
2.17999
2.18877
2.19689
2.20441
2.21137
2.21782
2.22379
2.22932
2.23442
2.23912
2.24345
2.24742
2.25106
2.25438
2.25738
2.2601
2.26253
2.2647
2.2666
2.26825
2.26966
2.27083
2.27178
2.2725
2.27303
2.27336
1.69392
1.87581
1.94798
1.99144
2.02327
2.0489
2.07063
2.08962
2.10655
2.12183
2.13575
2.14852
2.16026
2.17111
2.18115
2.19046
2.19909
2.2071
2.21454
2.22143
2.22782
2.23374
2.23921
2.24427
2.24892
2.25319
2.25711
2.26068
2.26392
2.26685
2.26948
2.27181
2.27387
2.27565
2.27717
2.27844
2.27945
2.28023
2.28078
2.28113
1.68787
1.87038
1.94293
1.98678
2.01904
2.04514
2.06736
2.08688
2.10434
2.12017
2.13464
2.14795
2.16025
2.17163
2.18219
2.192
2.20112
2.2096
2.21748
2.2248
2.23159
2.23789
2.24372
2.24911
2.25408
2.25864
2.26283
2.26665
2.27012
2.27325
2.27606
2.27857
2.28077
2.28268
2.28431
2.28566
2.28675
2.28758
2.28816
2.28852
1.68361
1.8655
1.93822
1.98242
2.01507
2.0416
2.06428
2.08428
2.10224
2.11858
2.13357
2.14739
2.16019
2.17207
2.18312
2.19341
2.20299
2.21191
2.22022
2.22795
2.23513
2.24179
2.24797
2.25368
2.25895
2.26379
2.26824
2.2723
2.27599
2.27932
2.28232
2.28498
2.28733
2.28936
2.2911
2.29254
2.29369
2.29457
2.29519
2.29555
1.67848
1.86075
1.93377
1.9783
2.01132
2.03825
2.06137
2.08181
2.10024
2.11706
2.13252
2.14683
2.16011
2.17246
2.18398
2.19472
2.20474
2.21408
2.22279
2.23091
2.23846
2.24547
2.25198
2.258
2.26356
2.26868
2.27337
2.27766
2.28157
2.2851
2.28827
2.29109
2.29357
2.29573
2.29756
2.29909
2.30031
2.30124
2.30188
2.30225
1.67461
1.8564
1.92958
1.9744
2.00778
2.03509
2.05861
2.07947
2.09834
2.1156
2.13152
2.14628
2.16001
2.17282
2.18477
2.19594
2.20637
2.21612
2.22521
2.2337
2.2416
2.24895
2.25577
2.26209
2.26793
2.27331
2.27825
2.28277
2.28688
2.29059
2.29393
2.29691
2.29952
2.3018
2.30373
2.30534
2.30663
2.3076
2.30827
2.30865
1.67016
1.85215
1.92558
1.9707
2.0044
2.03208
2.05598
2.07725
2.09653
2.11421
2.13056
2.14575
2.15991
2.17314
2.18551
2.19708
2.20791
2.21804
2.22751
2.23635
2.24459
2.25226
2.25938
2.26599
2.2721
2.27773
2.2829
2.28764
2.29194
2.29584
2.29934
2.30246
2.30521
2.30759
2.30963
2.31131
2.31266
2.31368
2.31438
2.31477
1.66658
1.84819
1.92177
1.96716
2.00119
2.02921
2.05347
2.07513
2.0948
2.11289
2.12964
2.14524
2.15981
2.17344
2.18621
2.19817
2.20938
2.21987
2.22969
2.23887
2.24743
2.25541
2.26283
2.26971
2.27608
2.28195
2.28735
2.29229
2.29678
2.30086
2.30452
2.30778
2.31065
2.31314
2.31527
2.31703
2.31844
2.3195
2.32023
2.32062
1.66261
1.84431
1.9181
1.96377
1.99811
2.02646
2.05108
2.0731
2.09315
2.11162
2.12877
2.14475
2.15971
2.17373
2.18687
2.19921
2.21078
2.22162
2.23178
2.24128
2.25015
2.25843
2.26612
2.27327
2.27988
2.28599
2.2916
2.29674
2.30142
2.30566
2.30947
2.31287
2.31586
2.31846
2.32068
2.32251
2.32398
2.32509
2.32584
2.32624
1.65925
1.84064
1.91458
1.96051
1.99514
2.02382
2.04878
2.07115
2.09157
2.11041
2.12793
2.14429
2.15962
2.17401
2.18752
2.20021
2.21212
2.2233
2.23378
2.24359
2.25276
2.26132
2.26929
2.27669
2.28354
2.28987
2.29569
2.30102
2.30588
2.31028
2.31424
2.31777
2.32087
2.32357
2.32587
2.32778
2.32931
2.33046
2.33123
2.33164
1.65563
1.83703
1.91117
1.95736
1.99228
2.02128
2.04657
2.06929
2.09005
2.10925
2.12713
2.14386
2.15955
2.17429
2.18814
2.20118
2.21342
2.22493
2.23572
2.24583
2.25528
2.26411
2.27233
2.27998
2.28706
2.2936
2.29962
2.30514
2.31017
2.31473
2.31883
2.32248
2.3257
2.3285
2.33088
2.33286
2.33444
2.33562
2.33642
2.33684
1.65243
1.83356
1.90786
1.9543
1.98951
2.01881
2.04443
2.06749
2.0886
2.10814
2.12637
2.14345
2.15948
2.17457
2.18876
2.20212
2.21469
2.2265
2.23759
2.24799
2.25772
2.26681
2.27528
2.28316
2.29046
2.29721
2.30342
2.30912
2.31431
2.31902
2.32325
2.32703
2.33036
2.33325
2.33571
2.33776
2.33939
2.34061
2.34144
2.34185
1.64905
1.83015
1.90462
1.95132
1.98682
2.01643
2.04237
2.06575
2.08719
2.10708
2.12565
2.14306
2.15944
2.17485
2.18937
2.20305
2.21593
2.22804
2.23942
2.25009
2.26009
2.26943
2.27814
2.28624
2.29376
2.30071
2.3071
2.31297
2.31832
2.32317
2.32754
2.33143
2.33486
2.33785
2.34039
2.34249
2.34417
2.34544
2.34628
2.34671
1.64596
1.82683
1.90146
1.9484
1.98419
2.0141
2.04036
2.06406
2.08584
2.10606
2.12496
2.14271
2.15941
2.17515
2.18998
2.20397
2.21715
2.22955
2.24121
2.25215
2.2624
2.27198
2.28092
2.28924
2.29696
2.3041
2.31068
2.31671
2.32221
2.3272
2.3317
2.3357
2.33923
2.3423
2.34492
2.34709
2.34882
2.35011
2.35098
2.35141
1.64274
1.82355
1.89835
1.94555
1.98162
2.01183
2.0384
2.06242
2.08453
2.10507
2.1243
2.14237
2.1594
2.17545
2.1906
2.20488
2.21835
2.23103
2.24296
2.25416
2.26466
2.27448
2.28364
2.29217
2.30009
2.30741
2.31416
2.32035
2.326
2.33113
2.33574
2.33986
2.34348
2.34664
2.34932
2.35155
2.35333
2.35466
2.35555
2.35598
1.63971
1.82032
1.89529
1.94274
1.97909
2.0096
2.03648
2.06083
2.08325
2.10412
2.12368
2.14207
2.1594
2.17577
2.19121
2.20579
2.21954
2.2325
2.24469
2.25614
2.26688
2.27693
2.28631
2.29504
2.30315
2.31065
2.31756
2.32391
2.3297
2.33495
2.33968
2.3439
2.34763
2.35086
2.35362
2.3559
2.35772
2.35909
2.36
2.36044
1.63659
1.81712
1.89226
1.93996
1.9766
2.00742
2.03461
2.05927
2.08201
2.10321
2.12308
2.14178
2.15943
2.17609
2.19184
2.2067
2.22073
2.23395
2.2464
2.25809
2.26907
2.27933
2.28892
2.29785
2.30615
2.31382
2.3209
2.32739
2.33332
2.3387
2.34354
2.34786
2.35167
2.35499
2.35781
2.36015
2.36201
2.36341
2.36434
2.36479
1.63359
1.81394
1.88926
1.93721
1.97414
2.00526
2.03276
2.05774
2.08081
2.10232
2.1225
2.14152
2.15947
2.17644
2.19247
2.20762
2.22192
2.2354
2.2481
2.26003
2.27123
2.28171
2.2915
2.30063
2.3091
2.31694
2.32417
2.33081
2.33687
2.34237
2.34732
2.35174
2.35564
2.35903
2.36191
2.36431
2.36622
2.36764
2.36859
2.36904
1.63051
1.81077
1.88627
1.93449
1.9717
2.00313
2.03094
2.05624
2.07963
2.10145
2.12196
2.14128
2.15954
2.1768
2.19312
2.20854
2.22311
2.23684
2.24978
2.26195
2.27337
2.28406
2.29405
2.30336
2.31201
2.32001
2.3274
2.33417
2.34036
2.34598
2.35104
2.35555
2.35953
2.36299
2.36594
2.36839
2.37034
2.37179
2.37276
2.37322
1.6275
1.80761
1.8833
1.93177
1.96928
2.00101
2.02915
2.05477
2.07847
2.10062
2.12143
2.14107
2.15962
2.17717
2.19378
2.20947
2.2243
2.23829
2.25147
2.26387
2.2755
2.2864
2.29658
2.30607
2.31489
2.32305
2.33058
2.33749
2.34381
2.34954
2.3547
2.3593
2.36337
2.3669
2.36991
2.3724
2.37439
2.37588
2.37686
2.37733
1.62443
1.80445
1.88032
1.92906
1.96687
1.99892
2.02737
2.05331
2.07733
2.0998
2.12093
2.14087
2.15972
2.17757
2.19445
2.21042
2.2255
2.23974
2.25316
2.26578
2.27762
2.28872
2.2991
2.30876
2.31774
2.32606
2.33373
2.34078
2.34721
2.35305
2.35831
2.36301
2.36715
2.37075
2.37382
2.37636
2.37839
2.3799
2.3809
2.38137
1.62138
1.80127
1.87734
1.92635
1.96446
1.99683
2.0256
2.05187
2.07621
2.099
2.12044
2.14069
2.15985
2.17798
2.19514
2.21138
2.22672
2.2412
2.25485
2.26769
2.27975
2.29104
2.3016
2.31144
2.32058
2.32905
2.33686
2.34403
2.35058
2.35653
2.36189
2.36667
2.37089
2.37456
2.37768
2.38027
2.38233
2.38388
2.38489
2.38537
1.61828
1.79808
1.87434
1.92364
1.96206
1.99474
2.02384
2.05044
2.07511
2.09822
2.11998
2.14054
2.15999
2.17841
2.19585
2.21235
2.22795
2.24267
2.25655
2.26961
2.28187
2.29336
2.3041
2.31411
2.32341
2.33202
2.33997
2.34727
2.35393
2.35999
2.36544
2.3703
2.3746
2.37833
2.38151
2.38414
2.38624
2.38781
2.38885
2.38933
1.61517
1.79486
1.87133
1.92091
1.95965
1.99266
2.02209
2.04902
2.07402
2.09745
2.11953
2.1404
2.16015
2.17886
2.19658
2.21334
2.22919
2.24416
2.25826
2.27154
2.284
2.29568
2.3066
2.31677
2.32623
2.33499
2.34307
2.35049
2.35727
2.36342
2.36896
2.37391
2.37828
2.38207
2.3853
2.38798
2.39012
2.39171
2.39276
2.39325
1.61199
1.79161
1.8683
1.91817
1.95723
1.99057
2.02034
2.0476
2.07294
2.0967
2.1191
2.14028
2.16034
2.17933
2.19733
2.21436
2.23046
2.24566
2.25999
2.27348
2.28614
2.29801
2.3091
2.31944
2.32905
2.33795
2.34616
2.3537
2.36059
2.36684
2.37247
2.3775
2.38194
2.38579
2.38908
2.3918
2.39397
2.39559
2.39666
2.39715
1.6088
1.78832
1.86524
1.91541
1.95479
1.98847
2.01859
2.04619
2.07187
2.09597
2.11869
2.14018
2.16054
2.17983
2.1981
2.21539
2.23174
2.24718
2.26174
2.27544
2.2883
2.30035
2.31161
2.32212
2.33188
2.34091
2.34925
2.35691
2.36391
2.37026
2.37598
2.38108
2.38559
2.3895
2.39284
2.39561
2.39781
2.39945
2.40054
2.40103
1.60553
1.78499
1.86214
1.91262
1.95234
1.98637
2.01683
2.04479
2.07081
2.09524
2.11829
2.1401
2.16076
2.18034
2.19889
2.21645
2.23305
2.24873
2.26351
2.27741
2.29047
2.30271
2.31414
2.3248
2.33471
2.34389
2.35235
2.36012
2.36722
2.37367
2.37948
2.38466
2.38923
2.39321
2.39659
2.3994
2.40164
2.4033
2.4044
2.40491
1.60223
1.78162
1.85901
1.90981
1.94987
1.98425
2.01507
2.04338
2.06975
2.09453
2.11791
2.14004
2.16101
2.18088
2.19971
2.21753
2.23439
2.2503
2.2653
2.27941
2.29267
2.30508
2.31669
2.32751
2.33756
2.34687
2.35546
2.36335
2.37055
2.37709
2.38298
2.38824
2.39288
2.39691
2.40035
2.40319
2.40546
2.40715
2.40827
2.40877
1.59885
1.7782
1.85584
1.90696
1.94737
1.98211
2.0133
2.04197
2.0687
2.09382
2.11754
2.13999
2.16127
2.18144
2.20055
2.21864
2.23574
2.25189
2.26712
2.28144
2.29489
2.30748
2.31926
2.33023
2.34043
2.34987
2.35858
2.36658
2.37389
2.38052
2.38649
2.39183
2.39653
2.40062
2.4041
2.40699
2.40929
2.411
2.41213
2.41264
1.59541
1.77472
1.85262
1.90407
1.94485
1.97996
2.01152
2.04056
2.06765
2.09313
2.11719
2.13997
2.16156
2.18203
2.20142
2.21978
2.23713
2.25352
2.26896
2.28349
2.29713
2.30991
2.32185
2.33298
2.34332
2.35289
2.36172
2.36983
2.37724
2.38396
2.39002
2.39542
2.40019
2.40433
2.40787
2.41079
2.41312
2.41486
2.416
2.41652
1.5919
1.77117
1.84935
1.90115
1.94229
1.97779
2.00973
2.03915
2.06661
2.09244
2.11684
2.13996
2.16187
2.18264
2.20231
2.22094
2.23855
2.25517
2.27084
2.28557
2.29941
2.31236
2.32447
2.33575
2.34623
2.35594
2.36489
2.37311
2.38061
2.38742
2.39356
2.39904
2.40387
2.40807
2.41164
2.41461
2.41697
2.41873
2.41989
2.42041
1.58831
1.76757
1.84602
1.89818
1.9397
1.97559
2.00792
2.03772
2.06556
2.09176
2.11652
2.13997
2.1622
2.18327
2.20324
2.22214
2.24
2.25686
2.27275
2.28769
2.30171
2.31485
2.32712
2.33856
2.34918
2.35901
2.36808
2.3764
2.38401
2.39091
2.39712
2.40267
2.40756
2.41182
2.41544
2.41844
2.42083
2.42261
2.42379
2.42432
1.58463
1.76389
1.84264
1.89516
1.93708
1.97336
2.0061
2.03629
2.06452
2.09109
2.1162
2.14
2.16255
2.18394
2.20419
2.22336
2.24148
2.25858
2.27469
2.28984
2.30406
2.31737
2.32981
2.34139
2.35215
2.36211
2.3713
2.37973
2.38743
2.39442
2.40071
2.40633
2.41128
2.41559
2.41926
2.4223
2.42472
2.42652
2.42771
2.42824
1.58088
1.76014
1.8392
1.8921
1.93442
1.97111
2.00425
2.03485
2.06347
2.09042
2.1159
2.14004
2.16293
2.18463
2.20518
2.22462
2.243
2.26034
2.27667
2.29203
2.30644
2.31993
2.33253
2.34426
2.35516
2.36525
2.37455
2.38309
2.39089
2.39796
2.40433
2.41002
2.41503
2.41939
2.4231
2.42618
2.42863
2.43045
2.43165
2.4322
1.57702
1.75631
1.83569
1.88898
1.93172
1.96883
2.00239
2.03341
2.06242
2.08976
2.11562
2.14011
2.16333
2.18534
2.20619
2.22592
2.24455
2.26213
2.27869
2.29425
2.30885
2.32252
2.33528
2.34717
2.35821
2.36842
2.37784
2.38648
2.39437
2.40153
2.40798
2.41373
2.41881
2.42322
2.42698
2.43009
2.43257
2.43441