/*--------------------------------*- C++ -*----------------------------------*\
| =========                 |                                                 |
| \\      /  F ield         | OpenFOAM: The Open Source CFD Toolbox           |
|  \\    /   O peration     | Version:  2.3.0                                 |
|   \\  /    A nd           | Web:      www.OpenFOAM.org                      |
|    \\/     M anipulation  |                                                 |
\*---------------------------------------------------------------------------*/
FoamFile
{
    version     2.0;
    format      ascii;
    class       volScalarField;
    location    "10000";
    object      Uy;
}
// * * * * * * * * * * * * * * * * * * * * * * * * * * * * * * * * * * * * * //

dimensions      [0 1 -1 0 0 0 0];

internalField   nonuniform List<scalar> 
26600
(
5.23031
5.27164
5.30697
5.32973
5.34958
5.40463
5.49317
5.59429
5.6974
5.79664
5.88849
5.97131
6.04415
6.10748
6.16113
6.20659
6.24383
6.27497
6.29982
6.31945
6.33389
6.34407
6.35031
6.35278
6.34953
6.33874
6.32842
6.30702
6.29183
6.25869
6.23413
6.19409
6.15766
6.11665
6.06951
6.01802
5.95801
5.8916
5.81086
5.77689
4.64491
4.67344
4.73044
4.92396
5.13916
5.32449
5.4854
5.62669
5.75552
5.86821
5.96779
6.05217
6.12462
6.18489
6.23524
6.27701
6.31054
6.33717
6.35682
6.37028
6.37754
6.37897
6.37383
6.36205
6.34123
6.31271
6.27468
6.22956
6.17489
6.11409
6.04401
5.97193
5.89012
5.81212
5.71781
5.64053
5.52821
5.46277
5.29103
5.35283
4.78074
4.9682
5.1233
5.30025
5.46274
5.61894
5.76753
5.90299
6.02288
6.12542
6.21304
6.2843
6.34367
6.39013
6.42669
6.45393
6.47144
6.48068
6.4799
6.46888
6.44667
6.41183
6.36302
6.30102
6.22595
6.13887
6.04134
5.93626
5.82598
5.7131
5.59967
5.48889
5.37951
5.27519
5.16896
5.07402
4.96536
4.88743
4.7511
4.78845
4.76311
5.01488
5.23871
5.45283
5.64859
5.82572
5.9836
6.12073
6.23684
6.33095
6.40632
6.46236
6.5045
6.53058
6.5445
6.54511
6.53098
6.50251
6.45548
6.3888
6.30141
6.19328
6.06681
5.92668
5.77722
5.62303
5.46932
5.32005
5.17688
5.0414
4.91417
4.79551
4.68455
4.58119
4.4822
4.39132
4.29803
4.22076
4.11108
4.13867
4.78588
5.11525
5.39343
5.63403
5.85198
6.04464
6.21168
6.35154
6.46483
6.55158
6.61427
6.6535
6.67386
6.67167
6.65032
6.60398
6.52833
6.42165
6.27878
6.10371
5.90371
5.68832
5.46997
5.25683
5.0551
4.86826
4.69663
4.53986
4.39763
4.26834
4.15105
4.04436
3.94725
3.85862
3.77657
3.70029
3.6272
3.5606
3.4817
3.49917
4.80421
5.19596
5.51778
5.79814
6.0439
6.25583
6.43519
6.5804
6.69278
6.7725
6.81951
6.83562
6.8201
6.76483
6.66652
6.51026
6.29543
6.02903
5.72817
5.4169
5.11656
4.83775
4.58727
4.36517
4.16936
3.99739
3.84655
3.71323
3.59576
3.49117
3.39793
3.31455
3.23991
3.17222
3.11095
3.05385
3.00163
2.95053
2.89912
2.90575
4.82919
5.27036
5.63772
5.957
6.2321
6.46527
6.65906
6.81082
6.92278
6.99265
7.01442
6.98702
6.89196
6.70418
6.41941
6.03688
5.60879
5.17406
4.77052
4.41615
4.11286
3.85677
3.63995
3.45683
3.30159
3.16771
3.05212
2.95247
2.86637
2.79104
2.72491
2.66672
2.61559
2.56984
2.5292
2.49148
2.45833
2.42425
2.39439
2.39417
4.85198
5.34254
5.75608
6.11332
6.41918
6.67559
6.8854
7.04504
7.1554
7.20315
7.16958
7.02142
6.70618
6.21575
5.62848
5.02711
4.48963
4.03871
3.67123
3.37556
3.13798
2.94498
2.78626
2.65603
2.54814
2.45747
2.3805
2.31483
2.25873
2.21038
2.16861
2.1325
2.1015
2.0744
2.05101
2.02969
2.01181
1.99264
1.9788
1.97572
4.885
5.41763
5.87334
6.26917
6.60735
6.8885
7.11699
7.28398
7.38224
7.36336
7.15326
6.64952
5.89976
5.08549
4.35255
3.76375
3.30128
2.95511
2.69185
2.48795
2.33141
2.20811
2.10853
2.02769
1.96124
1.90578
1.85918
1.82001
1.78719
1.7596
1.73649
1.71727
1.70157
1.68861
1.67825
1.66935
1.66284
1.65536
1.65221
1.64969
4.92136
5.49159
5.99003
6.42599
6.79804
7.10692
7.3545
7.52041
7.55304
7.27911
6.55124
5.4946
4.48002
3.66596
3.05674
2.63514
2.32888
2.11504
1.96063
1.8435
1.75356
1.68257
1.62512
1.57859
1.54063
1.50924
1.48319
1.4618
1.44451
1.43075
1.42008
1.41215
1.40672
1.40328
1.4017
1.40122
1.40236
1.40282
1.40648
1.40665
4.95374
5.56369
6.10764
6.58574
6.99451
7.33123
7.59454
7.70404
7.41214
6.42408
5.05983
3.88343
3.01857
2.45476
2.08931
1.85704
1.69544
1.58247
1.49893
1.43405
1.3834
1.34287
1.30962
1.28253
1.26059
1.24277
1.22842
1.21718
1.2088
1.20301
1.19955
1.19822
1.19882
1.20103
1.20469
1.20925
1.21495
1.22027
1.22805
1.23155
4.9787
5.6353
6.22852
6.75242
7.19839
7.56054
7.79668
7.52101
6.34811
4.67945
3.31271
2.47107
1.9982
1.73157
1.55961
1.44104
1.35264
1.28695
1.2363
1.19546
1.16267
1.13597
1.11394
1.09601
1.08167
1.07037
1.06174
1.05556
1.05168
1.04994
1.05019
1.05227
1.05601
1.06117
1.06757
1.07481
1.08292
1.09091
1.101
1.10721
4.9952
5.70823
6.35743
6.92882
7.41023
7.7755
7.61776
6.38038
4.34803
2.84181
2.11923
1.77293
1.56248
1.41994
1.31576
1.23775
1.17585
1.12688
1.08789
1.05603
1.03007
1.00882
0.991425
0.977418
0.966432
0.958094
0.952124
0.948345
0.94663
0.946854
0.948894
0.952611
0.957856
0.964418
0.972105
0.980597
0.989829
0.999139
1.01017
1.01784
5.00325
5.78568
6.49787
7.11686
7.62601
7.66503
6.52508
4.09351
2.49672
1.93246
1.68583
1.51517
1.38079
1.27592
1.19299
1.12721
1.07375
1.03049
0.99555
0.967
0.943708
0.924773
0.909487
0.897383
0.888096
0.881302
0.87675
0.874264
0.873713
0.874981
0.877949
0.882486
0.888446
0.895639
0.903874
0.912879
0.922532
0.932352
0.943396
0.951607
5.0053
5.87049
6.65172
7.31895
7.61046
6.67283
4.00141
2.2449
1.80854
1.69025
1.55255
1.41162
1.28978
1.19126
1.11313
1.0513
1.00151
0.961255
0.928651
0.902095
0.880519
0.863122
0.849269
0.838487
0.830406
0.824718
0.821178
0.819608
0.81987
0.821844
0.82541
0.830438
0.836784
0.84427
0.852708
0.861857
0.871556
0.881416
0.892003
0.900296
5.00837
5.96345
6.81378
7.39991
6.74992
4.09396
2.08159
1.67609
1.70659
1.64859
1.50033
1.3511
1.22544
1.12618
1.04924
0.989389
0.942012
0.904112
0.873619
0.848962
0.829071
0.81318
0.800694
0.791156
0.784202
0.779533
0.776915
0.776164
0.77714
0.779714
0.783768
0.789169
0.795775
0.803416
0.811905
0.821017
0.830568
0.84021
0.850192
0.858174
5.02927
6.06736
6.97541
6.68694
4.28654
1.96533
1.4439
1.66631
1.75102
1.65143
1.46498
1.30039
1.16902
1.06843
0.992156
0.933903
0.888638
0.852963
0.824593
0.801912
0.783813
0.769526
0.758478
0.750228
0.744425
0.740786
0.739083
0.739136
0.740799
0.743945
0.748449
0.75418
0.760994
0.768727
0.777195
0.786181
0.795481
0.80477
0.814083
0.821575
5.05902
6.19037
6.38652
4.38115
1.9048
1.2446
1.52748
1.83179
1.82571
1.65175
1.42787
1.24964
1.1143
1.01344
0.938314
0.88184
0.838685
0.805201
0.778955
0.758275
0.742016
0.729389
0.719827
0.712899
0.70827
0.705669
0.704879
0.705725
0.70806
0.711756
0.716685
0.722717
0.729708
0.737497
0.745901
0.754708
0.763703
0.772573
0.781222
0.788162
5.10936
5.715
4.10835
1.81942
1.13815
1.34035
1.79088
1.9744
1.88458
1.62782
1.38032
1.19441
1.05839
0.9591
0.886103
0.831847
0.79093
0.759643
0.73549
0.716769
0.70232
0.691336
0.683247
0.67763
0.67416
0.672578
0.672678
0.674288
0.677264
0.681476
0.686798
0.693098
0.700235
0.708046
0.716353
0.724947
0.733606
0.742031
0.750046
0.75644
4.90687
3.19531
1.56675
1.14537
1.28457
1.65568
2.00806
2.08461
1.89832
1.57611
1.31828
1.13235
0.999789
0.904334
0.834675
0.783233
0.744777
0.715717
0.693606
0.676764
0.664036
0.654618
0.647935
0.64357
0.641205
0.640591
0.641528
0.643851
0.647418
0.6521
0.657769
0.664295
0.671537
0.679336
0.687514
0.695868
0.704176
0.71215
0.719578
0.725455
1.05562
1.12376
1.23392
1.36308
1.60387
1.89665
2.16895
2.14554
1.84093
1.4944
1.24031
1.06262
0.937951
0.848665
0.783606
0.735623
0.699899
0.673122
0.653
0.637936
0.626813
0.618841
0.613458
0.610248
0.608901
0.609175
0.610875
0.613841
0.617932
0.62302
0.62898
0.635681
0.642982
0.650729
0.658748
0.66684
0.674787
0.682318
0.689207
0.694613
1.163
1.52981
1.49397
1.61151
1.79591
2.06544
2.24784
2.10823
1.72406
1.3858
1.14835
0.986158
0.87314
0.792076
0.732752
0.688829
0.656107
0.63168
0.613501
0.600108
0.590457
0.583797
0.579581
0.577407
0.576968
0.578029
0.5804
0.583922
0.588458
0.59388
0.600064
0.606881
0.614192
0.621846
0.629674
0.637484
0.645067
0.65217
0.658567
0.663552
0.759391
1.26775
1.45861
1.63776
1.88379
2.14958
2.22942
1.96328
1.56976
1.2579
1.04669
0.904974
0.806271
0.734932
0.682196
0.642802
0.6133
0.591279
0.574996
0.56317
0.554859
0.549368
0.54618
0.544907
0.545254
0.546988
0.549924
0.553907
0.558799
0.564476
0.570812
0.577682
0.584951
0.592469
0.600075
0.607586
0.614805
0.621495
0.627445
0.632056
0.553688
1.16472
1.43668
1.67165
1.94096
2.14708
2.09054
1.76209
1.39032
1.11809
0.939982
0.821687
0.738717
0.67788
0.632192
0.597593
0.571439
0.551846
0.537405
0.527044
0.519946
0.515484
0.513182
0.512675
0.513677
0.515965
0.519356
0.523698
0.528854
0.534701
0.541116
0.547975
0.555146
0.562487
0.569841
0.577038
0.583891
0.590186
0.595728
0.600006
0.437323
1.05071
1.38488
1.654
1.91505
2.02207
1.86697
1.52519
1.19828
0.974703
0.833308
0.739228
0.67206
0.621718
0.583101
0.553329
0.53053
0.513333
0.500664
0.491668
0.48566
0.482095
0.480544
0.480669
0.4822
0.484921
0.488655
0.493252
0.498578
0.504511
0.51093
0.517713
0.524734
0.531855
0.53893
0.545797
0.552285
0.5582
0.563365
0.567346
0.368114
0.967709
1.3173
1.59636
1.78685
1.8011
1.59148
1.27281
1.00715
0.837774
0.732036
0.660405
0.607813
0.567247
0.535312
0.510165
0.490604
0.475711
0.464722
0.456986
0.451953
0.449161
0.448234
0.448865
0.450802
0.45384
0.457809
0.46256
0.467963
0.473899
0.480248
0.486893
0.493711
0.500574
0.50734
0.513863
0.519985
0.525533
0.530347
0.534059
0.293669
0.851043
1.18896
1.42572
1.55448
1.50934
1.29332
1.02942
0.83557
0.716252
0.640417
0.587417
0.547175
0.51512
0.489163
0.468247
0.451695
0.438958
0.429531
0.422946
0.418776
0.416643
0.416224
0.417245
0.419475
0.422721
0.42682
0.431629
0.437022
0.44288
0.449089
0.455536
0.462103
0.468667
0.4751
0.481264
0.487019
0.492209
0.496692
0.500154
0.0574564
0.614758
0.957336
1.16859
1.259
1.20084
1.0151
0.827876
0.697163
0.614727
0.560524
0.521449
0.490862
0.465761
0.444883
0.427677
0.413827
0.40305
0.395046
0.389497
0.386083
0.384505
0.384488
0.385794
0.388213
0.391567
0.395701
0.400479
0.405778
0.411484
0.417487
0.423679
0.429947
0.436177
0.44225
0.448043
0.453426
0.458263
0.462429
0.465655
-0.0382166
0.441749
0.735721
0.909962
0.981749
0.937787
0.80575
0.683752
0.593288
0.532999
0.492319
0.462633
0.439053
0.419322
0.402565
0.388494
0.376993
0.367954
0.36122
0.356588
0.353829
0.352708
0.353
0.354496
0.357012
0.360384
0.364466
0.36913
0.374259
0.379744
0.385481
0.391364
0.39729
0.403152
0.408842
0.414249
0.419256
0.423743
0.427599
0.430598
0.18423
0.432673
0.602419
0.722317
0.779102
0.756296
0.673853
0.587449
0.516664
0.467409
0.434171
0.410278
0.391473
0.375699
0.362169
0.350665
0.341154
0.333621
0.327999
0.324168
0.321967
0.321216
0.321732
0.323337
0.325868
0.329177
0.33313
0.337608
0.342498
0.3477
0.353114
0.35864
0.364183
0.369645
0.374931
0.379937
0.384561
0.388697
0.392249
0.395023
0.251293
0.430009
0.522262
0.59869
0.646889
0.643368
0.590518
0.519481
0.457146
0.413061
0.383698
0.363211
0.347543
0.334605
0.323542
0.314097
0.306242
0.299992
0.295329
0.292186
0.290452
0.289992
0.290658
0.2923
0.294775
0.297952
0.301708
0.305933
0.310525
0.315387
0.320428
0.325554
0.330677
0.335713
0.340571
0.345161
0.349395
0.353177
0.356425
0.358974
0.190537
0.386522
0.46301
0.521193
0.565331
0.570041
0.528316
0.464367
0.406726
0.365653
0.338536
0.320132
0.306548
0.295642
0.286456
0.278653
0.272163
0.266994
0.263149
0.260589
0.259241
0.259003
0.259753
0.26137
0.263728
0.266712
0.270213
0.27413
0.278369
0.282843
0.287466
0.292152
0.296825
0.301406
0.305817
0.309978
0.31381
0.317233
0.320175
0.322494
0.146513
0.318548
0.398276
0.456767
0.50307
0.510275
0.472387
0.413694
0.360411
0.322068
0.296739
0.279845
0.267767
0.25838
0.250652
0.244169
0.238805
0.234547
0.231395
0.229328
0.228293
0.228214
0.228994
0.230532
0.232722
0.235462
0.238658
0.242218
0.246059
0.250102
0.254268
0.258481
0.262675
0.266778
0.270723
0.274439
0.27786
0.280916
0.283545
0.285628
0.112745
0.261058
0.339187
0.400664
0.445764
0.45123
0.416444
0.363592
0.315387
0.280243
0.256852
0.241368
0.230558
0.222408
0.215869
0.210476
0.206058
0.202571
0.200008
0.198354
0.19757
0.197597
0.19836
0.199775
0.201753
0.204207
0.207055
0.210219
0.213623
0.217198
0.220874
0.224586
0.228274
0.231879
0.235339
0.238597
0.241596
0.244276
0.246585
0.248422
0.0855354
0.211197
0.284694
0.344189
0.38495
0.389131
0.358491
0.312447
0.270165
0.238902
0.217871
0.203965
0.194408
0.18738
0.181878
0.177424
0.173819
0.170996
0.168939
0.167632
0.167047
0.167137
0.167843
0.169097
0.170828
0.172961
0.175428
0.17816
0.181095
0.184172
0.18733
0.190516
0.193677
0.196764
0.199724
0.202511
0.205076
0.207371
0.209352
0.210937
0.0642729
0.165032
0.231294
0.285213
0.320384
0.323913
0.298198
0.259673
0.22402
0.197316
0.179158
0.167125
0.158934
0.153023
0.148491
0.144886
0.142005
0.139769
0.138153
0.137141
0.136712
0.136829
0.137447
0.138513
0.139967
0.141751
0.143809
0.146083
0.148523
0.151078
0.153696
0.156336
0.158953
0.161505
0.163953
0.166255
0.168376
0.170276
0.171922
0.17325
0.0470627
0.122891
0.178378
0.22368
0.252704
0.25586
0.23553
0.204984
0.176517
0.154982
0.140211
0.130394
0.12375
0.119021
0.115454
0.112657
0.110448
0.108748
0.107529
0.106777
0.106473
0.106593
0.107101
0.107956
0.109115
0.110531
0.11216
0.113959
0.115886
0.117901
0.119965
0.122045
0.124105
0.126114
0.128039
0.12985
0.131518
0.133015
0.134314
0.135356
0.0327467
0.083673
0.125626
0.159546
0.18155
0.184499
0.169872
0.1477
0.126943
0.111161
0.100283
0.0930437
0.0881654
0.0847258
0.0821622
0.0801744
0.0786177
0.0774285
0.0765826
0.0760678
0.0758714
0.0759754
0.0763557
0.0769839
0.0778286
0.0788577
0.0800392
0.0813421
0.0827367
0.0841942
0.0856865
0.0871892
0.0886781
0.0901295
0.0915211
0.0928315
0.0940389
0.0951212
0.0960509
0.0967547
0.0193326
0.0489673
0.0752413
0.0958862
0.11014
0.112914
0.103966
0.0901822
0.0772682
0.0674619
0.0607081
0.0562208
0.0532059
0.0510897
0.0495195
0.0483056
0.0473561
0.04663
0.0461112
0.0457918
0.0456643
0.0457177
0.0459376
0.0463068
0.0468065
0.0474171
0.0481192
0.0488938
0.0497232
0.0505895
0.0514764
0.0523688
0.0532522
0.054112
0.0549342
0.0557049
0.0564135
0.0570553
0.0576452
0.0582295
0.0101746
0.0267364
0.0423603
0.0542019
0.0628839
0.0651125
0.0600005
0.0519558
0.0444042
0.0386805
0.0347455
0.0321345
0.0303811
0.0291496
0.0282342
0.0275241
0.0269658
0.0265355
0.0262236
0.0260256
0.0259368
0.025951
0.0260598
0.0262533
0.0265206
0.0268504
0.0272317
0.0276537
0.0281061
0.0285785
0.0290622
0.0295483
0.0300285
0.0304945
0.0309372
0.0313472
0.0317224
0.0320697
0.0324326
0.0329524
0.0577125
0.0718115
0.101686
0.115309
0.125969
0.133666
0.139435
0.14366
0.146617
0.148491
0.149423
0.149527
0.148892
0.147595
0.145701
0.143268
0.140344
0.136976
0.133201
0.129056
0.124574
0.119783
0.114712
0.109384
0.103824
0.0980512
0.0920869
0.0859492
0.0796554
0.073222
0.0666647
0.0599986
0.0532384
0.0463992
0.0394974
0.0325534
0.0255889
0.0185799
0.011722
0.0069794
0.0430665
0.046619
0.0770678
0.0937362
0.107608
0.117967
0.125856
0.131768
0.13609
0.139089
0.140965
0.141873
0.141933
0.141245
0.13989
0.137936
0.135445
0.132466
0.129048
0.125229
0.121047
0.116534
0.111721
0.106634
0.101299
0.0957398
0.0899763
0.0840292
0.0779171
0.0716574
0.0652671
0.0587624
0.0521591
0.0454736
0.0387244
0.0319348
0.0251259
0.0182287
0.0112723
0.00651058
0.03689
0.0349953
0.0634065
0.0782435
0.0919818
0.102846
0.111535
0.118353
0.123589
0.127467
0.130171
0.131848
0.13262
0.13259
0.131845
0.130456
0.128489
0.126
0.123038
0.119646
0.115865
0.11173
0.107273
0.102524
0.0975092
0.092254
0.0867813
0.0811123
0.075267
0.0692641
0.0631214
0.056856
0.0504843
0.0440226
0.0374881
0.0309012
0.0242734
0.0175182
0.0106569
0.00604923
0.0342993
0.0268216
0.0527742
0.0663707
0.079369
0.0900036
0.0987949
0.105927
0.111605
0.115998
0.119251
0.12149
0.122821
0.123339
0.123124
0.122248
0.120774
0.118758
0.116248
0.11329
0.109924
0.106187
0.102112
0.0977293
0.0930673
0.0881517
0.0830065
0.0776542
0.0721154
0.0664098
0.0605559
0.0545712
0.0484726
0.0422763
0.0359986
0.029658
0.0232627
0.0167293
0.010096
0.00568892
0.0313963
0.0208719
0.0443974
0.0566504
0.0688484
0.0790578
0.0876894
0.0948552
0.100708
0.105372
0.108962
0.111582
0.113321
0.114261
0.114476
0.11403
0.112982
0.111385
0.109287
0.106731
0.103758
0.100403
0.0967002
0.0926798
0.0883703
0.0837981
0.0789874
0.0739611
0.0687408
0.0633462
0.0577964
0.0521094
0.0463022
0.040391
0.0343923
0.0283237
0.0221945
0.0159292
0.00957809
0.00538146
0.0303163
0.0167295
0.038338
0.0491144
0.0602999
0.069877
0.0781504
0.0851598
0.0910044
0.0957709
0.099545
0.102407
0.10443
0.105685
0.106235
0.106137
0.105445
0.104209
0.102471
0.100275
0.0976588
0.0946565
0.0913014
0.0876236
0.0836511
0.0794102
0.0749253
0.0702193
0.0653137
0.0602289
0.0549839
0.0495969
0.0440853
0.0384654
0.0327537
0.0269689
0.0211214
0.0151437
0.00909192
0.00510321
0.0288469
0.0133461
0.0332803
0.0428914
0.0531709
0.0621048
0.0699491
0.0767024
0.0824285
0.0871849
0.091033
0.0940338
0.0962471
0.0977296
0.0985353
0.098715
0.0983159
0.0973826
0.0959566
0.0940762
0.0917775
0.0890942
0.0860574
0.0826965
0.0790391
0.0751106
0.0709353
0.066536
0.0619339
0.0571493
0.0522016
0.0471088
0.0418885
0.0365573
0.031132
0.0256319
0.0200689
0.0143819
0.00862883
0.00484189
0.0282534
0.0109259
0.0294482
0.0379027
0.0472784
0.055544
0.0629114
0.0693448
0.0748789
0.0795467
0.0833897
0.0864524
0.088781
0.0904212
0.091418
0.0918151
0.0916539
0.0909741
0.0898134
0.0882073
0.0861894
0.0837912
0.0810427
0.0779717
0.0746049
0.0709672
0.0670821
0.0629721
0.0586582
0.0541604
0.0494978
0.0446888
0.0397507
0.0347004
0.0295552
0.0243342
0.019051
0.0136494
0.00818701
0.0045939
0.0273885
0.00877856
0.0261785
0.0337231
0.0423162
0.0499607
0.0568532
0.0629414
0.0682415
0.0727696
0.0765518
0.0796189
0.0820054
0.0837478
0.0848827
0.0854468
0.0854763
0.0850062
0.0840702
0.0827008
0.080929
0.0787841
0.0762945
0.0734868
0.0703861
0.0670167
0.0634015
0.059562
0.055519
0.0512924
0.0469008
0.0423623
0.0376946
0.0329143
0.0280389
0.023088
0.0180753
0.0129492
0.00776628
0.00435826
0.0270338
0.00722244
0.0235961
0.0302842
0.0381488
0.0452049
0.0516328
0.057367
0.0624104
0.0667664
0.0704487
0.0734779
0.0758788
0.0776792
0.0789087
0.0795982
0.0797783
0.0794797
0.0787325
0.077566
0.0760087
0.0740878
0.0718296
0.0692594
0.0664012
0.063278
0.0599119
0.056324
0.0525342
0.048562
0.0444259
0.0401437
0.0357327
0.0312097
0.0265921
0.0218994
0.0171458
0.0122832
0.00736666
0.00413465
0.0264696
0.00576389
0.021357
0.0273603
0.0345996
0.0411268
0.0471192
0.0525074
0.0572869
0.0614527
0.0650101
0.0679712
0.0703533
0.0721772
0.0734666
0.0742466
0.0745434
0.0743835
0.0737936
0.0728
0.0714286
0.0697046
0.0676524
0.0652957
0.0626572
0.059759
0.056622
0.0532666
0.0497123
0.0459778
0.0420812
0.0380402
0.0338716
0.0295922
0.0252192
0.0207718
0.0162644
0.0116522
0.0069883
0.00392302
0.0262505
0.004698
0.0195399
0.0249103
0.0315814
0.0376241
0.0432102
0.0482668
0.0527841
0.0567517
0.0601689
0.0630413
0.0653803
0.0672013
0.0685225
0.0693645
0.0697494
0.0697001
0.06924
0.0683928
0.0671818
0.06563
0.0637604
0.0615948
0.0591548
0.0564612
0.0535341
0.0503929
0.0470565
0.0435431
0.0398702
0.036055
0.0321143
0.0280643
0.023922
0.0197065
0.0154319
0.0110563
0.00663122
0.00372335
0.0258636
0.0036688
0.017945
0.022803
0.0289866
0.0345996
0.0398151
0.0445607
0.0488249
0.052594
0.0558631
0.0586337
0.0609125
0.0627103
0.0640413
0.0649223
0.0653715
0.0654088
0.0650548
0.0643304
0.0632569
0.0618554
0.0601467
0.0581517
0.0558903
0.0533822
0.0506466
0.0477021
0.0445668
0.0412581
0.0377933
0.0341889
0.0304612
0.0266264
0.0227009
0.0187035
0.0146481
0.0104954
0.00629512
0.00353544
0.0257256
0.00290843
0.0166286
0.021016
0.02676
0.0319854
0.0368624
0.0413188
0.0453425
0.0489175
0.0520364
0.0546977
0.0569046
0.0586645
0.0599884
0.0608895
0.0613835
0.0614872
0.0612187
0.0605968
0.0596405
0.0583692
0.0568022
0.0549586
0.0528573
0.0505169
0.0479556
0.045191
0.0422405
0.039121
0.0358489
0.0324405
0.0289115
0.0252777
0.0215553
0.0177623
0.0139124
0.00996896
0.00597967
0.00335908
0.0254577
0.00216629
0.015464
0.0194668
0.0248335
0.0297169
0.0342891
0.0384803
0.0422785
0.0456674
0.0486381
0.0511868
0.0533145
0.0550262
0.05633
0.0572366
0.0577593
0.0579124
0.0577119
0.0571746
0.0563176
0.0551587
0.0537156
0.0520062
0.0500481
0.0478587
0.0454554
0.0428549
0.0400738
0.0371284
0.0340344
0.0308076
0.0274633
0.0240167
0.0204836
0.0168816
0.013224
0.00947621
0.00568449
0.00319408
0.0253693
0.00161184
0.0144924
0.0181433
0.023171
0.0277481
0.0320452
0.0359939
0.0395828
0.0427956
0.0456226
0.0480587
0.0501035
0.0517599
0.053034
0.0539348
0.054473
0.0546615
0.0545142
0.054046
0.0532727
0.0522103
0.0508752
0.0492842
0.0474536
0.0453998
0.0431393
0.040688
0.0380617
0.035276
0.0323461
0.0292871
0.0261139
0.0228411
0.0194841
0.0160599
0.0125816
0.00901638
0.00540897
0.00304006
0.0251852
0.00106957
0.0136298
0.0169916
0.0217274
0.0260353
0.0300866
0.0338154
0.0372117
0.0402596
0.0429494
0.0452754
0.0472359
0.0488327
0.0500705
0.0509565
0.0515001
0.0517123
0.0516055
0.0511933
0.0504897
0.0495098
0.0482686
0.0467815
0.0450641
0.0431318
0.041
0.038684
0.0361987
0.0335591
0.0307799
0.0278755
0.0248601
0.0217483
0.0185546
0.0152955
0.0119838
0.00858844
0.0051525
0.0028967
0.0251317
0.00066184
0.0129059
0.0160043
0.020479
0.0245468
0.0283776
0.0319076
0.0351276
0.0380224
0.0405826
0.0428023
0.0446792
0.0462144
0.0474113
0.048276
0.0488167
0.0490432
0.0489664
0.0485987
0.047953
0.0470431
0.045883
0.044487
0.0428697
0.0410458
0.0390296
0.0368358
0.0344786
0.0319724
0.029331
0.0265685
0.0236987
0.0207353
0.0176925
0.0145864
0.011429
0.00819119
0.0049145
0.00276367
0.025007
0.000265008
0.0122632
0.0151448
0.0193946
0.0232519
0.026887
0.0302381
0.0332976
0.0360514
0.0384903
0.0406088
0.0424043
0.0438772
0.0450304
0.0458692
0.0464007
0.0466336
0.0465781
0.0462452
0.045647
0.0447962
0.0437057
0.0423892
0.0408603
0.0391326
0.03722
0.0351363
0.0328952
0.0305101
0.0279947
0.0253621
0.0226258
0.019799
0.0168954
0.0139303
0.0109157
0.00782359
0.00469419
0.00264054
0.0249787
-3.51474e-05
0.0117231
0.0144085
0.0184578
0.0221284
0.025589
0.0287795
0.0316936
0.034318
0.0366444
0.0386674
0.0403845
0.0417958
0.0429039
0.0437135
0.0442309
0.0444642
0.0444226
0.0441163
0.0435566
0.0427552
0.0417244
0.0404768
0.0390254
0.0373831
0.035563
0.0335782
0.0314418
0.0291666
0.0267657
0.0242518
0.0216377
0.0189361
0.0161604
0.0133253
0.0104421
0.00748439
0.00449087
0.00252689
0.0249
-0.000322963
0.0112457
0.01377
0.0176469
0.0211544
0.0244607
0.0275079
0.0302907
0.0327972
0.0350198
0.0369534
0.0385958
0.0399472
0.0410099
0.0417882
0.042288
0.0425167
0.0424829
0.0421963
0.0416673
0.040907
0.0399268
0.0387389
0.0373552
0.0357882
0.0340504
0.0321541
0.0301118
0.027936
0.025639
0.023233
0.0207304
0.0181435
0.0154849
0.0127689
0.0100065
0.00717227
0.00430383
0.00242236
0.0248891
-0.000540384
0.0108455
0.0132258
0.01695
0.0203137
0.0234834
0.0264028
0.0290677
0.0314672
0.0335944
0.0354449
0.0370169
0.0383105
0.0393282
0.040074
0.0405536
0.0407739
0.0407431
0.0404703
0.0399653
0.0392386
0.0383012
0.0371644
0.0358397
0.0343389
0.0326739
0.0308566
0.0288987
0.0268124
0.0246093
0.0223012
0.0199
0.0174175
0.0148659
0.0122589
0.00960709
0.00688607
0.00413226
0.00232647
0.0248454
-0.000745793
0.0104952
0.0127582
0.0163516
0.0195904
0.0226403
0.0254463
0.0280057
0.0303085
0.0323486
0.0341224
0.0356283
0.0368669
0.0378406
0.0385535
0.0390111
0.03922
0.0391881
0.0389241
0.0384374
0.037738
0.0368362
0.035743
0.0344694
0.0330265
0.0314257
0.0296785
0.0277961
0.0257899
0.0236714
0.0214518
0.0191425
0.0167548
0.0143006
0.0117929
0.00924204
0.00662448
0.00397541
0.00223881
0.0248505
-0.000897927
0.0102044
0.0123642
0.0158431
0.0189727
0.0219173
0.0246231
0.0270883
0.029304
0.031265
0.0329682
0.0344126
0.0355991
0.0365303
0.0372104
0.0376448
0.0378402
0.0378039
0.0375446
0.0370712
0.0363934
0.0355211
0.0344648
0.033235
0.0318424
0.0302981
0.0286127
0.0267974
0.0248629
0.0228203
0.0206803
0.018454
0.0161522
0.0137862
0.0113687
0.00890965
0.00638616
0.00383257
0.00215898
0.0248318
-0.00103835
0.00995377
0.0120313
0.0154129
0.0184488
0.0213017
0.0239195
0.0263012
0.0284389
0.0303283
0.0319668
0.0333542
0.0344917
0.0353822
0.03603
0.0364407
0.0366207
0.0365775
0.0363194
0.035855
0.0351939
0.0343456
0.0333201
0.0321277
0.0307786
0.0292834
0.0276525
0.0258965
0.0240258
0.022051
0.0199824
0.0178306
0.0156062
0.0133199
0.0109841
0.0086081
0.00616996
0.00370294
0.00208654
0.0248502
-0.0011391
0.00975
0.0117571
0.0150547
0.0180096
0.0207831
0.0233237
0.0256317
0.0276998
0.0295246
0.0311043
0.0324391
0.0335307
0.0343825
0.0349988
0.0353854
0.0355489
0.0354967
0.0352368
0.0347779
0.0341292
0.0333
0.0322999
0.031139
0.0298272
0.0283746
0.0267913
0.0250875
0.0232732
0.0213585
0.0193537
0.0172687
0.0151136
0.012899
0.0106367
0.00833569
0.00597463
0.00358578
0.00202106
0.0248531
-0.00122732
0.00957936
0.0115323
0.01476
0.0176465
0.0203517
0.0228254
0.0250686
0.027075
0.0288419
0.0303682
0.0316546
0.0327036
0.0335186
0.0341045
0.0344672
0.0346133
0.0345503
0.0342862
0.0338297
0.0331895
0.0323751
0.0313957
0.030261
0.0289808
0.0275648
0.0260227
0.0243645
0.0225998
0.0207384
0.01879
0.0167644
0.0146713
0.0125209
0.0103244
0.00809076
0.0057989
0.00348043
0.0019622
0.024881
-0.00128537
0.00944594
0.011355
0.0145237
0.0173526
0.0199995
0.0224155
0.0246022
0.0265541
0.0282693
0.0297473
0.0309896
0.0319989
0.0327793
0.0333359
0.0336749
0.033803
0.033728
0.0334577
0.0330007
0.0323659
0.0315623
0.0305993
0.0294861
0.0282323
0.0268474
0.0253408
0.023722
0.0220006
0.020186
0.0182874
0.0163144
0.0142763
0.0121829
0.0100452
0.00787167
0.00564171
0.00338615
0.00190952
0.0249011
-0.00133202
0.00934037
0.0112185
0.0143397
0.0171211
0.0197193
0.022086
0.0242238
0.0261279
0.0277971
0.0292317
0.0304336
0.0314063
0.0321542
0.0326828
0.0329985
0.0331084
0.0330201
0.0327419
0.0322822
0.0316498
0.0308538
0.0299031
0.0288071
0.0275751
0.0262162
0.0247397
0.0231549
0.021471
0.019697
0.017842
0.0159152
0.0139256
0.0118827
0.00979706
0.00767683
0.00550191
0.00330227
0.00186265
0.0249393
-0.0013539
0.00926505
0.011121
0.014204
0.0169468
0.0195045
0.0218298
0.0239256
0.0257881
0.0274167
0.0288124
0.0299777
0.0309166
0.031634
0.0321359
0.0324288
0.0325203
0.0324181
0.0321305
0.031666
0.0310335
0.0302418
0.0293001
0.0282174
0.0270028
0.0256654
0.0242142
0.0226581
0.0210062
0.0192673
0.0174502
0.0155636
0.0136165
0.0116178
0.00957801
0.00750478
0.00537836
0.00322819
0.00182126
0.0249713
-0.00136494
0.00921313
0.0110574
0.0141119
0.0168246
0.0193498
0.0216406
0.0237009
0.0255275
0.0271205
0.0284814
0.0296136
0.0305214
0.0312103
0.0316867
0.0319575
0.0320305
0.0319137
0.0316154
0.0311444
0.0305095
0.0297196
0.0287836
0.0277107
0.0265096
0.0251895
0.023759
0.022227
0.0206021
0.0188931
0.0171084
0.0152566
0.0133462
0.0113861
0.00938619
0.00735404
0.00527012
0.00316324
0.00178498
0.0250188
-0.00135657
0.00918632
0.0110263
0.0140604
0.0167505
0.0192501
0.021513
0.0235437
0.0253396
0.0269015
0.0282317
0.0293339
0.0302132
0.0308755
0.0313276
0.031577
0.0316315
0.0314995
0.0311895
0.0307104
0.0300711
0.0292805
0.0283474
0.027281
0.02609
0.0247832
0.0233694
0.021857
0.0202546
0.0185706
0.0168134
0.0149912
0.0131123
0.0111853
0.00921985
0.00722326
0.00517619
0.00310686
0.00175349
0.0250633
-0.00133747
0.00917983
0.0110241
0.0140458
0.0167204
0.019201
0.0214421
0.0234485
0.0252186
0.0267537
0.0280566
0.0291319
0.0299851
0.0306226
0.0310516
0.0312801
0.0313163
0.0311687
0.0308461
0.0303576
0.029712
0.0289185
0.0279858
0.026923
0.0257388
0.0244419
0.0230408
0.021544
0.0199598
0.0182964
0.016562
0.0147646
0.0129123
0.0110134
0.00907737
0.00711114
0.00509558
0.00305851
0.00172649
0.0251175
-0.00130316
0.00919445
0.0110496
0.0140656
0.0167313
0.0191987
0.0214234
0.0234107
0.0251593
0.0266714
0.0279505
0.0290016
0.0298309
0.0304452
0.0308524
0.0310606
0.0310786
0.0309151
0.0305791
0.0300799
0.0294265
0.028628
0.0276934
0.0266315
0.0254511
0.0241607
0.022769
0.021284
0.0197141
0.0180672
0.0163513
0.0145743
0.012744
0.0108686
0.00895711
0.00701644
0.00502748
0.00301763
0.00170366
0.0251726
-0.00125956
0.00922699
0.0111004
0.0141172
0.0167799
0.0192399
0.0214532
0.0234259
0.0251572
0.0266499
0.0279082
0.0289377
0.0297451
0.0303378
0.0307242
0.0309128
0.0309126
0.0307329
0.0303829
0.0298719
0.0292092
0.0284039
0.0274651
0.0264017
0.0252224
0.0239357
0.02255
0.0210734
0.0195141
0.0178799
0.0161786
0.0144178
0.0126053
0.0107489
0.0088576
0.00693798
0.00497104
0.00298372
0.00168473
0.0252354
-0.0012023
0.00927772
0.0111752
0.0141987
0.0168638
0.0193214
0.0215281
0.0234903
0.0252081
0.0266847
0.027925
0.0289352
0.0297226
0.0302952
0.0306617
0.0308312
0.0308131
0.0306169
0.0302521
0.0297284
0.029055
0.0282413
0.0272965
0.0262293
0.0250485
0.0237627
0.0223801
0.0209087
0.0193566
0.0177315
0.0160411
0.0142927
0.012494
0.0106527
0.00877746
0.00687469
0.00492541
0.00295635
0.00166946
0.0252979
-0.00113659
0.0093442
0.011272
0.014308
0.0169807
0.0194407
0.021645
0.0236007
0.0253083
0.0267719
0.0279967
0.0289898
0.0297589
0.0303126
0.0306601
0.030811
0.0307751
0.0305622
0.0301822
0.0296447
0.0289595
0.0281359
0.0271831
0.0261101
0.0249256
0.0236381
0.0222558
0.0207868
0.0192388
0.0176195
0.0159364
0.014197
0.0124084
0.0105784
0.00871531
0.0068255
0.00488994
0.00293503
0.00165757
0.0253686
-0.00105984
0.00942678
0.0113901
0.0144435
0.0171286
0.0195953
0.0218012
0.0237539
0.0254546
0.0269078
0.0281196
0.0290975
0.0298498
0.0303858
0.0307152
0.030848
0.0307944
0.0305645
0.0301686
0.0296166
0.0289184
0.0280835
0.0271211
0.0260404
0.02485
0.0235585
0.022174
0.0207045
0.0191577
0.0175412
0.0158624
0.0141285
0.0123467
0.0105244
0.00866994
0.00678945
0.0048639
0.00291934
0.00164883
0.0254401
-0.000974104
0.00952363
0.011528
0.0146037
0.0173056
0.0197831
0.0219944
0.0239474
0.025644
0.0270894
0.0282902
0.0292546
0.0299916
0.030511
0.0308229
0.030938
0.0308667
0.0306197
0.0302074
0.0296401
0.0289279
0.0280803
0.0271068
0.0260166
0.0248184
0.0235206
0.0221315
0.020659
0.0191108
0.0174943
0.0158167
0.0140853
0.0123071
0.0104893
0.00864019
0.00676565
0.00484658
0.00290894