/*--------------------------------*- C++ -*----------------------------------*\
| =========                 |                                                 |
| \\      /  F ield         | OpenFOAM: The Open Source CFD Toolbox           |
|  \\    /   O peration     | Version:  2.3.0                                 |
|   \\  /    A nd           | Web:      www.OpenFOAM.org                      |
|    \\/     M anipulation  |                                                 |
\*---------------------------------------------------------------------------*/
FoamFile
{
    version     2.0;
    format      ascii;
    class       volScalarField;
    location    "10000";
    object      Uz;
}
// * * * * * * * * * * * * * * * * * * * * * * * * * * * * * * * * * * * * * //

dimensions      [0 1 -1 0 0 0 0];

internalField   nonuniform List<scalar> 
26600
(
-11.798
-11.4491
-11.1537
-10.8878
-10.6217
-10.3704
-10.1146
-9.8553
-9.59622
-9.34184
-9.09184
-8.85023
-8.61527
-8.39013
-8.17195
-7.9638
-7.76197
-7.56939
-7.38143
-7.20272
-7.02803
-6.86028
-6.70125
-6.51104
-6.37585
-6.1725
-6.05521
-5.85811
-5.75203
-5.56044
-5.44816
-5.29116
-5.17093
-5.05153
-4.93295
-4.81579
-4.69986
-4.58659
-4.48166
-4.34835
-11.833
-11.5944
-11.3154
-11.0388
-10.7342
-10.4292
-10.1329
-9.84448
-9.56178
-9.28906
-9.02497
-8.77266
-8.53025
-8.29891
-8.07718
-7.8651
-7.66094
-7.46543
-7.27638
-7.09354
-6.91505
-6.7402
-6.56751
-6.39521
-6.22456
-6.05382
-5.88447
-5.71478
-5.5475
-5.38095
-5.21772
-5.05751
-4.9008
-4.7521
-4.6052
-4.47219
-4.3328
-4.22304
-4.06424
-4.08851
-11.8325
-11.5375
-11.2376
-10.9314
-10.6165
-10.2966
-9.9804
-9.67122
-9.37048
-9.08084
-8.80148
-8.5356
-8.28021
-8.03656
-7.80257
-7.57734
-7.35913
-7.14702
-6.9387
-6.73356
-6.52954
-6.32607
-6.12276
-5.92007
-5.71833
-5.51936
-5.3245
-5.13581
-4.95402
-4.78073
-4.61604
-4.46098
-4.31374
-4.17647
-4.04491
-3.92629
-3.8062
-3.71183
-3.58054
-3.59642
-11.8299
-11.5074
-11.1819
-10.836
-10.4928
-10.1489
-9.81077
-9.48138
-9.1631
-8.85721
-8.5627
-8.28245
-8.01162
-7.75183
-7.49927
-7.25177
-7.00696
-6.76258
-6.51593
-6.26705
-6.01518
-5.76272
-5.51296
-5.26931
-5.03525
-4.81363
-4.60641
-4.41479
-4.23785
-4.07602
-3.9276
-3.79213
-3.66712
-3.55331
-3.44716
-3.35183
-3.25903
-3.18364
-3.09126
-3.10745
-11.8205
-11.4929
-11.1359
-10.7556
-10.3774
-10.0037
-9.63929
-9.2864
-8.94753
-8.62179
-8.30788
-8.00727
-7.71235
-7.42351
-7.13401
-6.83872
-6.53557
-6.22209
-5.90012
-5.57614
-5.2576
-4.95292
-4.66999
-4.41151
-4.17862
-3.97138
-3.78759
-3.62407
-3.47853
-3.3491
-3.23313
-3.12938
-3.03556
-2.95154
-2.87462
-2.80601
-2.74146
-2.68725
-2.63158
-2.64886
-11.8202
-11.4797
-11.0844
-10.6763
-10.2655
-9.86113
-9.46858
-9.08923
-8.72571
-8.37363
-8.03172
-7.69628
-7.3562
-7.00478
-6.63403
-6.23547
-5.82049
-5.39636
-4.98455
-4.60224
-4.26009
-3.96141
-3.7048
-3.48446
-3.2961
-3.13485
-2.99615
-2.8764
-2.77293
-2.68299
-2.60415
-2.53497
-2.47364
-2.41957
-2.37126
-2.32877
-2.29038
-2.25821
-2.23228
-2.24956
-11.8307
-11.4467
-11.0251
-10.5897
-10.1507
-9.7178
-9.29705
-8.88903
-8.49565
-8.10635
-7.71887
-7.31527
-6.87876
-6.38934
-5.85812
-5.29867
-4.76308
-4.27409
-3.85432
-3.50518
-3.21761
-2.98326
-2.79168
-2.63486
-2.50635
-2.39985
-2.31137
-2.23753
-2.17563
-2.12358
-2.07946
-2.04207
-2.0102
-1.98316
-1.9601
-1.94086
-1.92483
-1.91307
-1.90921
-1.92739
-11.8095
-11.3926
-10.9536
-10.4947
-10.0305
-9.57084
-9.12184
-8.68131
-8.24773
-7.79884
-7.32167
-6.76949
-6.12169
-5.40115
-4.68833
-4.04577
-3.51416
-3.0877
-2.75518
-2.49777
-2.29938
-2.14747
-2.03002
-1.93911
-1.86854
-1.81347
-1.77018
-1.73613
-1.7095
-1.68894
-1.67328
-1.66172
-1.65357
-1.64836
-1.64563
-1.64526
-1.64715
-1.65232
-1.66387
-1.68424
-11.7725
-11.3328
-10.8734
-10.3927
-9.9047
-9.41871
-8.93869
-8.45517
-7.95639
-7.38949
-6.70655
-5.84563
-4.90127
-4.03098
-3.31084
-2.76269
-2.35196
-2.05461
-1.84376
-1.69371
-1.588
-1.51354
-1.46111
-1.42455
-1.39975
-1.38387
-1.37465
-1.3705
-1.3703
-1.3733
-1.37889
-1.38665
-1.39624
-1.40743
-1.42003
-1.43401
-1.44949
-1.46742
-1.48951
-1.51346
-11.7374
-11.2751
-10.7907
-10.2868
-9.77434
-9.25905
-8.73888
-8.18458
-7.54926
-6.70989
-5.60967
-4.40877
-3.38186
-2.60534
-2.04892
-1.68238
-1.44266
-1.29084
-1.19594
-1.13705
-1.1021
-1.08365
-1.07636
-1.07682
-1.08287
-1.09309
-1.10641
-1.12208
-1.13954
-1.15843
-1.17849
-1.19956
-1.2215
-1.24425
-1.26775
-1.29206
-1.31731
-1.3441
-1.37372
-1.40226
-11.709
-11.2221
-10.7091
-10.1794
-9.63904
-9.08619
-8.49882
-7.79096
-6.82858
-5.46784
-3.98539
-2.79173
-1.94296
-1.41276
-1.11069
-0.950956
-0.865295
-0.82121
-0.802442
-0.79929
-0.806258
-0.820089
-0.838441
-0.859885
-0.883525
-0.90878
-0.935242
-0.962626
-0.990723
-1.0194
-1.04857
-1.0782
-1.10826
-1.13876
-1.16971
-1.20118
-1.23328
-1.26633
-1.30093
-1.33479
-11.6851
-11.1735
-10.6298
-10.0707
-9.49577
-8.88147
-8.13812
-7.05388
-5.50447
-3.71772
-2.28094
-1.36181
-0.891767
-0.685119
-0.597321
-0.56491
-0.560805
-0.570753
-0.588941
-0.612234
-0.638942
-0.667943
-0.698485
-0.730088
-0.762453
-0.795395
-0.828792
-0.862561
-0.896649
-0.931028
-0.96569
-1.00065
-1.03591
-1.07153
-1.10752
-1.14396
-1.18092
-1.21852
-1.25692
-1.29539
-11.6644
-11.1272
-10.5518
-9.95888
-9.33195
-8.57294
-7.40981
-5.78351
-3.61364
-1.88532
-0.960127
-0.569783
-0.425268
-0.379953
-0.375925
-0.390794
-0.415226
-0.444378
-0.476217
-0.509645
-0.544101
-0.579256
-0.614922
-0.650972
-0.687332
-0.723967
-0.76086
-0.798009
-0.835417
-0.873101
-0.91108
-0.949385
-0.988047
-1.02711
-1.0666
-1.10658
-1.1471
-1.18824
-1.23009
-1.27162
-11.6438
-11.0809
-10.473
-9.83777
-9.09216
-7.87638
-6.27469
-3.69697
-1.69269
-0.713759
-0.36731
-0.270932
-0.251012
-0.259309
-0.281004
-0.309508
-0.341977
-0.376649
-0.412574
-0.449215
-0.486285
-0.523655
-0.561278
-0.599139
-0.63724
-0.675597
-0.714233
-0.753175
-0.792451
-0.832093
-0.872134
-0.91261
-0.953558
-0.995015
-1.03702
-1.07961
-1.12283
-1.16674
-1.21143
-1.25579
-11.6198
-11.0324
-10.391
-9.6779
-8.46308
-6.84428
-4.01797
-1.70187
-0.597606
-0.256732
-0.176671
-0.166132
-0.18039
-0.20401
-0.232929
-0.265166
-0.299615
-0.335486
-0.372238
-0.409536
-0.447186
-0.48511
-0.523289
-0.561739
-0.600487
-0.639568
-0.679021
-0.718885
-0.7592
-0.800005
-0.84134
-0.883245
-0.925759
-0.96892
-1.01276
-1.05732
-1.10263
-1.1487
-1.19552
-1.24287
-11.5891
-10.9818
-10.3072
-9.16597
-7.49216
-4.55431
-1.88729
-0.611791
-0.209854
-0.117359
-0.105962
-0.120542
-0.144513
-0.172889
-0.203976
-0.237027
-0.271572
-0.307215
-0.343632
-0.380594
-0.417961
-0.455674
-0.493723
-0.532131
-0.570933
-0.610171
-0.649891
-0.69014
-0.730963
-0.772406
-0.814514
-0.857329
-0.900895
-0.94525
-0.99043
-1.03647
-1.08338
-1.13119
-1.17988
-1.2294
-11.5489
-10.9591
-9.96624
-8.23417
-5.19646
-2.11403
-0.634107
-0.160339
-0.0683155
-0.0613426
-0.0732254
-0.095759
-0.123049
-0.152823
-0.184267
-0.217057
-0.250981
-0.285836
-0.321429
-0.357604
-0.394262
-0.431358
-0.468888
-0.506875
-0.545359
-0.584383
-0.623999
-0.664257
-0.705207
-0.746901
-0.789387
-0.832713
-0.876925
-0.922063
-0.968167
-1.01527
-1.06339
-1.11255
-1.16274
-1.21394
-11.4866
-10.889
-9.03786
-5.82711
-2.32026
-0.75023
-0.184482
-0.0367153
-0.0247281
-0.0356181
-0.0555208
-0.0808202
-0.108968
-0.138742
-0.169708
-0.201715
-0.234669
-0.268463
-0.302982
-0.338128
-0.373831
-0.410061
-0.446817
-0.484127
-0.522028
-0.560568
-0.599799
-0.639777
-0.680556
-0.72219
-0.764733
-0.808237
-0.852752
-0.898322
-0.94499
-0.992791
-1.04175
-1.09189
-1.1432
-1.19569
-11.5078
-9.83927
-6.21274
-2.37744
-0.810183
-0.150954
-0.0283217
-0.00884523
-0.00948428
-0.0238837
-0.0457791
-0.0714417
-0.0992191
-0.128268
-0.158295
-0.189218
-0.220993
-0.253564
-0.286863
-0.320828
-0.355415
-0.390607
-0.426408
-0.462846
-0.499961
-0.537802
-0.576424
-0.615884
-0.656241
-0.697553
-0.739877
-0.78327
-0.827786
-0.873474
-0.920379
-0.968541
-1.01799
-1.06875
-1.12082
-1.17421
-10.2339
-5.61341
-1.87713
-0.706217
-0.0804696
-0.0153681
-0.0030302
-0.00102315
-0.00505832
-0.0196128
-0.0406858
-0.0654622
-0.0921914
-0.120093
-0.148903
-0.178552
-0.209012
-0.240252
-0.272232
-0.304913
-0.338271
-0.372296
-0.407002
-0.442416
-0.47858
-0.515546
-0.553368
-0.592107
-0.631825
-0.672583
-0.714444
-0.757467
-0.801709
-0.847225
-0.894064
-0.942269
-0.991875
-1.04291
-1.09538
-1.14929
0.00325864
-0.13934
-0.141007
0.0316534
0.0112959
0.0046672
0.00187903
0.000656866
-0.00469437
-0.0183238
-0.0381235
-0.0615455
-0.0868861
-0.113404
-0.14083
-0.169084
-0.198139
-0.227975
-0.258566
-0.289888
-0.321929
-0.354689
-0.388187
-0.422452
-0.457527
-0.493464
-0.530322
-0.568162
-0.607048
-0.647046
-0.688221
-0.730636
-0.774351
-0.819425
-0.865911
-0.913854
-0.963293
-1.01426
-1.06677
-1.12082
-0.00373981
0.00938007
0.0162593
0.00486187
0.00287634
0.0010926
0.00038196
5.84936e-06
-0.00548809
-0.0183122
-0.0368756
-0.0588203
-0.0826394
-0.107657
-0.133604
-0.160391
-0.187985
-0.216366
-0.245516
-0.275422
-0.30608
-0.337496
-0.369693
-0.402702
-0.436569
-0.471347
-0.507094
-0.543875
-0.581756
-0.620805
-0.661088
-0.702674
-0.745625
-0.790001
-0.835859
-0.883247
-0.932206
-0.982769
-1.03495
-1.08877
-0.000663395
-0.000334504
0.00125469
0.00118656
0.000665359
8.12759e-05
0.000245026
-0.000445019
-0.00634102
-0.0187877
-0.0362523
-0.0567333
-0.0790014
-0.102472
-0.126897
-0.152178
-0.178276
-0.205169
-0.232843
-0.26129
-0.290511
-0.320518
-0.351335
-0.382998
-0.415553
-0.449053
-0.48356
-0.519137
-0.555853
-0.593778
-0.632981
-0.67353
-0.715491
-0.758927
-0.803895
-0.850444
-0.898619
-0.948451
-0.999961
-1.05315
-0.000121852
-0.000250405
3.73535e-05
0.000120303
5.23049e-05
-7.51347e-05
0.000229424
-0.00097444
-0.0073096
-0.0194573
-0.0358824
-0.0549361
-0.0756639
-0.0975844
-0.120475
-0.144235
-0.16882
-0.194205
-0.220377
-0.24733
-0.275071
-0.303613
-0.332985
-0.363222
-0.394373
-0.426491
-0.459638
-0.49388
-0.529285
-0.565924
-0.603868
-0.643186
-0.683944
-0.726207
-0.770033
-0.815471
-0.862564
-0.911345
-0.961833
-1.01402
-1.42547e-05
-9.5771e-05
-6.29196e-05
-2.04183e-05
-1.95891e-05
-3.78492e-05
0.000185401
-0.00165194
-0.00839846
-0.0201894
-0.0355481
-0.0532008
-0.0724167
-0.0928058
-0.11417
-0.136411
-0.159478
-0.183344
-0.207995
-0.233429
-0.259652
-0.286684
-0.314551
-0.343293
-0.372957
-0.403599
-0.435278
-0.468063
-0.502021
-0.537223
-0.57374
-0.611643
-0.650997
-0.691867
-0.734309
-0.778373
-0.8241
-0.87152
-0.920651
-0.971486
3.19521e-06
-2.48564e-05
-3.46189e-05
-1.02536e-05
-3.61944e-05
2.96686e-05
1.4732e-05
-0.00251623
-0.00958537
-0.0208534
-0.0350946
-0.051372
-0.0691163
-0.0880064
-0.107866
-0.128598
-0.150149
-0.172491
-0.195609
-0.219502
-0.244179
-0.269659
-0.295971
-0.323155
-0.351258
-0.380336
-0.410449
-0.441664
-0.474048
-0.507673
-0.542608
-0.578921
-0.616681
-0.655947
-0.696776
-0.739215
-0.783304
-0.829069
-0.876523
-0.925658
1.9665e-06
-3.07185e-06
-1.01161e-05
2.92359e-06
-2.73093e-05
7.81615e-05
-0.00033821
-0.00357399
-0.0107235
-0.0212985
-0.0344072
-0.0493471
-0.0656678
-0.083099
-0.101481
-0.120721
-0.140764
-0.161581
-0.183158
-0.205493
-0.228596
-0.252489
-0.2772
-0.30277
-0.329245
-0.35668
-0.385137
-0.414678
-0.445371
-0.477286
-0.510491
-0.545053
-0.581037
-0.618502
-0.657502
-0.69808
-0.740272
-0.784102
-0.829578
-0.87669
9.26717e-07
-9.18256e-07
-1.08079e-06
-2.09698e-06
-6.28484e-06
5.78429e-05
-0.00091381
-0.00465965
-0.0116202
-0.0214159
-0.0334095
-0.0470637
-0.0620143
-0.0780295
-0.0949649
-0.112732
-0.131277
-0.15057
-0.170599
-0.191361
-0.212869
-0.235142
-0.258211
-0.282115
-0.306901
-0.332622
-0.359337
-0.387109
-0.416003
-0.446086
-0.477424
-0.510083
-0.544123
-0.579601
-0.616568
-0.655063
-0.695118
-0.736751
-0.779969
-0.824756
7.58165e-07
-1.094e-06
2.45193e-06
-8.78989e-06
2.4237e-05
-8.39204e-05
-0.0016011
-0.00554898
-0.0121473
-0.0211441
-0.0320658
-0.0444933
-0.0581274
-0.0727687
-0.0882874
-0.104601
-0.121658
-0.139431
-0.157906
-0.177083
-0.196974
-0.217599
-0.238989
-0.261182
-0.284222
-0.308163
-0.33306
-0.358974
-0.385967
-0.414105
-0.443449
-0.474063
-0.506003
-0.539323
-0.574067
-0.610273
-0.647967
-0.687164
-0.727865
-0.770053
4.76392e-07
-9.51606e-07
2.66378e-06
-9.55672e-06
3.87318e-05
-0.000330733
-0.00218337
-0.00609705
-0.0122612
-0.0204755
-0.0303766
-0.0416337
-0.0540008
-0.0673066
-0.0814362
-0.0963143
-0.111894
-0.128148
-0.145065
-0.162645
-0.180901
-0.199853
-0.21953
-0.239969
-0.261214
-0.283313
-0.306322
-0.330297
-0.355298
-0.381386
-0.40862
-0.437058
-0.466755
-0.497757
-0.530105
-0.563833
-0.598963
-0.635504
-0.673453
-0.712792
1.11634e-07
-2.90378e-07
8.32008e-07
-2.79843e-06
1.72632e-05
-0.000575616
-0.0025361
-0.00629679
-0.0119909
-0.0194433
-0.0283682
-0.0385026
-0.049644
-0.061647
-0.0744114
-0.0878699
-0.10198
-0.116718
-0.132073
-0.148047
-0.164651
-0.181907
-0.19984
-0.218488
-0.23789
-0.258094
-0.27915
-0.301113
-0.324038
-0.347981
-0.372998
-0.399143
-0.426464
-0.455004
-0.4848
-0.515879
-0.548259
-0.581947
-0.616936
-0.653204
-2.90943e-07
9.82843e-07
-2.23419e-06
6.87502e-06
-2.91817e-05
-0.000733221
-0.0026727
-0.00620543
-0.0113994
-0.018101
-0.0260814
-0.035129
-0.0450773
-0.0558039
-0.0672225
-0.0792745
-0.0919227
-0.105146
-0.118935
-0.133294
-0.148232
-0.16377
-0.179934
-0.196756
-0.214275
-0.232534
-0.251582
-0.271466
-0.292239
-0.313953
-0.336657
-0.360402
-0.38523
-0.411179
-0.438281
-0.46656
-0.496028
-0.526688
-0.558531
-0.591534
-4.32919e-07
1.58976e-06
-3.72974e-06
1.18334e-05
-7.11715e-05
-0.000799622
-0.00264453
-0.00588728
-0.0105528
-0.0165064
-0.0235619
-0.0315479
-0.0403274
-0.0497979
-0.0598863
-0.0705426
-0.0817348
-0.0934448
-0.105666
-0.118401
-0.131661
-0.145464
-0.159834
-0.174801
-0.190402
-0.206674
-0.223662
-0.24141
-0.259966
-0.279374
-0.299683
-0.320934
-0.343165
-0.36641
-0.390696
-0.416041
-0.442455
-0.469937
-0.498475
-0.528046
-4.08495e-07
1.37901e-06
-3.25649e-06
1.15681e-05
-9.41652e-05
-0.000798712
-0.00249391
-0.00539763
-0.00950977
-0.014713
-0.0208552
-0.0277967
-0.0354249
-0.0436549
-0.0524257
-0.0616954
-0.0714372
-0.0816362
-0.0922873
-0.103393
-0.114965
-0.127019
-0.139576
-0.152665
-0.166316
-0.180566
-0.195453
-0.211016
-0.227297
-0.244337
-0.262178
-0.280855
-0.300402
-0.320847
-0.342212
-0.364512
-0.387752
-0.411929
-0.437029
-0.46303
-3.49821e-07
1.11752e-06
-2.63085e-06
1.00555e-05
-0.000101813
-0.000749014
-0.00225294
-0.00478075
-0.00831939
-0.0127687
-0.0180044
-0.0239132
-0.0304035
-0.0374058
-0.0448701
-0.0527621
-0.0610598
-0.0697514
-0.078833
-0.0883079
-0.0981853
-0.10848
-0.119211
-0.130404
-0.142084
-0.154284
-0.167036
-0.180375
-0.194337
-0.208958
-0.224273
-0.240312
-0.257103
-0.274671
-0.293032
-0.312197
-0.332168
-0.35294
-0.374497
-0.396816
-2.88435e-07
9.06058e-07
-2.15152e-06
8.49551e-06
-9.80243e-05
-0.000663748
-0.00194645
-0.00407227
-0.00702323
-0.0107162
-0.0150511
-0.0199375
-0.0253021
-0.0310894
-0.0372592
-0.0437842
-0.0506471
-0.0578386
-0.065356
-0.0732024
-0.081386
-0.0899194
-0.0988192
-0.108106
-0.117802
-0.127935
-0.138531
-0.149621
-0.161234
-0.1734
-0.186148
-0.199504
-0.21349
-0.228125
-0.243422
-0.259389
-0.276025
-0.293321
-0.311261
-0.329821
-2.23434e-07
7.25387e-07
-1.75604e-06
6.98798e-06
-8.59541e-05
-0.000553407
-0.00159465
-0.00330246
-0.00565879
-0.00859732
-0.0120402
-0.0159171
-0.0201715
-0.0247604
-0.0296528
-0.0348277
-0.0402719
-0.0459785
-0.0519456
-0.0581762
-0.064677
-0.0714582
-0.0785335
-0.0859192
-0.0936341
-0.101699
-0.110137
-0.118971
-0.128225
-0.137923
-0.148089
-0.158741
-0.169899
-0.181576
-0.193782
-0.206521
-0.219791
-0.233581
-0.247873
-0.262639
-1.46722e-07
5.44509e-07
-1.37556e-06
5.44169e-06
-6.83597e-05
-0.000427003
-0.00121608
-0.00250078
-0.0042657
-0.00646117
-0.00902979
-0.01192
-0.0150903
-0.0185093
-0.0221544
-0.0260103
-0.0300676
-0.0343213
-0.0387704
-0.0434171
-0.0482667
-0.053327
-0.0586084
-0.0641231
-0.0698855
-0.0759112
-0.0822174
-0.0888217
-0.095742
-0.102996
-0.110602
-0.118574
-0.126925
-0.135665
-0.144802
-0.154337
-0.164266
-0.174579
-0.185254
-0.19626
-8.55071e-08
3.69657e-07
-9.69612e-07
3.80319e-06
-4.76642e-05
-0.000293178
-0.000829623
-0.00169919
-0.00289067
-0.00437049
-0.00610023
-0.0080455
-0.0101787
-0.012479
-0.0149312
-0.0175255
-0.0202554
-0.0231179
-0.0261123
-0.0292403
-0.0325054
-0.035913
-0.0394701
-0.0431851
-0.0470677
-0.0511286
-0.0553793
-0.0598318
-0.0644981
-0.0693907
-0.0745208
-0.0798985
-0.0855326
-0.09143
-0.0975946
-0.104027
-0.110724
-0.117676
-0.124864
-0.132256
-3.77378e-08
1.77268e-07
-4.7286e-07
1.84909e-06
-2.30307e-05
-0.000141441
-0.000399784
-0.000818326
-0.00139161
-0.00210341
-0.00293522
-0.00387051
-0.00489604
-0.00600183
-0.00718071
-0.00842784
-0.00974026
-0.0111165
-0.0125561
-0.0140601
-0.01563
-0.0172686
-0.0189792
-0.0207658
-0.0226331
-0.0245863
-0.0266308
-0.0287725
-0.0310172
-0.0333709
-0.0358389
-0.0384262
-0.0411368
-0.0439742
-0.0469402
-0.0500351
-0.0532568
-0.0566003
-0.0600544
-0.0635907
-1.18845
-1.27576
-1.27757
-1.25935
-1.23363
-1.20418
-1.17259
-1.13965
-1.10582
-1.0714
-1.03658
-1.00148
-0.966211
-0.930826
-0.895379
-0.859907
-0.824437
-0.788989
-0.753576
-0.718209
-0.682896
-0.64764
-0.612445
-0.577313
-0.542244
-0.507238
-0.472296
-0.437418
-0.402604
-0.367859
-0.333185
-0.298593
-0.264096
-0.229723
-0.19552
-0.161576
-0.128069
-0.0953691
-0.0641314
-0.030822
-1.18911
-1.2796
-1.28264
-1.26444
-1.23847
-1.20873
-1.17685
-1.14364
-1.10958
-1.07493
-1.0399
-1.00462
-0.969166
-0.933614
-0.898009
-0.862388
-0.826776
-0.791192
-0.75565
-0.72016
-0.684727
-0.649357
-0.614051
-0.578811
-0.543638
-0.508531
-0.47349
-0.438515
-0.403608
-0.36877
-0.334006
-0.299325
-0.264741
-0.230282
-0.195995
-0.161968
-0.128379
-0.0956009
-0.0642885
-0.0308981
-1.19058
-1.28158
-1.28548
-1.26822
-1.24278
-1.2133
-1.18151
-1.1483
-1.11417
-1.07942
-1.04426
-1.00883
-0.973224
-0.937512
-0.901747
-0.865963
-0.830188
-0.794442
-0.758739
-0.723089
-0.687499
-0.651972
-0.616513
-0.581121
-0.545798
-0.510543
-0.475357
-0.440238
-0.405188
-0.37021
-0.335307
-0.300488
-0.265768
-0.231173
-0.196752
-0.162594
-0.128876
-0.0959714
-0.0645393
-0.0310194
-1.19139
-1.28392
-1.28853
-1.27175
-1.24671
-1.21752
-1.18593
-1.15282
-1.11873
-1.08398
-1.04877
-1.01327
-0.977569
-0.941745
-0.905852
-0.869932
-0.834012
-0.798116
-0.762258
-0.72645
-0.690699
-0.65501
-0.619387
-0.583831
-0.548344
-0.512924
-0.477573
-0.44229
-0.407076
-0.371933
-0.336867
-0.301886
-0.267004
-0.232248
-0.197667
-0.16335
-0.129476
-0.0964194
-0.0648415
-0.031165
-1.19315
-1.2859
-1.29117
-1.27492
-1.25027
-1.22137
-1.18999
-1.15703
-1.12304
-1.08833
-1.05314
-1.01761
-0.981858
-0.945962
-0.909979
-0.873952
-0.837915
-0.80189
-0.765895
-0.729943
-0.694042
-0.658199
-0.622417
-0.586699
-0.551047
-0.515461
-0.479941
-0.444488
-0.409103
-0.373789
-0.33855
-0.303396
-0.268341
-0.233413
-0.19866
-0.164171
-0.130128
-0.0969054
-0.0651687
-0.0313224
-1.19423
-1.28789
-1.29366
-1.27783
-1.25351
-1.22488
-1.19371
-1.16092
-1.12704
-1.0924
-1.05725
-1.02173
-0.985955
-0.950016
-0.91397
-0.877865
-0.841733
-0.805601
-0.769488
-0.733409
-0.697373
-0.661387
-0.625457
-0.589586
-0.553776
-0.518028
-0.482344
-0.446724
-0.411169
-0.375683
-0.340271
-0.304943
-0.269713
-0.234608
-0.199679
-0.165015
-0.130797
-0.0974045
-0.065505
-0.0314844
-1.19602
-1.2898
-1.29598
-1.28051
-1.2565
-1.22812
-1.19714
-1.1645
-1.13074
-1.09619
-1.06108
-1.02559
-0.989815
-0.953853
-0.917765
-0.881599
-0.845392
-0.809172
-0.772958
-0.736767
-0.70061
-0.664495
-0.628429
-0.592415
-0.556457
-0.520556
-0.484715
-0.448933
-0.413214
-0.377562
-0.34198
-0.30648
-0.271077
-0.235799
-0.200695
-0.165856
-0.131465
-0.0979023
-0.0658401
-0.0316456
-1.19731
-1.29164
-1.29818
-1.28302
-1.25927
-1.2311
-1.20031
-1.16782
-1.13417
-1.0997
-1.06466
-1.02919
-0.993433
-0.957461
-0.921344
-0.885132
-0.848865
-0.812569
-0.776268
-0.739979
-0.703714
-0.667483
-0.631292
-0.595147
-0.55905
-0.523006
-0.487015
-0.451081
-0.415205
-0.379392
-0.343647
-0.307982
-0.272411
-0.236963
-0.201689
-0.166679
-0.132119
-0.09839
-0.0661682
-0.0318033
-1.19909
-1.29347
-1.30027
-1.28538
-1.26185
-1.23388
-1.20326
-1.1709
-1.13736
-1.10298
-1.06799
-1.03256
-0.996819
-0.960845
-0.924709
-0.888462
-0.852143
-0.815784
-0.779408
-0.743032
-0.70667
-0.670333
-0.634028
-0.597761
-0.561537
-0.525358
-0.489228
-0.453149
-0.417124
-0.381158
-0.345257
-0.309432
-0.2737
-0.23809
-0.202651
-0.167477
-0.132752
-0.0988621
-0.0664862
-0.0319564
-1.20053
-1.29523
-1.30228
-1.28761
-1.26429
-1.23649
-1.20601
-1.17377
-1.14033
-1.10603
-1.0711
-1.03571
-0.99999
-0.964019
-0.927869
-0.891594
-0.855234
-0.81882
-0.782377
-0.745924
-0.709475
-0.673041
-0.636632
-0.600252
-0.563909
-0.527604
-0.491343
-0.455128
-0.418962
-0.382851
-0.346802
-0.310826
-0.27494
-0.239173
-0.203576
-0.168244
-0.133362
-0.0993165
-0.0667922
-0.0321036
-1.20228
-1.29699
-1.30422
-1.28974
-1.26658
-1.23894
-1.20859
-1.17647
-1.14312
-1.10889
-1.07402
-1.03867
-1.00296
-0.966998
-0.93084
-0.894542
-0.858146
-0.821684
-0.785182
-0.74866
-0.712131
-0.675609
-0.639103
-0.60262
-0.566165
-0.529744
-0.493359
-0.457016
-0.420717
-0.384469
-0.348279
-0.312159
-0.276126
-0.24021
-0.204463
-0.168979
-0.133945
-0.0997524
-0.0670854
-0.0322446
-1.20383
-1.2987
-1.3061
-1.29178
-1.26877
-1.24125
-1.21102
-1.179
-1.14573
-1.11157
-1.07675
-1.04144
-1.00576
-0.9698
-0.933636
-0.897319
-0.860892
-0.824388
-0.787833
-0.751247
-0.714646
-0.678044
-0.641448
-0.604868
-0.56831
-0.531779
-0.495279
-0.458814
-0.42239
-0.386013
-0.349689
-0.313431
-0.277259
-0.241201
-0.20531
-0.169682
-0.134504
-0.100169
-0.067366
-0.0323797
-1.20558
-1.30042
-1.30793
-1.29374
-1.27086
-1.24346
-1.21333
-1.18139
-1.1482
-1.1141
-1.07933
-1.04405
-1.00839
-0.972441
-0.936273
-0.89994
-0.863486
-0.826944
-0.79034
-0.753696
-0.717029
-0.680351
-0.643673
-0.607003
-0.570348
-0.533714
-0.497105
-0.460527
-0.423984
-0.387483
-0.351033
-0.314646
-0.27834
-0.242147
-0.206119
-0.170353
-0.135038
-0.100567
-0.067634
-0.0325087
-1.20719
-1.30209
-1.30971
-1.29563
-1.27286
-1.24556
-1.21552
-1.18366
-1.15054
-1.1165
-1.08177
-1.04652
-1.01088
-0.974937
-0.938765
-0.902418
-0.865939
-0.829362
-0.792714
-0.756018
-0.719288
-0.682541
-0.645786
-0.609031
-0.572285
-0.535554
-0.498843
-0.462157
-0.425503
-0.388885
-0.352315
-0.315804
-0.279371
-0.243049
-0.206891
-0.170993
-0.135547
-0.100947
-0.06789
-0.0326317
-1.20894
-1.30378
-1.31146
-1.29747
-1.27479
-1.24758
-1.21761
-1.18583
-1.15276
-1.11877
-1.08408
-1.04886
-1.01324
-0.977301
-0.941126
-0.904766
-0.868264
-0.831655
-0.794967
-0.75822
-0.721434
-0.684621
-0.647793
-0.61096
-0.574129
-0.537306
-0.500499
-0.463711
-0.42695
-0.390222
-0.353537
-0.316909
-0.280356
-0.243911
-0.207629
-0.171606
-0.136034
-0.10131
-0.0681347
-0.0327496
-1.2106
-1.30543
-1.31317
-1.29926
-1.27666
-1.24952
-1.21962
-1.1879
-1.15489
-1.12093
-1.08628
-1.05108
-1.01547
-0.979546
-0.943368
-0.906996
-0.870473
-0.833834
-0.797108
-0.760315
-0.723475
-0.686601
-0.649705
-0.612797
-0.575886
-0.538977
-0.502077
-0.465193
-0.428331
-0.391498
-0.354705
-0.317964
-0.281297
-0.244735
-0.208333
-0.172191
-0.136499
-0.101657
-0.0683686
-0.0328621
-1.21236
-1.30709
-1.31486
-1.30101
-1.27848
-1.2514
-1.22156
-1.18988
-1.15692
-1.123
-1.08838
-1.0532
-1.01761
-0.981686
-0.945504
-0.90912
-0.872577
-0.83591
-0.799147
-0.762311
-0.72542
-0.688488
-0.651528
-0.61455
-0.577562
-0.540571
-0.503584
-0.466609
-0.429651
-0.392718
-0.355821
-0.318973
-0.282196
-0.245523
-0.209008
-0.17275
-0.136944
-0.10199
-0.0685924
-0.0329696
-1.21406
-1.30873
-1.31652
-1.30273
-1.28024
-1.25322
-1.22343
-1.1918
-1.15887
-1.12499
-1.09039
-1.05523
-1.01965
-0.98373
-0.947544
-0.911148
-0.874585
-0.837891
-0.801094
-0.764217
-0.727277
-0.690291
-0.65327
-0.616225
-0.579164
-0.542095
-0.505026
-0.467963
-0.430913
-0.393885
-0.356889
-0.31994
-0.283058
-0.246278
-0.209654
-0.173287
-0.137371
-0.102308
-0.0688071
-0.0330731
-1.21582
-1.31037
-1.31816
-1.30441
-1.28197
-1.25499
-1.22524
-1.19365
-1.16075
-1.1269
-1.09232
-1.05718
-1.02161
-0.985689
-0.949498
-0.91309
-0.876508
-0.839788
-0.802958
-0.766041
-0.729056
-0.692017
-0.654938
-0.617829
-0.580699
-0.543556
-0.506408
-0.469261
-0.432124
-0.395004
-0.357914
-0.320867
-0.283885
-0.247002
-0.210274
-0.173802
-0.13778
-0.102614
-0.069013
-0.0331722
-1.21755
-1.312
-1.31979
-1.30606
-1.28366
-1.25671
-1.227
-1.19544
-1.16258
-1.12875
-1.09418
-1.05906
-1.02349
-0.987573
-0.951375
-0.914954
-0.878354
-0.841608
-0.804746
-0.767792
-0.730762
-0.693673
-0.656539
-0.619368
-0.582172
-0.544958
-0.507734
-0.470508
-0.433287
-0.396079
-0.358898
-0.321757
-0.284679
-0.247698
-0.21087
-0.174297
-0.138174
-0.102908
-0.069211
-0.0332673
-1.21933
-1.31363
-1.3214
-1.30769
-1.28532
-1.2584
-1.22872
-1.19719
-1.16435
-1.13053
-1.09599
-1.06087
-1.02531
-0.989388
-0.953184
-0.91675
-0.88013
-0.84336
-0.806467
-0.769475
-0.732403
-0.695267
-0.658078
-0.620849
-0.58359
-0.546307
-0.509011
-0.471707
-0.434405
-0.397114
-0.359846
-0.322615
-0.285444
-0.248368
-0.211444
-0.174773
-0.138553
-0.103191
-0.0694019
-0.0333593
-1.22108
-1.31526
-1.32301
-1.30931
-1.28695
-1.26006
-1.2304
-1.19889
-1.16607
-1.13227
-1.09774
-1.06263
-1.02707
-0.991144
-0.954932
-0.918484
-0.881845
-0.84505
-0.808127
-0.7711
-0.733986
-0.696803
-0.659563
-0.622278
-0.584957
-0.547608
-0.510242
-0.472865
-0.435485
-0.398113
-0.36076
-0.323442
-0.286182
-0.249015
-0.211998
-0.175233
-0.138919
-0.103465
-0.0695861
-0.0334479
-1.22287
-1.31688
-1.3246
-1.3109
-1.28856
-1.26169
-1.23205
-1.20056
-1.16775
-1.13396
-1.09944
-1.06433
-1.02877
-0.992848
-0.956626
-0.920164
-0.883506
-0.846686
-0.809733
-0.772671
-0.735517
-0.698289
-0.660999
-0.623658
-0.586278
-0.548867
-0.511432
-0.473983
-0.436529
-0.399078
-0.361644
-0.324242
-0.286895
-0.24964
-0.212533
-0.175678
-0.139273
-0.103729
-0.0697642
-0.0335334
-1.22464
-1.31851
-1.32618
-1.31248
-1.29015
-1.2633
-1.23367
-1.20219
-1.16939
-1.13562
-1.1011
-1.066
-1.03044
-0.994504
-0.958273
-0.921796
-0.885118
-0.848274
-0.811292
-0.774194
-0.737002
-0.699729
-0.66239
-0.624997
-0.587559
-0.550085
-0.512585
-0.475067
-0.43754
-0.400013
-0.3625
-0.325017
-0.287587
-0.250246
-0.213052
-0.17611
-0.139617
-0.103985
-0.069937
-0.0336168
-1.22644
-1.32013
-1.32776
-1.31405
-1.29173
-1.26488
-1.23527
-1.2038
-1.17101
-1.13724
-1.10273
-1.06762
-1.03206
-0.996121
-0.959878
-0.923386
-0.886688
-0.849819
-0.812807
-0.775676
-0.738445
-0.701129
-0.663743
-0.626297
-0.588803
-0.55127
-0.513706
-0.476121
-0.438522
-0.400922
-0.363333
-0.32577
-0.288259
-0.250835
-0.213557
-0.176529
-0.13995
-0.104235
-0.0701049
-0.0336975
-1.22824
-1.32176
-1.32934
-1.31562
-1.29329
-1.26645
-1.23684
-1.20538
-1.1726
-1.13883
-1.10432
-1.06922
-1.03365
-0.997702
-0.961447
-0.924939
-0.888221
-0.851327
-0.814286
-0.777122
-0.739852
-0.702494
-0.665061
-0.627565
-0.590016
-0.552424
-0.514798
-0.477146
-0.439479
-0.401807
-0.364143
-0.326504
-0.288914
-0.251409
-0.214048
-0.176937
-0.140275
-0.104477
-0.0702683
-0.033776
-1.23005
-1.32339
-1.33091
-1.31717
-1.29485
-1.26801
-1.2384
-1.20694
-1.17417
-1.1404
-1.10589
-1.07078
-1.03521
-0.999253
-0.962985
-0.92646
-0.889721
-0.852802
-0.815733
-0.778535
-0.741228
-0.703828
-0.666349
-0.628803
-0.5912
-0.553551
-0.515864
-0.478148
-0.440414
-0.402671
-0.364934
-0.32722
-0.289553
-0.251969
-0.214528
-0.177335
-0.140592
-0.104714
-0.0704281
-0.033853
-1.23186
-1.32502
-1.33247
-1.31872
-1.29639
-1.26955
-1.23995
-1.20849
-1.17571
-1.14195
-1.10744
-1.07233
-1.03674
-1.00078
-0.964496
-0.927954
-0.891194
-0.85425
-0.817151
-0.77992
-0.742576
-0.705135
-0.667611
-0.630016
-0.59236
-0.554654
-0.516907
-0.479129
-0.441328
-0.403517
-0.365709
-0.327921
-0.290178
-0.252517
-0.214997
-0.177725
-0.140903
-0.104946
-0.0705843
-0.0339282
-1.23368
-1.32665
-1.33404
-1.32026
-1.29793
-1.27108
-1.24148
-1.21003
-1.17725
-1.14348
-1.10896
-1.07385
-1.03826
-1.00228
-0.965985
-0.929425
-0.892644
-0.855675
-0.818547
-0.781282
-0.743901
-0.706419
-0.66885
-0.631206
-0.593499
-0.555738
-0.517932
-0.480091
-0.442226
-0.404347
-0.366469
-0.328609
-0.290791
-0.253054
-0.215458
-0.178108
-0.141207
-0.105174
-0.0707375
-0.0340017
-1.23551
-1.32828
-1.33561
-1.32181
-1.29946
-1.27261
-1.243
-1.21155
-1.17877
-1.145
-1.11048
-1.07536
-1.03976
-1.00377
-0.967456
-0.930878
-0.894074
-0.85708
-0.819922
-0.782625
-0.745207
-0.707684
-0.670071
-0.632379
-0.59462
-0.556804
-0.51894
-0.481038
-0.443109
-0.405164
-0.367216
-0.329285
-0.291395
-0.253583
-0.21591
-0.178484
-0.141507
-0.105397
-0.0708884
-0.0340744
-1.23734
-1.32992
-1.33718
-1.32335
-1.30099
-1.27413
-1.24452
-1.21306
-1.18028
-1.14651
-1.11198
-1.07685
-1.04124
-1.00524
-0.968912
-0.932314
-0.895488
-0.858468
-0.821282
-0.783951
-0.746496
-0.708933
-0.671275
-0.633536
-0.595726
-0.557856
-0.519934
-0.481972
-0.44398
-0.405969
-0.367953
-0.329952
-0.291989
-0.254104
-0.216357
-0.178855
-0.141802
-0.105618
-0.071037
-0.0341459
-1.23918
-1.33157
-1.33875
-1.32489
-1.30251
-1.27565
-1.24604
-1.21457
-1.18178
-1.14801
-1.11347
-1.07833
-1.04271
-1.0067
-0.970356
-0.933739
-0.896891
-0.859844
-0.822628
-0.785265
-0.747773
-0.710169
-0.672468
-0.634681
-0.59682
-0.558896
-0.520917
-0.482895
-0.444841
-0.406764
-0.368682
-0.330611
-0.292577
-0.254619
-0.216798
-0.179221
-0.142093
-0.105836
-0.0711838
-0.0342164
-1.24103
-1.33321
-1.34032
-1.32643
-1.30404
-1.27717
-1.24755
-1.21608
-1.18328
-1.1495
-1.11496
-1.07981
-1.04418
-1.00815
-0.971792
-0.935155
-0.898284
-0.861211
-0.823965
-0.786568
-0.749039
-0.711396
-0.67365
-0.635817
-0.597905
-0.559927
-0.521892
-0.483811
-0.445693
-0.407553
-0.369403
-0.331263
-0.293159
-0.255129
-0.217235
-0.179584
-0.142382
-0.106051
-0.0713293
-0.0342865
-1.24288
-1.33487
-1.3419
-1.32798
-1.30557
-1.27868
-1.24906
-1.21758
-1.18478
-1.15099
-1.11644
-1.08129
-1.04564
-1.0096
-0.973222
-0.936565
-0.899671
-0.862572
-0.825295
-0.787865
-0.750299
-0.712615
-0.674826
-0.636945
-0.598983
-0.560951
-0.52286
-0.484719
-0.44654
-0.408335
-0.370119
-0.331911
-0.293737
-0.255635
-0.217668
-0.179944
-0.142669
-0.106265
-0.0714736
-0.0343559
-1.24475
-1.33652
-1.34348
-1.32952
-1.3071
-1.2802
-1.25057
-1.21909
-1.18628
-1.15248
-1.11792
-1.08276