/*--------------------------------*- C++ -*----------------------------------*\
| =========                 |                                                 |
| \\      /  F ield         | OpenFOAM: The Open Source CFD Toolbox           |
|  \\    /   O peration     | Version:  2.3.0                                 |
|   \\  /    A nd           | Web:      www.OpenFOAM.org                      |
|    \\/     M anipulation  |                                                 |
\*---------------------------------------------------------------------------*/
FoamFile
{
    version     2.0;
    format      ascii;
    class       volScalarField;
    location    "10000";
    object      yPlus;
}
// * * * * * * * * * * * * * * * * * * * * * * * * * * * * * * * * * * * * * //

dimensions      [0 0 0 0 0 0 0];

internalField   uniform 0;

boundaryField
{
    inlet
    {
        type            calculated;
        value           uniform 0;
    }
    outlet
    {
        type            calculated;
        value           uniform 0;
    }
    fixedWalls
    {
        type            calculated;
        value           nonuniform List<scalar> 
482
(
7.14348
9.68911
11.9005
14.2509
17.4083
22.2428
27.697
32.9782
37.9844
42.5198
46.6345
50.3162
53.6243
56.6018
59.2973
61.7541
64.0065
66.0934
68.0344
69.8688
71.6058
73.2896
74.923
76.5578
78.1933
79.8936
81.6524
83.5424
85.5475
87.7366
90.0761
92.6129
95.3094
98.1623
101.171
104.167
107.387
110.212
113.599
107.247
24.9206
24.7961
24.7646
24.7407
24.7336
24.7314
24.7439
24.757
24.7818
24.8046
24.838
24.8686
24.9077
24.945
24.9884
25.0309
25.0784
25.1251
25.1755
25.2261
25.2792
25.3327
25.3887
25.4448
25.5029
25.5617
25.6217
25.6826
25.7449
25.8077
25.8718
25.9369
26.0026
26.0693
26.1372
26.2055
26.2749
26.3454
26.4163
26.4884
26.5615
26.635
26.7096
26.7853
26.8615
26.9388
27.0172
27.0961
27.1762
27.2573
27.339
27.4221
27.5062
27.5909
27.6769
27.7641
27.8521
27.9413
28.032
28.1233
28.2162
28.3105
28.4056
28.5023
28.6006
28.6999
28.8008
28.9036
29.0074
29.1132
29.2209
29.33
29.4412
29.5546
29.6695
29.7869
29.9067
30.0285
30.1531
30.2804
30.4101
30.5431
30.6793
30.8184
30.9613
31.108
31.2583
31.413
31.5725
31.7362
31.9053
32.0801
32.26
32.4464
32.6394
32.8388
33.0459
33.2612
33.4849
33.7176
33.9589
34.2079
34.465
34.7286
34.9951
35.2622
35.5198
35.7558
35.9254
35.9951
35.985
35.7051
35.2016
34.368
33.8374
33.8211
35.9104
40.3323
46.3626
52.2042
5.54692
5.54692
12.8727
11.5175
11.0407
10.9813
11.0497
11.1426
11.2338
11.3237
11.4159
11.5159
11.6364
11.7677
11.9076
12.0573
12.2175
12.3893
12.5735
12.7703
12.9797
13.201
13.4352
13.6811
13.9354
14.1908
14.4347
14.6373
14.7475
14.6437
14.0808
5.03386
4.96371
4.97733
4.96616
4.95789
4.95065
4.94381
4.93727
4.9308
4.9243
4.91733
4.91
4.90229
4.89419
4.88559
4.87648
4.8668
4.85658
4.84579
4.83453
4.82289
4.81074
4.7983
4.7856
4.77262
4.75962
4.7466
4.7336
4.72077
4.70809
4.69568
4.68353
4.67167
4.66018
4.6491
4.63839
4.62808
4.61815
4.6086
4.59946
4.59074
4.58239
4.57436
4.56672
4.55947
4.55262
4.54622
4.54023
4.53468
4.52957
4.52492
4.52077
4.51725
4.51441
4.51234
4.51108
4.51058
4.51083
4.51222
4.51559
4.52152
4.52965
4.53891
4.54841
4.5581
4.56845
4.57976
4.59204
4.60496
4.61842
4.63228
4.64634
4.66056
4.67483
4.68911
4.70333
4.71746
4.73156
4.74573
4.76001
4.77446
4.78905
4.80362
4.81802
4.83184
4.8446
4.8558
4.8648
4.87071
4.87275
4.87009
4.86181
4.84701
4.8252
4.79586
4.75891
4.71531
4.66679
4.61585
4.56569
4.51969
4.48101
4.4521
4.43454
4.43043
4.44015
4.4642
4.50258
4.55481
4.62021
4.698
4.78743
4.88854
5.00101
5.12341
5.25515
5.39673
5.54788
5.70691
5.87329
6.04779
6.23014
6.41993
6.61695
6.81937
7.02833
7.24363
7.46477
7.69139
7.92318
8.16133
8.40031
8.64531
8.89418
9.14214
9.39064
9.63776
9.88076
10.1173
10.3412
10.5532
10.7502
10.9299
11.0892
11.2256
11.3368
11.4173
11.4607
11.4881
11.4759
11.425
11.3451
11.2401
11.1134
10.9695
10.811
10.6414
10.4638
10.282
10.094
9.90547
9.71724
9.52661
9.33762
9.15169
8.96616
8.78168
8.59867
8.41744
8.23818
8.06105
7.88617
7.71365
7.54146
7.36989
7.19937
7.02831
6.85735
6.68711
6.51827
6.34921
6.18099
6.01423
5.84758
5.68303
5.52258
5.36615
5.21414
5.06756
4.92606
4.79071
4.66088
4.53638
4.41398
4.28232
4.12532
3.92234
3.5877
2.35178
2.35178
13.5596
14.3436
15.4624
16.7053
17.9386
19.0964
20.1693
21.1735
22.1235
23.0358
23.9226
24.7931
25.6529
26.5044
27.3485
28.1854
29.0136
29.8317
30.6387
31.4327
32.2132
32.9798
33.7338
34.4755
35.2102
35.9374
36.6802
37.4182
38.2485
142.195
414.784
132.207
331.289
125.318
158.348
117.747
95.0862
111.425
82.7971
105.623
70.5421
100.331
68.3948
95.4756
66.4299
90.9731
64.6277
86.7588
63.1946
82.7814
61.6179
79.0045
60.184
75.401
58.7113
71.95
57.3053
68.6299
55.9035
65.4192
54.5456
62.3017
53.1878
59.2776
51.8421
56.3674
50.5215
53.5204
49.2151
50.7548
47.957
48.1016
46.73
45.596
45.5734
43.2697
44.4694
41.1419
43.4525
39.2158
42.5071
37.4837
41.6629
35.9282
40.8942
34.3865
40.1988
32.557
39.5573
30.1314
38.9453
)
;
    }
    frontAndBack
    {
        type            empty;
    }
    bottom
    {
        type            empty;
    }
    frontAndBack_pos
    {
        type            wedge;
    }
    frontAndBack_neg
    {
        type            wedge;
    }
}


// ************************************************************************* //
