/*--------------------------------*- C++ -*----------------------------------*\
| =========                 |                                                 |
| \\      /  F ield         | OpenFOAM: The Open Source CFD Toolbox           |
|  \\    /   O peration     | Version:  2.3.0                                 |
|   \\  /    A nd           | Web:      www.OpenFOAM.org                      |
|    \\/     M anipulation  |                                                 |
\*---------------------------------------------------------------------------*/
FoamFile
{
    version     2.0;
    format      ascii;
    class       volScalarField;
    location    "20";
    object      CH4;
}
// * * * * * * * * * * * * * * * * * * * * * * * * * * * * * * * * * * * * * //

dimensions      [0 0 0 0 0 0 0];

internalField   nonuniform List<scalar> 
26600
(
4.89291e-15
1.78516e-12
4.27625e-11
5.88692e-10
3.45718e-09
2.38443e-08
9.19952e-08
2.73149e-07
6.70136e-07
1.35381e-06
2.46867e-06
4.0658e-06
6.2016e-06
8.81265e-06
1.17915e-05
1.50249e-05
1.83868e-05
2.11999e-05
2.41208e-05
2.70647e-05
3.002e-05
3.29171e-05
3.56595e-05
3.81683e-05
4.05317e-05
4.27461e-05
4.47051e-05
4.65559e-05
4.82143e-05
4.98563e-05
5.13539e-05
5.2762e-05
5.42346e-05
5.55638e-05
5.70315e-05
5.82591e-05
5.96392e-05
6.0461e-05
6.17931e-05
6.30304e-05
6.92032e-13
3.95153e-11
6.77258e-10
8.4079e-09
4.03902e-08
2.78394e-07
8.52412e-07
2.09653e-06
4.22039e-06
6.79488e-06
1.10773e-05
1.6181e-05
2.25374e-05
2.94005e-05
3.63185e-05
4.33767e-05
4.9618e-05
5.64082e-05
6.30016e-05
6.88927e-05
7.45415e-05
7.96926e-05
8.42371e-05
8.83238e-05
9.15047e-05
9.43966e-05
9.69873e-05
9.86853e-05
0.000100361
0.000101805
0.000102195
0.000102042
0.000101522
0.000100657
9.92307e-05
9.77766e-05
9.54867e-05
9.36453e-05
8.9882e-05
8.73944e-05
1.2509e-11
4.65746e-10
7.20446e-09
6.38377e-08
3.07467e-07
1.3621e-06
3.13051e-06
7.05866e-06
1.22632e-05
1.99227e-05
2.94362e-05
3.95489e-05
5.04923e-05
6.10125e-05
7.1511e-05
8.10844e-05
9.01564e-05
9.82803e-05
0.000105931
0.000112452
0.000118292
0.000123119
0.000126915
0.000129803
0.000132144
0.000132034
0.000130747
0.000128988
0.000127468
0.000125066
0.000120044
0.000115444
0.00010828
0.00010203
9.34989e-05
8.60591e-05
7.84797e-05
7.08499e-05
5.7231e-05
6.91159e-05
6.33877e-11
2.58302e-09
3.63417e-08
2.56213e-07
1.11677e-06
3.83899e-06
8.24363e-06
1.65832e-05
2.63522e-05
3.84682e-05
5.28163e-05
6.71973e-05
8.2087e-05
9.53621e-05
0.000108483
0.00011972
0.000130102
0.000138939
0.000146555
0.000151915
0.000156012
0.000158328
0.000157914
0.000154741
0.000151445
0.000146521
0.00013462
0.00012893
0.000124048
0.000113484
9.65665e-05
8.19792e-05
6.40506e-05
5.44954e-05
4.37395e-05
4.43392e-05
5.23466e-05
6.36817e-05
7.77697e-05
5.73699e-06
2.94616e-10
1.14164e-08
1.25708e-07
8.20382e-07
3.2892e-06
9.26825e-06
1.753e-05
3.22336e-05
4.7649e-05
6.53461e-05
8.57526e-05
0.000104493
0.000123255
0.000138255
0.000153357
0.000164814
0.000175166
0.000183161
0.000187884
0.000188478
0.000187321
0.000180817
0.000174185
0.000157123
0.000147836
0.000139978
0.000113701
0.000126357
0.000154017
0.000185305
0.000240431
0.000314879
0.000469469
0.000642617
0.00098068
0.00153502
0.00257084
0.00422534
0.00639353
0.00199569
1.42967e-09
4.328e-08
4.358e-07
2.51162e-06
8.11519e-06
1.95817e-05
3.38617e-05
5.7831e-05
7.97976e-05
0.000104423
0.000132328
0.000154676
0.000177042
0.00019148
0.000208439
0.000217319
0.000225836
0.000230015
0.000224059
0.000214654
0.000206123
0.000183307
0.000161642
0.000234422
0.000439542
0.000815628
0.00151283
0.00312024
0.00552771
0.00762605
0.0101231
0.0125604
0.0163676
0.0195284
0.0253269
0.0297074
0.0390132
0.0471671
0.0580529
0.0373116
6.80927e-09
1.66709e-07
1.52483e-06
6.82209e-06
1.79376e-05
3.79743e-05
6.08144e-05
9.71705e-05
0.000125434
0.000158889
0.000195561
0.000218562
0.000244495
0.000254272
0.000274617
0.000274983
0.00027963
0.000288873
0.00025255
0.000320338
0.000560503
0.0014624
0.00387063
0.0067054
0.0116754
0.0166895
0.0230877
0.0354164
0.0439535
0.0515706
0.0592104
0.0677995
0.079547
0.0874355
0.103774
0.113615
0.139987
0.153336
0.18097
0.181855
3.1806e-08
7.11039e-07
4.90532e-06
1.61734e-05
3.61887e-05
6.85072e-05
0.000103037
0.00015343
0.000185774
0.000232232
0.000277302
0.000294428
0.000325831
0.000323352
0.00035497
0.000356715
0.000478358
0.0011161
0.00294832
0.00662562
0.0115476
0.018741
0.025332
0.0381214
0.0579795
0.0819385
0.100642
0.125227
0.140785
0.156482
0.168522
0.184991
0.205119
0.223208
0.246832
0.276883
0.293111
0.327735
0.349399
0.368184
1.6269e-07
2.841e-06
1.31803e-05
3.39601e-05
6.77148e-05
0.00011666
0.000165423
0.000228487
0.000261994
0.000330507
0.000377849
0.000377382
0.000423867
0.0004218
0.00095785
0.00309434
0.00837897
0.01666
0.028064
0.0398224
0.0606869
0.0834087
0.103686
0.135415
0.172503
0.203314
0.247839
0.289336
0.307747
0.320849
0.342969
0.359926
0.376403
0.39822
0.424018
0.454588
0.4931
0.52083
0.543125
0.545877
8.44236e-07
9.1074e-06
2.91558e-05
6.51576e-05
0.000119637
0.000189283
0.000252118
0.000323781
0.000357116
0.000466714
0.000493008
0.000473261
0.00117393
0.00477896
0.0145731
0.0278649
0.0543381
0.0821154
0.110759
0.123998
0.171679
0.198965
0.247842
0.283713
0.365658
0.414336
0.451815
0.488945
0.516903
0.540071
0.560703
0.582769
0.604336
0.6214
0.638561
0.649328
0.653701
0.655943
0.653142
0.644423
3.52677e-06
2.17863e-05
5.69323e-05
0.000118089
0.000202087
0.000294575
0.00036623
0.000438197
0.000459052
0.000693781
0.000996994
0.00450792
0.0159829
0.0375887
0.0836036
0.11306
0.154829
0.184412
0.227626
0.255244
0.33307
0.393941
0.457208
0.562992
0.659085
0.707688
0.721029
0.728093
0.731828
0.734976
0.735836
0.736345
0.738655
0.738175
0.735824
0.728715
0.718895
0.710304
0.695206
0.675058
9.95192e-06
4.38124e-05
0.000105793
0.000206849
0.000329031
0.000442921
0.000500955
0.000566437
0.000542959
0.00207862
0.012412
0.0350801
0.0971553
0.123093
0.185667
0.216534
0.267468
0.334249
0.401076
0.51248
0.63069
0.733932
0.766409
0.785715
0.810904
0.823366
0.82941
0.828317
0.825252
0.818605
0.810822
0.801825
0.790206
0.779708
0.765259
0.747786
0.729486
0.709804
0.688547
0.657644
2.22179e-05
8.54914e-05
0.000193716
0.000355315
0.000518703
0.000635742
0.000626261
0.000716077
0.00367448
0.0217642
0.085149
0.11973
0.191101
0.225493
0.298096
0.363917
0.49403
0.629102
0.748343
0.785973
0.818712
0.859785
0.879268
0.89266
0.89132
0.884171
0.876779
0.86392
0.851665
0.838525
0.823609
0.807569
0.790896
0.773313
0.75381
0.732599
0.711077
0.687293
0.661418
0.629985
5.01825e-05
0.000171584
0.000357935
0.000604028
0.000784732
0.000767819
0.000669686
0.00579824
0.0344063
0.11867
0.179137
0.217821
0.288163
0.358224
0.502685
0.669941
0.783096
0.811494
0.863567
0.898261
0.92551
0.929511
0.924325
0.917818
0.905462
0.891138
0.876405
0.860276
0.844936
0.828175
0.810205
0.791351
0.771767
0.751129
0.729013
0.705264
0.678648
0.650679
0.620274
0.585264
0.000127359
0.000361437
0.000686146
0.00101106
0.000998482
0.000716896
0.0071487
0.0451969
0.133993
0.219899
0.253424
0.340469
0.47671
0.650058
0.777305
0.814764
0.865611
0.92644
0.947165
0.950631
0.94737
0.940475
0.928389
0.913494
0.896452
0.87854
0.860289
0.841636
0.821455
0.80182
0.781984
0.761538
0.740224
0.717716
0.693723
0.668008
0.640142
0.610062
0.577245
0.540487
0.000312392
0.000827579
0.00139264
0.00137003
0.00114369
0.00888316
0.0503533
0.141608
0.247948
0.309079
0.431903
0.567391
0.741982
0.818255
0.848495
0.922472
0.953769
0.964737
0.96398
0.958537
0.949415
0.9335
0.915266
0.892912
0.871432
0.850578
0.83001
0.809601
0.788824
0.768268
0.747649
0.726283
0.703867
0.680148
0.654883
0.627841
0.598776
0.567497
0.533712
0.496919
0.00117524
0.00209876
0.00198364
0.00122055
0.0105654
0.0605512
0.139643
0.274363
0.34726
0.505609
0.660164
0.780505
0.826282
0.878939
0.945517
0.969163
0.975056
0.972519
0.966831
0.954223
0.934202
0.910724
0.887154
0.861488
0.838558
0.816374
0.794253
0.772595
0.750916
0.729861
0.709259
0.687387
0.664243
0.639734
0.613661
0.585841
0.556147
0.524505
0.49087
0.455221
0.00313441
0.00372666
0.00159987
0.00738046
0.0789206
0.154452
0.283925
0.393884
0.563235
0.741223
0.783527
0.84181
0.925428
0.963723
0.980184
0.982464
0.979729
0.972743
0.957137
0.934041
0.908698
0.879792
0.853578
0.823674
0.801398
0.77862
0.754583
0.732027
0.709667
0.687803
0.668728
0.646405
0.622636
0.597644
0.571187
0.543135
0.51346
0.48224
0.449646
0.415952
0.00941762
0.00433419
0.0108929
0.0653934
0.216662
0.315235
0.50724
0.661251
0.780869
0.815705
0.900835
0.949232
0.974956
0.986914
0.988128
0.985551
0.978399
0.96083
0.936856
0.906366
0.877217
0.842642
0.816967
0.786727
0.759887
0.735358
0.711899
0.689441
0.667299
0.645216
0.625377
0.60411
0.580047
0.554945
0.528552
0.500801
0.471767
0.441657
0.410778
0.379552
0.0378151
0.0292572
0.060029
0.248937
0.425982
0.644874
0.731885
0.800576
0.865178
0.934888
0.967303
0.983863
0.991832
0.992334
0.990412
0.983263
0.967194
0.939581
0.910199
0.872391
0.842508
0.806915
0.774328
0.74388
0.71644
0.691527
0.668308
0.646163
0.624488
0.603024
0.581876
0.561063
0.537413
0.512653
0.486786
0.459844
0.431995
0.40353
0.374823
0.346335
0.987882
0.748243
0.738782
0.755015
0.780966
0.833643
0.900749
0.944277
0.967776
0.982681
0.990864
0.995461
0.995685
0.993989
0.987965
0.972409
0.949357
0.912253
0.879768
0.840797
0.801378
0.764237
0.730459
0.699913
0.672543
0.647801
0.624922
0.603183
0.58197
0.560774
0.540162
0.51891
0.49582
0.471785
0.446855
0.421157
0.394936
0.368502
0.342227
0.316538
0.999187
0.983505
0.968503
0.968564
0.973237
0.982132
0.989547
0.993877
0.996537
0.997914
0.998546
0.998221
0.996824
0.991752
0.980246
0.954939
0.927185
0.888057
0.843456
0.799699
0.758492
0.720584
0.686524
0.656238
0.629303
0.605027
0.582628
0.561385
0.540745
0.520231
0.499792
0.478606
0.456337
0.433302
0.409623
0.385479
0.361136
0.336902
0.31311
0.290115
0.999885
0.999033
0.997531
0.997415
0.997546
0.998131
0.998727
0.99907
0.999409
0.999494
0.999333
0.998282
0.995168
0.984841
0.967932
0.94074
0.898911
0.852888
0.804611
0.758157
0.715722
0.677419
0.643583
0.613868
0.587608
0.563981
0.542185
0.521522
0.501618
0.481799
0.461615
0.440932
0.419621
0.397789
0.375572
0.353166
0.330822
0.308819
0.287435
0.266948
0.999974
0.999898
0.999716
0.9996
0.999585
0.999612
0.999717
0.999777
0.999805
0.999739
0.999243
0.996808
0.99115
0.979099
0.953274
0.914947
0.868081
0.817823
0.766547
0.717579
0.674087
0.635706
0.602484
0.573606
0.548171
0.52529
0.504168
0.484239
0.465333
0.445821
0.426226
0.406349
0.386132
0.365637
0.344993
0.324384
0.304032
0.28417
0.265022
0.246793
0.999993
0.999979
0.999949
0.999902
0.999887
0.999891
0.999917
0.999924
0.999899
0.999683
0.998402
0.995086
0.986725
0.96758
0.932451
0.886447
0.834167
0.77982
0.727629
0.678763
0.633952
0.596099
0.563854
0.536003
0.511493
0.489425
0.469044
0.450156
0.43189
0.412898
0.394049
0.375131
0.356096
0.336995
0.317941
0.299093
0.280634
0.262748
0.24561
0.22937
0.999998
0.999995
0.999988
0.999975
0.999966
0.999966
0.999969
0.999962
0.999884
0.999309
0.997469
0.992375
0.978016
0.94565
0.900502
0.847986
0.7922
0.736628
0.684741
0.637369
0.595221
0.55907
0.528164
0.50146
0.477929
0.456687
0.4373
0.419633
0.401303
0.383187
0.365237
0.347365
0.329546
0.311827
0.294304
0.277109
0.260384
0.244271
0.228901
0.214381
0.999999
0.999999
0.999997
0.999994
0.99999
0.99999
0.999987
0.999961
0.999754
0.998894
0.99612
0.986455
0.961393
0.920001
0.868212
0.81113
0.752995
0.697011
0.645657
0.599696
0.559653
0.52525
0.495762
0.470223
0.447664
0.427295
0.409199
0.391983
0.374117
0.356809
0.339794
0.322981
0.306354
0.289951
0.273852
0.258157
0.242978
0.228421
0.214579
0.20153
1
1
0.999999
0.999998
0.999997
0.999996
0.99999
0.99993
0.999609
0.998157
0.991967
0.975067
0.940981
0.893099
0.836509
0.776394
0.716928
0.66102
0.610505
0.565807
0.527726
0.494939
0.466789
0.442359
0.420757
0.40176
0.3845
0.367042
0.350112
0.333665
0.31758
0.301792
0.286288
0.271097
0.256282
0.24192
0.228092
0.214878
0.202343
0.190541
1
1
1
0.999999
0.999999
0.999998
0.999986
0.999884
0.999268
0.996121
0.985627
0.960847
0.919814
0.866807
0.80671
0.744585
0.684431
0.628898
0.579447
0.53637
0.499621
0.468186
0.441226
0.417788
0.397389
0.379867
0.36215
0.345348
0.329201
0.313574
0.29837
0.283535
0.269056
0.254955
0.241275
0.228074
0.215412
0.203343
0.191916
0.181165
1
1
1
1
0.999999
0.999997
0.999969
0.999758
0.998416
0.992897
0.977339
0.94571
0.89952
0.842539
0.779774
0.716225
0.655724
0.600694
0.552348
0.511146
0.475153
0.444851
0.418928
0.396478
0.37755
0.360289
0.342833
0.326614
0.311162
0.296287
0.281889
0.267916
0.254352
0.241208
0.228516
0.216314
0.204644
0.193546
0.183051
0.173183
1
1
1
1
0.999999
0.999993
0.999931
0.999466
0.997059
0.988739
0.968275
0.931703
0.88133
0.821094
0.756152
0.69149
0.630796
0.576261
0.528733
0.488415
0.453903
0.424686
0.399726
0.378795
0.360607
0.342794
0.326142
0.310541
0.295726
0.281528
0.26785
0.25464
0.241877
0.229562
0.217716
0.206364
0.195534
0.185252
0.175538
0.166407
1
1
1
1
0.999999
0.999985
0.999858
0.999009
0.995389
0.984484
0.959999
0.919606
0.865738
0.802717
0.735899
0.670287
0.609462
0.5554
0.508681
0.469187
0.43572
0.407399
0.383681
0.364278
0.345303
0.327982
0.311915
0.296869
0.282622
0.269022
0.255976
0.243429
0.231355
0.21975
0.208622
0.197986
0.187861
0.17826
0.169198
0.16068
1
1
1
1
0.999997
0.999966
0.999726
0.998474
0.993785
0.980757
0.953106
0.909596
0.852763
0.787315
0.718844
0.652398
0.591451
0.537817
0.492046
0.453015
0.420335
0.392879
0.370652
0.351389
0.33246
0.315519
0.299919
0.28535
0.271598
0.258517
0.246014
0.234034
0.222546
0.211539
0.201014
0.190977
0.181437
0.172403
0.16388
0.15587
1
1
1
0.999999
0.999993
0.999935
0.999584
0.997981
0.992425
0.977718
0.947602
0.901528
0.842184
0.774636
0.704711
0.637517
0.57643
0.523078
0.477704
0.439462
0.407442
0.381226
0.360236
0.339964
0.321662
0.305122
0.28992
0.275759
0.262428
0.249787
0.237745
0.226242
0.215244
0.204736
0.19471
0.185167
0.17611
0.16754
0.15946
0.151868
1
1
1
0.999999
0.999987
0.999903
0.999451
0.997557
0.991318
0.975306
0.943329
0.895167
0.833726
0.764388
0.693205
0.625346
0.564109
0.510961
0.46598
0.428296
0.396946
0.372094
0.351111
0.330746
0.31279
0.296585
0.281716
0.267894
0.254915
0.242642
0.23098
0.219871
0.209277
0.199177
0.189559
0.180418
0.171753
0.163561
0.15584
0.148586
1
1
1
0.999998
0.999981
0.999873
0.999336
0.997206
0.990439
0.973439
0.940084
0.890271
0.827124
0.756299
0.684054
0.615621
0.554239
0.501243
0.456576
0.419258
0.388769
0.365388
0.343142
0.323304
0.305661
0.289733
0.275136
0.26159
0.248898
0.236921
0.225568
0.214776
0.204506
0.194732
0.185439
0.176619
0.168265
0.160373
0.152938
0.145952
1
1
1
0.999997
0.999976
0.999847
0.999241
0.996929
0.989767
0.972045
0.93769
0.886622
0.822143
0.75013
0.677025
0.60812
0.54661
0.493736
0.449297
0.412275
0.38266
0.359748
0.337197
0.317564
0.300142
0.284427
0.270042
0.256713
0.244243
0.232499
0.221386
0.21084
0.200821
0.191299
0.182257
0.173683
0.165569
0.157907
0.150691
0.143911
1
1
1
0.999997
0.999972
0.999827
0.999169
0.996724
0.989282
0.971059
0.936009
0.884046
0.818588
0.745686
0.671929
0.602663
0.541052
0.48828
0.443984
0.407186
0.378269
0.35552
0.332918
0.313395
0.296121
0.280559
0.266329
0.253158
0.240853
0.229278
0.218341
0.207975
0.198138
0.1888
0.17994
0.171545
0.163605
0.15611
0.149052
0.142422
1
1
1
0.999996
0.99997
0.999813
0.999122
0.996591
0.988971
0.970434
0.934949
0.882413
0.816318
0.742829
0.668638
0.599129
0.537443
0.484696
0.440509
0.403909
0.375455
0.352758
0.330163
0.310705
0.293521
0.278056
0.263927
0.250859
0.238661
0.227196
0.216373
0.206124
0.196405
0.187185
0.178443
0.170163
0.162335
0.154947
0.147992
0.141458
1
1
1
0.999996
0.999968
0.999807
0.9991
0.99653
0.988831
0.970156
0.934478
0.881685
0.815301
0.741546
0.667156
0.597536
0.535816
0.483081
0.438932
0.40244
0.374196
0.351512
0.328925
0.309496
0.292351
0.27693
0.262846
0.249824
0.237674
0.22626
0.215487
0.205291
0.195625
0.186459
0.177769
0.169542
0.161764
0.154424
0.147514
0.141024
0.0543381
0.0543383
0.0543384
0.0543386
0.0543387
0.0543388
0.0543389
0.054339
0.0543391
0.0543392
0.0543393
0.0543394
0.0543395
0.0543396
0.0543397
0.0543398
0.0543399
0.05434
0.05434
0.0543401
0.0543402
0.0543403
0.0543403
0.0543404
0.0543405
0.0543405
0.0543406
0.0543406
0.0543407
0.0543407
0.0543408
0.0543408
0.0543408
0.0543409
0.0543409
0.0543409
0.0543409
0.0543409
0.0543409
0.0543409
0.0543381
0.0543383
0.0543385
0.0543386
0.0543387
0.0543388
0.0543389
0.054339
0.0543391
0.0543392
0.0543393
0.0543394
0.0543395
0.0543396
0.0543397
0.0543398
0.0543399
0.05434
0.05434
0.0543401
0.0543402
0.0543403
0.0543403
0.0543404
0.0543405
0.0543405
0.0543406
0.0543406
0.0543407
0.0543407
0.0543408
0.0543408
0.0543408
0.0543409
0.0543409
0.0543409
0.0543409
0.0543409
0.0543409
0.054341
0.0543381
0.0543383
0.0543385
0.0543386
0.0543387
0.0543388
0.0543389
0.054339
0.0543391
0.0543392
0.0543393
0.0543394
0.0543395
0.0543396
0.0543397
0.0543398
0.0543399
0.05434
0.0543401
0.0543401
0.0543402
0.0543403
0.0543404
0.0543404
0.0543405
0.0543405
0.0543406
0.0543407
0.0543407
0.0543407
0.0543408
0.0543408
0.0543409
0.0543409
0.0543409
0.0543409
0.0543409
0.054341
0.054341
0.054341
0.0543381
0.0543383
0.0543385
0.0543386
0.0543387
0.0543388
0.0543389
0.0543391
0.0543392
0.0543393
0.0543394
0.0543395
0.0543395
0.0543396
0.0543397
0.0543398
0.0543399
0.05434
0.0543401
0.0543402
0.0543402
0.0543403
0.0543404
0.0543404
0.0543405
0.0543406
0.0543406
0.0543407
0.0543407
0.0543408
0.0543408
0.0543408
0.0543409
0.0543409
0.0543409
0.054341
0.054341
0.054341
0.054341
0.054341
0.0543381
0.0543383
0.0543385
0.0543386
0.0543387
0.0543388
0.054339
0.0543391
0.0543392
0.0543393
0.0543394
0.0543395
0.0543396
0.0543397
0.0543398
0.0543398
0.0543399
0.05434
0.0543401
0.0543402
0.0543403
0.0543403
0.0543404
0.0543405
0.0543405
0.0543406
0.0543406
0.0543407
0.0543408
0.0543408
0.0543408
0.0543409
0.0543409
0.0543409
0.054341
0.054341
0.054341
0.054341
0.054341
0.054341
0.0543381
0.0543383
0.0543385
0.0543386
0.0543387
0.0543389
0.054339
0.0543391
0.0543392
0.0543393
0.0543394
0.0543395
0.0543396
0.0543397
0.0543398
0.0543399
0.05434
0.05434
0.0543401
0.0543402
0.0543403
0.0543404
0.0543404
0.0543405
0.0543406
0.0543406
0.0543407
0.0543407
0.0543408
0.0543408
0.0543409
0.0543409
0.0543409
0.054341
0.054341
0.054341
0.054341
0.054341
0.0543411
0.0543411
0.0543381
0.0543383
0.0543385
0.0543386
0.0543388
0.0543389
0.054339
0.0543391
0.0543392
0.0543393
0.0543394
0.0543395
0.0543396
0.0543397
0.0543398
0.0543399
0.05434
0.0543401
0.0543401
0.0543402
0.0543403
0.0543404
0.0543404
0.0543405
0.0543406
0.0543406
0.0543407
0.0543408
0.0543408
0.0543409
0.0543409
0.0543409
0.054341
0.054341
0.054341
0.054341
0.0543411
0.0543411
0.0543411
0.0543411
0.0543381
0.0543383
0.0543385
0.0543386
0.0543388
0.0543389
0.054339
0.0543391
0.0543392
0.0543393
0.0543394
0.0543395
0.0543396
0.0543397
0.0543398
0.0543399
0.05434
0.0543401
0.0543402
0.0543402
0.0543403
0.0543404
0.0543405
0.0543405
0.0543406
0.0543407
0.0543407
0.0543408
0.0543408
0.0543409
0.0543409
0.054341
0.054341
0.054341
0.054341
0.0543411
0.0543411
0.0543411
0.0543411
0.0543411
0.0543381
0.0543384
0.0543385
0.0543387
0.0543388
0.0543389
0.054339
0.0543391
0.0543392
0.0543393
0.0543394
0.0543395
0.0543396
0.0543397
0.0543398
0.0543399
0.05434
0.0543401
0.0543402
0.0543403
0.0543403
0.0543404
0.0543405
0.0543406
0.0543406
0.0543407
0.0543408
0.0543408
0.0543409
0.0543409
0.0543409
0.054341
0.054341
0.0543411
0.0543411
0.0543411
0.0543411
0.0543411
0.0543411
0.0543411
0.0543381
0.0543384
0.0543385
0.0543387
0.0543388
0.0543389
0.054339
0.0543391
0.0543392
0.0543393
0.0543394
0.0543395
0.0543396
0.0543397
0.0543398
0.0543399
0.05434
0.0543401
0.0543402
0.0543403
0.0543404
0.0543404
0.0543405
0.0543406
0.0543407
0.0543407
0.0543408
0.0543408
0.0543409
0.0543409
0.054341
0.054341
0.0543411
0.0543411
0.0543411
0.0543411
0.0543411
0.0543412
0.0543412
0.0543412
0.0543382
0.0543384
0.0543385
0.0543387
0.0543388
0.0543389
0.054339
0.0543391
0.0543392
0.0543394
0.0543395
0.0543396
0.0543397
0.0543398
0.0543399
0.05434
0.0543401
0.0543401
0.0543402
0.0543403
0.0543404
0.0543405
0.0543405
0.0543406
0.0543407
0.0543407
0.0543408
0.0543409
0.0543409
0.054341
0.054341
0.054341
0.0543411
0.0543411
0.0543411
0.0543412
0.0543412
0.0543412
0.0543412
0.0543412
0.0543382
0.0543384
0.0543385
0.0543387
0.0543388
0.0543389
0.054339
0.0543391
0.0543393
0.0543394
0.0543395
0.0543396
0.0543397
0.0543398
0.0543399
0.05434
0.0543401
0.0543402
0.0543402
0.0543403
0.0543404
0.0543405
0.0543406
0.0543406
0.0543407
0.0543408
0.0543408
0.0543409
0.0543409
0.054341
0.054341
0.0543411
0.0543411
0.0543411
0.0543412
0.0543412
0.0543412
0.0543412
0.0543412
0.0543412
0.0543382
0.0543384
0.0543385
0.0543387
0.0543388
0.0543389
0.054339
0.0543392
0.0543393
0.0543394
0.0543395
0.0543396
0.0543397
0.0543398
0.0543399
0.05434
0.0543401
0.0543402
0.0543403
0.0543404
0.0543404
0.0543405
0.0543406
0.0543407
0.0543407
0.0543408
0.0543409
0.0543409
0.054341
0.054341
0.0543411
0.0543411
0.0543411
0.0543412
0.0543412
0.0543412
0.0543412
0.0543413
0.0543413
0.0543413
0.0543382
0.0543384
0.0543386
0.0543387
0.0543388
0.0543389
0.0543391
0.0543392
0.0543393
0.0543394
0.0543395
0.0543396
0.0543397
0.0543398
0.0543399
0.05434
0.0543401
0.0543402
0.0543403
0.0543404
0.0543405
0.0543405
0.0543406
0.0543407
0.0543408
0.0543408
0.0543409
0.0543409
0.054341
0.0543411
0.0543411
0.0543411
0.0543412
0.0543412
0.0543412
0.0543413
0.0543413
0.0543413
0.0543413
0.0543413
0.0543382
0.0543384
0.0543386
0.0543387
0.0543388
0.054339
0.0543391
0.0543392
0.0543393
0.0543394
0.0543395
0.0543396
0.0543397
0.0543398
0.0543399
0.05434
0.0543401
0.0543402
0.0543403
0.0543404
0.0543405
0.0543406
0.0543406
0.0543407
0.0543408
0.0543409
0.0543409
0.054341
0.054341
0.0543411
0.0543411
0.0543412
0.0543412
0.0543412
0.0543413
0.0543413
0.0543413
0.0543413
0.0543413
0.0543413
0.0543382
0.0543384
0.0543386
0.0543387
0.0543388
0.054339
0.0543391
0.0543392
0.0543393
0.0543394
0.0543395
0.0543396
0.0543397
0.0543399
0.05434
0.0543401
0.0543402
0.0543402
0.0543403
0.0543404
0.0543405
0.0543406
0.0543407
0.0543407
0.0543408
0.0543409
0.0543409
0.054341
0.0543411
0.0543411
0.0543412
0.0543412
0.0543412
0.0543413
0.0543413
0.0543413
0.0543413
0.0543413
0.0543414
0.0543414
0.0543382
0.0543384
0.0543386
0.0543387
0.0543389
0.054339
0.0543391
0.0543392
0.0543393
0.0543394
0.0543395
0.0543397
0.0543398
0.0543399
0.05434
0.0543401
0.0543402
0.0543403
0.0543404
0.0543404
0.0543405
0.0543406
0.0543407
0.0543408
0.0543408
0.0543409
0.054341
0.054341
0.0543411
0.0543411
0.0543412
0.0543412
0.0543413
0.0543413
0.0543413
0.0543413
0.0543414
0.0543414
0.0543414
0.0543414
0.0543382
0.0543384
0.0543386
0.0543387
0.0543389
0.054339
0.0543391
0.0543392
0.0543393
0.0543394
0.0543396
0.0543397
0.0543398
0.0543399
0.05434
0.0543401
0.0543402
0.0543403
0.0543404
0.0543405
0.0543406
0.0543406
0.0543407
0.0543408
0.0543409
0.0543409
0.054341
0.0543411
0.0543411
0.0543412
0.0543412
0.0543413
0.0543413
0.0543413
0.0543414
0.0543414
0.0543414
0.0543414
0.0543414
0.0543414
0.0543382
0.0543384
0.0543386
0.0543387
0.0543389
0.054339
0.0543391
0.0543392
0.0543393
0.0543395
0.0543396
0.0543397
0.0543398
0.0543399
0.05434
0.0543401
0.0543402
0.0543403
0.0543404
0.0543405
0.0543406
0.0543407
0.0543407
0.0543408
0.0543409
0.054341
0.054341
0.0543411
0.0543411
0.0543412
0.0543412
0.0543413
0.0543413
0.0543414
0.0543414
0.0543414
0.0543414
0.0543414
0.0543415
0.0543415
0.0543382
0.0543384
0.0543386
0.0543387
0.0543389
0.054339
0.0543391
0.0543392
0.0543394
0.0543395
0.0543396
0.0543397
0.0543398
0.0543399
0.05434
0.0543401
0.0543402
0.0543403
0.0543404
0.0543405
0.0543406
0.0543407
0.0543408
0.0543408
0.0543409
0.054341
0.0543411
0.0543411
0.0543412
0.0543412
0.0543413
0.0543413
0.0543414
0.0543414
0.0543414
0.0543414
0.0543415
0.0543415
0.0543415
0.0543415
0.0543382
0.0543384
0.0543386
0.0543388
0.0543389
0.054339
0.0543391
0.0543393
0.0543394
0.0543395
0.0543396
0.0543397
0.0543398
0.0543399
0.05434
0.0543401
0.0543403
0.0543404
0.0543404
0.0543405
0.0543406
0.0543407
0.0543408
0.0543409
0.0543409
0.054341
0.0543411
0.0543411
0.0543412
0.0543413
0.0543413
0.0543413
0.0543414
0.0543414
0.0543414
0.0543415
0.0543415
0.0543415
0.0543415
0.0543415
0.0543382
0.0543384
0.0543386
0.0543388
0.0543389
0.054339
0.0543391
0.0543393
0.0543394
0.0543395
0.0543396
0.0543397
0.0543398
0.05434
0.0543401
0.0543402
0.0543403
0.0543404
0.0543405
0.0543406
0.0543407
0.0543407
0.0543408
0.0543409
0.054341
0.054341
0.0543411
0.0543412
0.0543412
0.0543413
0.0543413
0.0543414
0.0543414
0.0543415
0.0543415
0.0543415
0.0543415
0.0543415
0.0543415
0.0543416
0.0543382
0.0543385
0.0543386
0.0543388
0.0543389
0.054339
0.0543392
0.0543393
0.0543394
0.0543395
0.0543396
0.0543397
0.0543399
0.05434
0.0543401
0.0543402
0.0543403
0.0543404
0.0543405
0.0543406
0.0543407
0.0543408
0.0543408
0.0543409
0.054341
0.0543411
0.0543411
0.0543412
0.0543413
0.0543413
0.0543414
0.0543414
0.0543414
0.0543415
0.0543415
0.0543415
0.0543416
0.0543416
0.0543416
0.0543416
0.0543382
0.0543385
0.0543386
0.0543388
0.0543389
0.054339
0.0543392
0.0543393
0.0543394
0.0543395
0.0543396
0.0543398
0.0543399
0.05434
0.0543401
0.0543402
0.0543403
0.0543404
0.0543405
0.0543406
0.0543407
0.0543408
0.0543409
0.054341
0.054341
0.0543411
0.0543412
0.0543412
0.0543413
0.0543413
0.0543414
0.0543414
0.0543415
0.0543415
0.0543415
0.0543416
0.0543416
0.0543416
0.0543416
0.0543416
0.0543382
0.0543385
0.0543386
0.0543388
0.0543389
0.054339
0.0543392
0.0543393
0.0543394
0.0543395
0.0543397
0.0543398
0.0543399
0.05434
0.0543401
0.0543402
0.0543403
0.0543404
0.0543405
0.0543406
0.0543407
0.0543408
0.0543409
0.054341
0.0543411
0.0543411
0.0543412
0.0543413
0.0543413
0.0543414
0.0543414
0.0543415
0.0543415
0.0543415
0.0543416
0.0543416
0.0543416
0.0543416
0.0543416
0.0543417
0.0543382
0.0543385
0.0543386
0.0543388
0.0543389
0.0543391
0.0543392
0.0543393
0.0543394
0.0543396
0.0543397
0.0543398
0.0543399
0.05434
0.0543401
0.0543402
0.0543404
0.0543405
0.0543406
0.0543407
0.0543407
0.0543408
0.0543409
0.054341
0.0543411
0.0543412
0.0543412
0.0543413
0.0543414
0.0543414
0.0543415
0.0543415
0.0543415
0.0543416
0.0543416
0.0543416
0.0543417
0.0543417
0.0543417
0.0543417
0.0543383
0.0543385
0.0543387
0.0543388
0.0543389
0.0543391
0.0543392
0.0543393
0.0543394
0.0543396
0.0543397
0.0543398
0.0543399
0.05434
0.0543402
0.0543403
0.0543404
0.0543405
0.0543406
0.0543407
0.0543408
0.0543409
0.0543409
0.054341
0.0543411
0.0543412
0.0543413
0.0543413
0.0543414
0.0543414
0.0543415
0.0543415
0.0543416
0.0543416
0.0543416
0.0543417
0.0543417
0.0543417
0.0543417
0.0543417
0.0543383
0.0543385
0.0543387
0.0543388
0.0543389
0.0543391
0.0543392
0.0543393
0.0543395
0.0543396
0.0543397
0.0543398
0.0543399
0.0543401
0.0543402
0.0543403
0.0543404
0.0543405
0.0543406
0.0543407
0.0543408
0.0543409
0.054341
0.0543411
0.0543411
0.0543412
0.0543413
0.0543414
0.0543414
0.0543415
0.0543415
0.0543416
0.0543416
0.0543416
0.0543417
0.0543417
0.0543417
0.0543417
0.0543417
0.0543418
0.0543383
0.0543385
0.0543387
0.0543388
0.0543389
0.0543391
0.0543392
0.0543393
0.0543395
0.0543396
0.0543397
0.0543398
0.05434
0.0543401
0.0543402
0.0543403
0.0543404
0.0543405
0.0543406
0.0543407
0.0543408
0.0543409
0.054341
0.0543411
0.0543412
0.0543412
0.0543413
0.0543414
0.0543414
0.0543415
0.0543416
0.0543416
0.0543416
0.0543417
0.0543417
0.0543417
0.0543418
0.0543418
0.0543418
0.0543418
0.0543383
0.0543385
0.0543387
0.0543388
0.054339
0.0543391
0.0543392
0.0543394
0.0543395
0.0543396
0.0543397
0.0543399
0.05434
0.0543401
0.0543402
0.0543403
0.0543404
0.0543405
0.0543406
0.0543407
0.0543408
0.0543409
0.054341
0.0543411
0.0543412
0.0543413
0.0543413
0.0543414
0.0543415
0.0543415
0.0543416
0.0543416
0.0543417
0.0543417
0.0543417
0.0543418
0.0543418
0.0543418
0.0543418
0.0543418
0.0543383
0.0543385
0.0543387
0.0543388
0.054339
0.0543391
0.0543392
0.0543394
0.0543395
0.0543396
0.0543397
0.0543399
0.05434
0.0543401
0.0543402
0.0543403
0.0543405
0.0543406
0.0543407
0.0543408
0.0543409
0.054341
0.0543411
0.0543411
0.0543412
0.0543413
0.0543414
0.0543414
0.0543415
0.0543416
0.0543416
0.0543417
0.0543417
0.0543417
0.0543418
0.0543418
0.0543418
0.0543418
0.0543419
0.0543419
0.0543383
0.0543385
0.0543387
0.0543388
0.054339
0.0543391
0.0543392
0.0543394
0.0543395
0.0543396
0.0543398
0.0543399
0.05434
0.0543401
0.0543402
0.0543404
0.0543405
0.0543406
0.0543407
0.0543408
0.0543409
0.054341
0.0543411
0.0543412
0.0543413
0.0543413
0.0543414
0.0543415
0.0543415
0.0543416
0.0543416
0.0543417
0.0543417
0.0543418
0.0543418
0.0543418
0.0543419
0.0543419
0.0543419
0.0543419
0.0543383
0.0543385
0.0543387
0.0543388
0.054339
0.0543391
0.0543392
0.0543394
0.0543395
0.0543396
0.0543398
0.0543399
0.05434
0.0543401
0.0543403
0.0543404
0.0543405
0.0543406
0.0543407
0.0543408
0.0543409
0.054341
0.0543411
0.0543412
0.0543413
0.0543414
0.0543414
0.0543415
0.0543416
0.0543416
0.0543417
0.0543417
0.0543418
0.0543418
0.0543418
0.0543419
0.0543419
0.0543419
0.0543419
0.0543419
0.0543383
0.0543385
0.0543387
0.0543388
0.054339
0.0543391
0.0543393
0.0543394
0.0543395
0.0543397
0.0543398
0.0543399
0.05434
0.0543402
0.0543403
0.0543404
0.0543405
0.0543406
0.0543407
0.0543408
0.0543409
0.054341
0.0543411
0.0543412
0.0543413
0.0543414
0.0543415
0.0543415
0.0543416
0.0543417
0.0543417
0.0543418
0.0543418
0.0543418
0.0543419
0.0543419
0.0543419
0.0543419
0.054342
0.054342
0.0543383
0.0543385
0.0543387
0.0543388
0.054339
0.0543391
0.0543393
0.0543394
0.0543395
0.0543397
0.0543398
0.0543399
0.0543401
0.0543402
0.0543403
0.0543404
0.0543405
0.0543406
0.0543408
0.0543409
0.054341
0.0543411
0.0543412
0.0543413
0.0543413
0.0543414
0.0543415
0.0543416
0.0543416
0.0543417
0.0543417
0.0543418
0.0543418
0.0543419
0.0543419
0.0543419
0.054342
0.054342
0.054342
0.054342
0.0543383
0.0543385
0.0543387
0.0543388
0.054339
0.0543391
0.0543393
0.0543394
0.0543395
0.0543397
0.0543398
0.0543399
0.0543401
0.0543402
0.0543403
0.0543404
0.0543406
0.0543407
0.0543408
0.0543409
0.054341
0.0543411
0.0543412
0.0543413
0.0543414
0.0543414
0.0543415
0.0543416