/*--------------------------------*- C++ -*----------------------------------*\
| =========                 |                                                 |
| \\      /  F ield         | OpenFOAM: The Open Source CFD Toolbox           |
|  \\    /   O peration     | Version:  2.3.0                                 |
|   \\  /    A nd           | Web:      www.OpenFOAM.org                      |
|    \\/     M anipulation  |                                                 |
\*---------------------------------------------------------------------------*/
FoamFile
{
    version     2.0;
    format      ascii;
    class       volScalarField;
    location    "20";
    object      CO2;
}
// * * * * * * * * * * * * * * * * * * * * * * * * * * * * * * * * * * * * * //

dimensions      [0 0 0 0 0 0 0];

internalField   nonuniform List<scalar> 
26600
(
1.79773e-15
4.89014e-13
1.60074e-11
2.213e-10
2.17545e-09
2.02654e-08
1.1698e-07
4.47705e-07
1.46513e-06
3.6839e-06
8.51221e-06
1.85145e-05
3.43701e-05
6.07295e-05
9.39338e-05
0.000140361
0.000193237
0.000247199
0.000308311
0.000383193
0.000464391
0.000556097
0.000653889
0.000754696
0.000860588
0.000968295
0.00108254
0.00119784
0.00131692
0.0014365
0.00156771
0.00170349
0.0018551
0.00200738
0.00218357
0.00234524
0.00252844
0.00270084
0.0029196
0.00327854
2.16851e-13
9.33246e-12
2.44683e-10
2.97092e-09
2.63637e-08
2.44606e-07
1.19459e-06
3.72908e-06
1.06319e-05
2.17983e-05
4.54023e-05
9.45187e-05
0.000152037
0.000269583
0.000366675
0.000552905
0.00068951
0.000937362
0.00112055
0.00144042
0.00167881
0.00200924
0.00234135
0.002698
0.00308583
0.00339045
0.00391549
0.00426144
0.00478765
0.00509388
0.00572769
0.00611858
0.00643958
0.00686946
0.00709911
0.00746845
0.00771722
0.00816155
0.00856301
0.00909935
3.30689e-12
1.30098e-10
2.50958e-09
2.95432e-08
2.42464e-07
1.38579e-06
5.10389e-06
1.52668e-05
3.93484e-05
8.8783e-05
0.000178017
0.000310876
0.00048489
0.000748729
0.00101275
0.00141862
0.00176236
0.00228287
0.00268321
0.00336845
0.00383224
0.00462431
0.00537874
0.00605313
0.0072792
0.00794912
0.00855513
0.00930688
0.01019
0.0108995
0.0117328
0.0124465
0.0134784
0.0141099
0.0152993
0.0162509
0.0173484
0.0183597
0.0194576
0.0205777
1.54872e-11
7.23118e-10
1.36007e-08
1.43212e-07
1.01308e-06
4.811e-06
1.65351e-05
4.52648e-05
0.000110869
0.000225918
0.000416837
0.000671344
0.00102653
0.00150994
0.00202958
0.00277441
0.00339811
0.00435242
0.0050712
0.00634497
0.00719896
0.00901704
0.0100793
0.0108891
0.0125814
0.0138581
0.0156238
0.017114
0.0184421
0.0198917
0.0216231
0.0230915
0.0249586
0.0262309
0.0288971
0.0306849
0.0326988
0.0348964
0.0370468
0.0379307
6.35189e-11
3.06253e-09
4.99687e-08
5.18192e-07
3.38749e-06
1.37317e-05
4.22258e-05
0.000108252
0.00025683
0.000488494
0.000854049
0.00131503
0.00198854
0.00283544
0.00379237
0.00508488
0.00611454
0.00785551
0.00904277
0.011545
0.0130171
0.0149106
0.0176565
0.0203067
0.0226898
0.0249566
0.0289052
0.0319838
0.0356482
0.0395049
0.0435054
0.0474979
0.0512763
0.0552664
0.0588222
0.0630205
0.0665609
0.0715334
0.0760317
0.0748846
2.64289e-10
1.12458e-08
1.82626e-07
1.75826e-06
9.46172e-06
3.42849e-05
9.85017e-05
0.000239317
0.000552116
0.000986043
0.00165681
0.00248611
0.00375041
0.00519752
0.00698782
0.00913698
0.010818
0.0142323
0.0160222
0.0195797
0.0228303
0.0281057
0.0359078
0.0400131
0.0442892
0.0497892
0.0553029
0.0597473
0.0655444
0.0703236
0.0746079
0.0788392
0.0829689
0.0874758
0.0919285
0.0976144
0.102531
0.107243
0.111867
0.110825
1.08382e-09
4.24627e-08
6.8452e-07
5.36617e-06
2.40222e-05
7.96577e-05
0.000216769
0.000501907
0.00112942
0.00189827
0.00310828
0.00463746
0.007046
0.00949689
0.0131382
0.016344
0.0194148
0.0244936
0.0306423
0.0367623
0.04347
0.0510544
0.06967
0.0704102
0.073087
0.0769053
0.0824699
0.0891241
0.0960574
0.101642
0.105923
0.110335
0.113585
0.117143
0.120034
0.128789
0.130981
0.129339
0.125438
0.12554
4.45448e-09
1.866e-07
2.44349e-06
1.4601e-05
5.6787e-05
0.00017575
0.000460297
0.00101027
0.00222263
0.00353015
0.00572605
0.00875974
0.0135237
0.0176199
0.0226621
0.0293192
0.0369827
0.0452657
0.0526577
0.0605376
0.0671583
0.0745953
0.0825265
0.0912466
0.0995532
0.107385
0.111838
0.116198
0.127491
0.12741
0.126169
0.124241
0.121801
0.1196
0.116131
0.11155
0.108761
0.10331
0.10008
0.0974024
2.16627e-08
8.13547e-07
7.49312e-06
3.58143e-05
0.000127763
0.000375831
0.000948141
0.0019717
0.00428704
0.00643368
0.0106555
0.0175011
0.0232307
0.0320583
0.0417514
0.0511785
0.0594039
0.0687087
0.0778518
0.0887017
0.0969384
0.106716
0.110656
0.124673
0.124565
0.120903
0.114389
0.108047
0.105203
0.103423
0.100621
0.0982882
0.0959474
0.0927262
0.0887161
0.0838571
0.0777984
0.0735417
0.0702556
0.0699422
1.13375e-07
2.91e-06
1.92173e-05
8.20076e-05
0.000279298
0.000791519
0.00191031
0.00379811
0.00824996
0.0117426
0.0214337
0.0311218
0.042433
0.0534002
0.0636122
0.0766092
0.0903723
0.103817
0.109228
0.122192
0.124121
0.121047
0.113863
0.108854
0.0965261
0.0891495
0.0834481
0.0777342
0.0735662
0.0702213
0.0672178
0.063847
0.0605197
0.0578789
0.0552688
0.0536867
0.0530667
0.0528104
0.0533355
0.0547747
4.83972e-07
7.79483e-06
4.40202e-05
0.000181669
0.000603997
0.00167654
0.00381979
0.00737249
0.0155103
0.0218002
0.0400898
0.0526003
0.0637567
0.0820508
0.100561
0.108692
0.125217
0.123129
0.116964
0.112902
0.101156
0.0919018
0.0823037
0.0660128
0.0512941
0.0440341
0.0420681
0.0410563
0.040581
0.0401888
0.0401245
0.0400842
0.039825
0.0399604
0.040394
0.0415992
0.0432144
0.0446102
0.0470407
0.0502449
1.32324e-06
1.71599e-05
9.79362e-05
0.000399561
0.00131722
0.00370058
0.00757985
0.0151922
0.0282454
0.0449642
0.0583404
0.0806227
0.10127
0.114734
0.121861
0.118531
0.111173
0.101009
0.0907744
0.0736691
0.0553315
0.039548
0.0346509
0.0317516
0.0280394
0.0263138
0.0255113
0.025777
0.0263306
0.0274494
0.0287264
0.0301918
0.0320834
0.0337821
0.0361125
0.0389184
0.0418438
0.0449919
0.0483779
0.0532932
2.62045e-06
3.63346e-05
0.000221089
0.000894318
0.00298143
0.00863877
0.0152645
0.0285317
0.0488614
0.0678805
0.0938182
0.111412
0.121031
0.117253
0.106502
0.096449
0.0764103
0.0553188
0.0369602
0.0312779
0.0263872
0.0202926
0.0174808
0.0156194
0.0159501
0.0171851
0.0184049
0.0205018
0.0224847
0.024597
0.0269869
0.029553
0.0322206
0.0350288
0.0381369
0.0415121
0.0449299
0.0487092
0.0528197
0.0578153
4.49446e-06
8.08532e-05
0.000530338
0.0021187
0.00731034
0.0144379
0.0309388
0.0532143
0.0763215
0.100613
0.121671
0.118279
0.108002
0.0973038
0.0749346
0.0485615
0.0311312
0.0269197
0.0192179
0.014197
0.0103206
0.00993563
0.0108545
0.0119527
0.0139961
0.0163321
0.0187057
0.0212948
0.0237392
0.0264096
0.0292704
0.03227
0.0353848
0.0386648
0.0421775
0.0459479
0.0501756
0.0546166
0.0594451
0.0650075
7.12478e-06
0.000202919
0.00146155
0.00566622
0.0126442
0.0311296
0.0554044
0.0794756
0.103806
0.116443
0.113086
0.100005
0.0788827
0.0513245
0.0314335
0.0258381
0.0183749
0.00965242
0.00682834
0.00662021
0.00726683
0.00845562
0.0104587
0.0128726
0.0156223
0.0184976
0.0214127
0.0243836
0.0275971
0.0307143
0.03386
0.0371012
0.0404799
0.044048
0.0478515
0.0519287
0.0563489
0.0611219
0.0663314
0.0721695
8.8725e-06
0.00066552
0.00518523
0.0107625
0.0285198
0.054938
0.0819104
0.104402
0.1124
0.104574
0.0857937
0.0643138
0.0362036
0.0246125
0.0203121
0.00964575
0.00548227
0.00433982
0.00464425
0.00563795
0.0071745
0.00978309
0.0127333
0.016332
0.0197638
0.0230804
0.0263422
0.029574
0.0328631
0.0361157
0.0393776
0.0427581
0.0463056
0.050061
0.0540624
0.0583474
0.0629554
0.0679168
0.0732785
0.0791205
2.73949e-06
0.00317895
0.0103225
0.0275386
0.0547823
0.08122
0.105071
0.108381
0.0986402
0.0739147
0.0484304
0.0295358
0.0227616
0.0153071
0.00627708
0.00330442
0.00288422
0.00345055
0.00445188
0.0065548
0.00984162
0.0136182
0.0173785
0.021456
0.0250904
0.0285993
0.0320932
0.0355122
0.0389349
0.042259
0.0455137
0.0489703
0.05263
0.0565079
0.0606358
0.0650428
0.0697495
0.0747678
0.0801047
0.085764
0
0.0096623
0.0292931
0.055522
0.0813349
0.105818
0.106968
0.0911435
0.0639645
0.0346019
0.0282764
0.0198869
0.00819142
0.00349136
0.00185418
0.00185526
0.00245069
0.00365867
0.00627767
0.0100123
0.0140669
0.0186598
0.0228117
0.0275371
0.0310527
0.0346452
0.0384336
0.0419885
0.0455141
0.0489614
0.0519729
0.0554989
0.059256
0.0632093
0.0673974
0.0718409
0.0765445
0.0814954
0.086667
0.0920151
7.97096e-05
0.0381823
0.0584492
0.0784951
0.10828
0.102068
0.072183
0.0455497
0.027236
0.0223996
0.0105135
0.00455347
0.00189909
0.00103665
0.0011225
0.00168555
0.00291649
0.0058243
0.00968737
0.0145402
0.0191605
0.0246252
0.0286772
0.0334452
0.0376735
0.0415362
0.0452295
0.0487662
0.052255
0.055736
0.0588667
0.0622254
0.0660287
0.0699996
0.0741777
0.0785739
0.083176
0.087951
0.0928503
0.0978065
9.93601e-05
0.0501342
0.0681884
0.0977298
0.0824805
0.0449369
0.0319184
0.0224006
0.0143157
0.00570768
0.00233642
0.000961094
0.000540532
0.000662144
0.00107248
0.00229267
0.00494177
0.00935488
0.0140186
0.0199972
0.0247149
0.030329
0.0354642
0.0402597
0.0445793
0.0485003
0.0521547
0.0556414
0.059056
0.0624398
0.0657769
0.0690642
0.0728027
0.0767202
0.0808155
0.085084
0.0894986
0.0940131
0.0985677
0.103089
4.50231e-05
0.0123926
0.0134809
0.014513
0.0141145
0.0117919
0.00617781
0.00282024
0.00141351
0.000674902
0.000323979
0.000224246
0.000337463
0.000672736
0.00172345
0.00421952
0.0078859
0.0137572
0.0188881
0.0250381
0.031253
0.0371058
0.0424259
0.0472349
0.0515428
0.0554367
0.0590378
0.0624612
0.0658037
0.0691463
0.0723999
0.0757576
0.0794083
0.0832117
0.0871596
0.0912313
0.0953881
0.0995807
0.10375
0.107827
5.20145e-06
0.000768122
0.00154436
0.00155952
0.00132638
0.000846782
0.000471731
0.000266948
0.000151778
8.66276e-05
7.97353e-05
0.000145744
0.000376715
0.00121361
0.00305252
0.00705791
0.0114426
0.0176191
0.0246554
0.0315555
0.0380499
0.0440219
0.0493858
0.0541541
0.0583939
0.0622153
0.0657422
0.0690886
0.0723423
0.0755787
0.0788064
0.082155
0.0856773
0.0893233
0.0930737
0.0968997
0.100759
0.104603
0.108378
0.112027
1.21549e-06
4.03181e-05
0.000113945
0.000121006
0.000114905
8.66177e-05
5.85881e-05
4.19431e-05
2.77517e-05
2.85805e-05
5.7853e-05
0.000225526
0.000727775
0.00236487
0.005037
0.00933036
0.0159315
0.0231914
0.0308057
0.03813
0.0448178
0.0508525
0.0561818
0.060861
0.0649959
0.0687165
0.0721501
0.0754067
0.0785461
0.0816745
0.0848635
0.0881337
0.0915055
0.0949622
0.0984816
0.102033
0.105576
0.109066
0.112458
0.11571
3.6433e-07
3.43112e-06
1.19296e-05
1.76189e-05
1.84871e-05
1.72183e-05
1.25193e-05
1.0149e-05
1.0677e-05
2.26263e-05
0.00010577
0.000491931
0.0013868
0.00328995
0.00736646
0.0134153
0.0208097
0.0287367
0.0368241
0.0445455
0.0514009
0.057449
0.0626829
0.0672316
0.0712381
0.074843
0.078172
0.0813148
0.0842982
0.0873799
0.0904772
0.0936212
0.0968211
0.100067
0.103338
0.106604
0.109832
0.112982
0.11602
0.118913
1.16781e-07
5.40662e-07
1.82152e-06
3.99486e-06
4.75627e-06
4.58462e-06
3.58934e-06
3.84468e-06
8.08642e-06
4.40952e-05
0.000247841
0.000772052
0.00209258
0.00511504
0.0106602
0.0179205
0.0261696
0.0347439
0.0429743
0.0506794
0.0577443
0.0637104
0.0687917
0.0731803
0.0770428
0.0805214
0.0837354
0.0867157
0.0895996
0.0926006
0.0955813
0.0985746
0.101588
0.104614
0.107633
0.110621
0.113548
0.116386
0.119105
0.121682
3.71867e-08
1.16411e-07
3.46154e-07
9.17993e-07
1.32558e-06
1.37752e-06
1.40652e-06
2.83337e-06
1.57098e-05
0.000106989
0.00039805
0.00120276
0.00347055
0.0085814
0.0157083
0.0239963
0.0327986
0.0415656
0.0497489
0.0572191
0.0638646
0.0695635
0.0744353
0.0786446
0.0823545
0.0857046
0.0887634
0.0915525
0.0944482
0.097312
0.100151
0.10298
0.105802
0.108609
0.111386
0.114112
0.116765
0.119321
0.121759
0.124063
1.07299e-08
2.56526e-08
6.15976e-08
1.88387e-07
3.52786e-07
4.03467e-07
8.09087e-07
4.91639e-06
3.78872e-05
0.000173958
0.000612119
0.00213901
0.00609717
0.0126327
0.0208078
0.0298165
0.0389896
0.0478218
0.0559219
0.0631705
0.0694849
0.0749094
0.0795589
0.0835862
0.0871443
0.0903583
0.0932149
0.0959341
0.0987578
0.101495
0.104187
0.106849
0.109483
0.112082
0.114634
0.117122
0.119529
0.121839
0.124035
0.126105
3.584e-09
6.9017e-09
1.39447e-08
4.45931e-08
8.36467e-08
1.69359e-07
1.16247e-06
1.0688e-05
6.14226e-05
0.000290879
0.00126891
0.00393849
0.00932128
0.016881
0.0258138
0.0353012
0.0446846
0.0535052
0.0614738
0.068524
0.07453
0.0797008
0.0841407
0.0879945
0.0914032
0.0944019
0.0971277
0.0998866
0.102563
0.105165
0.107711
0.110211
0.112667
0.115075
0.117423
0.1197
0.121894
0.12399
0.125978
0.127851
1.71708e-09
2.61536e-09
5.00348e-09
1.32919e-08
3.49016e-08
1.89224e-07
2.00176e-06
1.81406e-05
0.000115588
0.00061275
0.00227067
0.00618461
0.0126639
0.0210325
0.0305187
0.0403236
0.0498158
0.0585777
0.0663792
0.0731746
0.0789714
0.0839303
0.0881838
0.0918824
0.0951024
0.0978694
0.100669
0.103325
0.105879
0.108351
0.110759
0.113108
0.115402
0.117637
0.119806
0.121899
0.123907
0.125822
0.127635
0.129341
3.88389e-10
8.35352e-10
2.09694e-09
6.19166e-09
3.56044e-08
4.24842e-07
4.80264e-06
3.81812e-05
0.000250322
0.00112235
0.00358011
0.00857514
0.0158685
0.0248643
0.0347716
0.0448012
0.0543486
0.0630318
0.0706596
0.07716
0.0828387
0.0876199
0.091711
0.0952548
0.0982437
0.10097
0.103729
0.106294
0.108739
0.111093
0.113373
0.115587
0.117736
0.119819
0.121832
0.123766
0.125617
0.127378
0.129043
0.130609
9.06977e-11
2.61532e-10
9.20844e-10
5.46524e-09
7.18118e-08
1.0254e-06
1.08795e-05
8.44268e-05
0.000464761
0.0017792
0.00501171
0.0107872
0.0187407
0.0282502
0.0385011
0.0487067
0.0582849
0.0668904
0.07439
0.0807517
0.0861978
0.0908087
0.0947488
0.0980536
0.100927
0.103742
0.106374
0.108842
0.111186
0.113434
0.1156
0.117693
0.119716
0.121668
0.123546
0.125346
0.127064
0.128695
0.130236
0.131685
2.93964e-11
9.56865e-11
7.44092e-10
1.09701e-08
1.80536e-07
2.38403e-06
2.24519e-05
0.000156639
0.000728686
0.00245143
0.00631873
0.0126975
0.0212027
0.0311518
0.0416989
0.0520546
0.0616538
0.0701853
0.0775578
0.0837904
0.0890724
0.0935428
0.0972876
0.100352
0.10335
0.106088
0.108629
0.111009
0.113264
0.115418
0.117484
0.119472
0.121386
0.123226
0.12499
0.126677
0.128283
0.129805
0.131243
0.132595
2.81907e-11
1.81834e-10
2.50061e-09
3.76241e-08
4.98589e-07
5.34107e-06
4.32723e-05
0.00024113
0.000982047
0.00304013
0.00740738
0.0142781
0.0232514
0.0335836
0.0443917
0.0548793
0.0644983
0.0729627
0.0801862
0.0863464
0.0915049
0.0958395
0.0993496
0.102393
0.105384
0.108063
0.11053
0.112836
0.115013
0.117084
0.119065
0.120963
0.122784
0.124529
0.126198
0.12779
0.129303
0.130736
0.132088
0.133359
5.76086e-11
5.46648e-10
8.0327e-09
1.0561e-07
1.1476e-06
1.02167e-05
6.5718e-05
0.000319008
0.00119684
0.00352015
0.00827662
0.0155522
0.0249219
0.0355857
0.0466234
0.0572292
0.0668707
0.0752911
0.0824524
0.0884888
0.0935436
0.0976831
0.100998
0.104201
0.107094
0.10971
0.112115
0.114356
0.116467
0.118469
0.120377
0.1222
0.123943
0.125609
0.127199
0.128712
0.130149
0.131508
0.13279
0.133994
1.10195e-10
1.1531e-09
1.71429e-08
2.08542e-07
2.04788e-06
1.53698e-05
8.67271e-05
0.000386032
0.00137183
0.00390117
0.00895152
0.0165566
0.0262574
0.0372038
0.0484403
0.0591513
0.0688166
0.0772053
0.0843051
0.0902539
0.0952035
0.0991281
0.102443
0.105661
0.1085
0.111063
0.113415
0.115603
0.117658
0.119603
0.12145
0.123211
0.12489
0.126491
0.128016
0.129466
0.13084
0.13214
0.133365
0.134515
1.73368e-10
1.86198e-09
2.77972e-08
3.25745e-07
2.94905e-06
2.01485e-05
0.000105
0.00044143
0.00151058
0.00419605
0.00946388
0.0173299
0.0272999
0.0384812
0.0498854
0.0606871
0.0703757
0.0787407
0.0857914
0.0916826
0.0964967
0.100189
0.103704
0.106839
0.109629
0.112149
0.114459
0.116603
0.118613
0.12051
0.122309
0.124019
0.125647
0.127197
0.12867
0.130069
0.131394
0.132646
0.133825
0.134934
2.33567e-10
2.51358e-09
3.74861e-08
4.31532e-07
3.75098e-06
2.42232e-05
0.000119986
0.00048525
0.00161677
0.00441622
0.00984208
0.017906
0.0280865
0.0394553
0.0509954
0.0618719
0.0715808
0.0799268
0.0869419
0.0927868
0.0974631
0.101082
0.104645
0.107749
0.110504
0.11299
0.115266
0.117376
0.119351
0.121212
0.122972
0.124644
0.126232
0.127742
0.129176
0.130535
0.131822
0.133038
0.134182
0.135258
2.81438e-10
3.01186e-09
4.48353e-08
5.14235e-07
4.38589e-06
2.73788e-05
0.000131323
0.000517641
0.00169342
0.00457198
0.0101074
0.0183129
0.0286479
0.040157
0.0518002
0.0627338
0.0724589
0.080789
0.0877816
0.0935913
0.0981576
0.101751
0.105323
0.108409
0.111141
0.113603
0.115855
0.11794
0.119889
0.121722
0.123456
0.125099
0.126658
0.128139
0.129543
0.130875
0.132134
0.133323
0.134443
0.135494
3.13604e-10
3.3289e-09
4.94576e-08
5.68846e-07
4.81484e-06
2.94898e-05
0.000138812
0.000538738
0.0017426
0.00467066
0.0102749
0.0185707
0.0290064
0.0406082
0.05232
0.063292
0.0730289
0.0813553
0.0883308
0.0941096
0.0986029
0.102188
0.105759
0.108835
0.111553
0.113999
0.116236
0.118305
0.120237
0.122053
0.123768
0.125392
0.126933
0.128395
0.129781
0.131094
0.132336
0.133508
0.134611
0.135647
3.27955e-10
3.47078e-09
5.1544e-08
5.94061e-07
5.01177e-06
3.04515e-05
0.000142211
0.000548238
0.00176457
0.00471449
0.0103492
0.0186856
0.0291669
0.0408109
0.052554
0.0635435
0.073286
0.0816105
0.0885801
0.0943418
0.098802
0.102385
0.105955
0.109026
0.111738
0.114178
0.116407
0.118469
0.120393
0.122201
0.123908
0.125524
0.127057
0.12851
0.129888
0.131193
0.132426
0.133591
0.134687
0.135716
0.148673
0.148675
0.148677
0.148678
0.148679
0.14868
0.148682
0.148683
0.148684
0.148685
0.148686
0.148687
0.148688
0.148689
0.148689
0.14869
0.148691
0.148692
0.148693
0.148694
0.148694
0.148695
0.148696
0.148696
0.148697
0.148698
0.148698
0.148699
0.148699
0.1487
0.1487
0.1487
0.148701
0.148701
0.148701
0.148701
0.148701
0.148702
0.148702
0.148702
0.148673
0.148675
0.148677
0.148678
0.148679
0.148681
0.148682
0.148683
0.148684
0.148685
0.148686
0.148687
0.148688
0.148689
0.14869
0.14869
0.148691
0.148692
0.148693
0.148694
0.148694
0.148695
0.148696
0.148696
0.148697
0.148698
0.148698
0.148699
0.148699
0.1487
0.1487
0.1487
0.148701
0.148701
0.148701
0.148701
0.148702
0.148702
0.148702
0.148702
0.148673
0.148675
0.148677
0.148678
0.14868
0.148681
0.148682
0.148683
0.148684
0.148685
0.148686
0.148687
0.148688
0.148689
0.14869
0.148691
0.148692
0.148692
0.148693
0.148694
0.148695
0.148695
0.148696
0.148697
0.148697
0.148698
0.148698
0.148699
0.148699
0.1487
0.1487
0.148701
0.148701
0.148701
0.148702
0.148702
0.148702
0.148702
0.148702
0.148702
0.148673
0.148675
0.148677
0.148679
0.14868
0.148681
0.148682
0.148683
0.148684
0.148685
0.148686
0.148687
0.148688
0.148689
0.14869
0.148691
0.148692
0.148693
0.148693
0.148694
0.148695
0.148696
0.148696
0.148697
0.148698
0.148698
0.148699
0.148699
0.1487
0.1487
0.148701
0.148701
0.148701
0.148702
0.148702
0.148702
0.148702
0.148702
0.148702
0.148702
0.148673
0.148676
0.148677
0.148679
0.14868
0.148681
0.148682
0.148683
0.148684
0.148685
0.148686
0.148687
0.148688
0.148689
0.14869
0.148691
0.148692
0.148693
0.148694
0.148694
0.148695
0.148696
0.148697
0.148697
0.148698
0.148698
0.148699
0.1487
0.1487
0.1487
0.148701
0.148701
0.148702
0.148702
0.148702
0.148702
0.148702
0.148703
0.148703
0.148703
0.148674
0.148676
0.148677
0.148679
0.14868
0.148681
0.148682
0.148683
0.148685
0.148686
0.148687
0.148688
0.148689
0.14869
0.14869
0.148691
0.148692
0.148693
0.148694
0.148695
0.148695
0.148696
0.148697
0.148698
0.148698
0.148699
0.148699
0.1487
0.1487
0.148701
0.148701
0.148702
0.148702
0.148702
0.148702
0.148703
0.148703
0.148703
0.148703
0.148703
0.148674
0.148676
0.148678
0.148679
0.14868
0.148681
0.148683
0.148684
0.148685
0.148686
0.148687
0.148688
0.148689
0.14869
0.148691
0.148692
0.148692
0.148693
0.148694
0.148695
0.148696
0.148696
0.148697
0.148698
0.148698
0.148699
0.1487
0.1487
0.148701
0.148701
0.148702
0.148702
0.148702
0.148703
0.148703
0.148703
0.148703
0.148703
0.148703
0.148703
0.148674
0.148676
0.148678
0.148679
0.14868
0.148682
0.148683
0.148684
0.148685
0.148686
0.148687
0.148688
0.148689
0.14869
0.148691
0.148692
0.148693
0.148694
0.148694
0.148695
0.148696
0.148697
0.148697
0.148698
0.148699
0.148699
0.1487
0.1487
0.148701
0.148701
0.148702
0.148702
0.148703
0.148703
0.148703
0.148703
0.148703
0.148704
0.148704
0.148704
0.148674
0.148676
0.148678
0.148679
0.148681
0.148682
0.148683
0.148684
0.148685
0.148686
0.148687
0.148688
0.148689
0.14869
0.148691
0.148692
0.148693
0.148694
0.148695
0.148695
0.148696
0.148697
0.148698
0.148698
0.148699
0.1487
0.1487
0.148701
0.148701
0.148702
0.148702
0.148703
0.148703
0.148703
0.148703
0.148704
0.148704
0.148704
0.148704
0.148704
0.148674
0.148676
0.148678
0.148679
0.148681
0.148682
0.148683
0.148684
0.148685
0.148686
0.148687
0.148688
0.148689
0.14869
0.148691
0.148692
0.148693
0.148694
0.148695
0.148696
0.148697
0.148697
0.148698
0.148699
0.148699
0.1487
0.148701
0.148701
0.148702
0.148702
0.148702
0.148703
0.148703
0.148704
0.148704
0.148704
0.148704
0.148704
0.148704
0.148704
0.148674
0.148676
0.148678
0.14868
0.148681
0.148682
0.148683
0.148684
0.148685
0.148687
0.148688
0.148689
0.14869
0.148691
0.148692
0.148693
0.148693
0.148694
0.148695
0.148696
0.148697
0.148698
0.148698
0.148699
0.1487
0.1487
0.148701
0.148701
0.148702
0.148702
0.148703
0.148703
0.148704
0.148704
0.148704
0.148704
0.148705
0.148705
0.148705
0.148705
0.148674
0.148677
0.148678
0.14868
0.148681
0.148682
0.148683
0.148685
0.148686
0.148687
0.148688
0.148689
0.14869
0.148691
0.148692
0.148693
0.148694
0.148695
0.148695
0.148696
0.148697
0.148698
0.148699
0.148699
0.1487
0.148701
0.148701
0.148702
0.148702
0.148703
0.148703
0.148704
0.148704
0.148704
0.148704
0.148705
0.148705
0.148705
0.148705
0.148705
0.148674
0.148677
0.148678
0.14868
0.148681
0.148682
0.148684
0.148685
0.148686
0.148687
0.148688
0.148689
0.14869
0.148691
0.148692
0.148693
0.148694
0.148695
0.148696
0.148697
0.148697
0.148698
0.148699
0.1487
0.1487
0.148701
0.148702
0.148702
0.148703
0.148703
0.148704
0.148704
0.148704
0.148705
0.148705
0.148705
0.148705
0.148705
0.148705
0.148705
0.148675
0.148677
0.148679
0.14868
0.148681
0.148683
0.148684
0.148685
0.148686
0.148687
0.148688
0.148689
0.14869
0.148691
0.148692
0.148693
0.148694
0.148695
0.148696
0.148697
0.148698
0.148698
0.148699
0.1487
0.148701
0.148701
0.148702
0.148702
0.148703
0.148703
0.148704
0.148704
0.148705
0.148705
0.148705
0.148705
0.148706
0.148706
0.148706
0.148706
0.148675
0.148677
0.148679
0.14868
0.148682
0.148683
0.148684
0.148685
0.148686
0.148687
0.148688
0.148689
0.148691
0.148692
0.148693
0.148694
0.148694
0.148695
0.148696
0.148697
0.148698
0.148699
0.148699
0.1487
0.148701
0.148702
0.148702
0.148703
0.148703
0.148704
0.148704
0.148705
0.148705
0.148705
0.148706
0.148706
0.148706
0.148706
0.148706
0.148706
0.148675
0.148677
0.148679
0.14868
0.148682
0.148683
0.148684
0.148685
0.148686
0.148688
0.148689
0.14869
0.148691
0.148692
0.148693
0.148694
0.148695
0.148696
0.148697
0.148697
0.148698
0.148699
0.1487
0.148701
0.148701
0.148702
0.148702
0.148703
0.148704
0.148704
0.148705
0.148705
0.148705
0.148706
0.148706
0.148706
0.148706
0.148706
0.148706
0.148707
0.148675
0.148677
0.148679
0.14868
0.148682
0.148683
0.148684
0.148685
0.148687
0.148688
0.148689
0.14869
0.148691
0.148692
0.148693
0.148694
0.148695
0.148696
0.148697
0.148698
0.148699
0.148699
0.1487
0.148701
0.148702
0.148702
0.148703
0.148703
0.148704
0.148704
0.148705
0.148705
0.148706
0.148706
0.148706
0.148706
0.148707
0.148707
0.148707
0.148707
0.148675
0.148677
0.148679
0.148681
0.148682
0.148683
0.148684
0.148686
0.148687
0.148688
0.148689
0.14869
0.148691
0.148692
0.148693
0.148694
0.148695
0.148696
0.148697
0.148698
0.148699
0.1487
0.1487
0.148701
0.148702
0.148702
0.148703
0.148704
0.148704
0.148705
0.148705
0.148706
0.148706
0.148706
0.148707
0.148707
0.148707
0.148707
0.148707
0.148707
0.148675
0.148678
0.148679
0.148681
0.148682
0.148683
0.148685
0.148686
0.148687
0.148688
0.148689
0.14869
0.148691
0.148692
0.148693
0.148695
0.148695
0.148696
0.148697
0.148698
0.148699
0.1487
0.148701
0.148701
0.148702
0.148703
0.148703
0.148704
0.148705
0.148705
0.148706
0.148706
0.148706
0.148707
0.148707
0.148707
0.148707
0.148707
0.148708
0.148708
0.148675
0.148678
0.148679
0.148681
0.148682
0.148684
0.148685
0.148686
0.148687
0.148688
0.148689
0.148691
0.148692
0.148693
0.148694
0.148695
0.148696
0.148697
0.148698
0.148699
0.148699
0.1487
0.148701
0.148702
0.148702
0.148703
0.148704
0.148704
0.148705
0.148705
0.148706
0.148706
0.148707
0.148707
0.148707
0.148708
0.148708
0.148708
0.148708
0.148708
0.148675
0.148678
0.14868
0.148681
0.148682
0.148684
0.148685
0.148686
0.148687
0.148688
0.14869
0.148691
0.148692
0.148693
0.148694
0.148695
0.148696
0.148697
0.148698
0.148699
0.1487
0.1487
0.148701
0.148702
0.148703
0.148703
0.148704
0.148705
0.148705
0.148706
0.148706
0.148707
0.148707
0.148707
0.148708
0.148708
0.148708
0.148708
0.148708
0.148708
0.148676
0.148678
0.14868
0.148681
0.148683
0.148684
0.148685
0.148686
0.148687
0.148689
0.14869
0.148691
0.148692
0.148693
0.148694
0.148695
0.148696
0.148697
0.148698
0.148699
0.1487
0.148701
0.148702
0.148702
0.148703
0.148704
0.148704
0.148705
0.148706
0.148706
0.148707
0.148707
0.148707
0.148708
0.148708
0.148708
0.148708
0.148709
0.148709
0.148709
0.148676
0.148678
0.14868
0.148681
0.148683
0.148684
0.148685
0.148686
0.148688
0.148689
0.14869
0.148691
0.148692
0.148693
0.148694
0.148695
0.148696
0.148697
0.148698
0.148699
0.1487
0.148701
0.148702
0.148703
0.148703
0.148704
0.148705
0.148705
0.148706
0.148706
0.148707
0.148707
0.148708
0.148708
0.148708
0.148709
0.148709
0.148709
0.148709
0.148709
0.148676
0.148678
0.14868
0.148681
0.148683
0.148684
0.148685
0.148687
0.148688
0.148689
0.14869
0.148691
0.148692
0.148694
0.148695
0.148696
0.148697
0.148698
0.148699
0.1487
0.148701
0.148701
0.148702
0.148703
0.148704
0.148704
0.148705
0.148706
0.148706
0.148707
0.148707
0.148708
0.148708
0.148708
0.148709
0.148709
0.148709
0.148709
0.148709
0.148709
0.148676
0.148678
0.14868
0.148682
0.148683
0.148684
0.148686
0.148687
0.148688
0.148689
0.14869
0.148692
0.148693
0.148694
0.148695
0.148696
0.148697
0.148698
0.148699
0.1487
0.148701
0.148702
0.148702
0.148703
0.148704
0.148705
0.148705
0.148706
0.148707
0.148707
0.148708
0.148708
0.148708
0.148709
0.148709
0.148709
0.14871
0.14871
0.14871
0.14871
0.148676
0.148678
0.14868
0.148682
0.148683
0.148684
0.148686
0.148687
0.148688
0.148689
0.148691
0.148692
0.148693
0.148694
0.148695
0.148696
0.148697
0.148698
0.148699
0.1487
0.148701
0.148702
0.148703
0.148704
0.148704
0.148705
0.148706
0.148706
0.148707
0.148707
0.148708
0.148708
0.148709
0.148709
0.148709
0.14871
0.14871
0.14871
0.14871
0.14871
0.148676
0.148679
0.14868
0.148682
0.148683
0.148685
0.148686
0.148687
0.148688
0.14869
0.148691
0.148692
0.148693
0.148694
0.148695
0.148696
0.148698
0.148699
0.1487
0.1487
0.148701
0.148702
0.148703
0.148704
0.148705
0.148705
0.148706
0.148707
0.148707
0.148708
0.148708
0.148709
0.148709
0.14871
0.14871
0.14871
0.14871
0.14871
0.14871
0.148711
0.148676
0.148679
0.14868
0.148682
0.148683
0.148685
0.148686
0.148687
0.148689
0.14869
0.148691
0.148692
0.148693
0.148694
0.148696
0.148697
0.148698
0.148699
0.1487
0.148701
0.148702
0.148703
0.148703
0.148704
0.148705
0.148706
0.148706
0.148707
0.148708
0.148708
0.148709
0.148709
0.14871
0.14871
0.14871
0.14871
0.148711
0.148711
0.148711
0.148711
0.148676
0.148679
0.148681
0.148682
0.148683
0.148685
0.148686
0.148687
0.148689
0.14869
0.148691
0.148692
0.148694
0.148695
0.148696
0.148697
0.148698
0.148699
0.1487
0.148701
0.148702
0.148703
0.148704
0.148705
0.148705
0.148706
0.148707
0.148707
0.148708
0.148709
0.148709
0.148709
0.14871
0.14871
0.148711
0.148711
0.148711
0.148711
0.148711
0.148711
0.148676
0.148679
0.148681
0.148682
0.148684
0.148685
0.148686
0.148688
0.148689
0.14869
0.148691
0.148693
0.148694
0.148695
0.148696
0.148697
0.148698
0.148699
0.1487
0.148701
0.148702
0.148703
0.148704
0.148705
0.148706
0.148706
0.148707
0.148708
0.148708
0.148709
0.148709
0.14871
0.14871
0.148711
0.148711
0.148711
0.148711
0.148712
0.148712
0.148712
0.148677
0.148679
0.148681
0.148682
0.148684
0.148685
0.148686
0.148688
0.148689
0.14869
0.148692
0.148693
0.148694
0.148695
0.148696
0.148697
0.148699
0.1487
0.148701
0.148702
0.148703
0.148703
0.148704
0.148705
0.148706
0.148707
0.148707
0.148708
0.148709
0.148709
0.14871
0.14871
0.148711
0.148711
0.148711
0.148712
0.148712
0.148712
0.148712
0.148712
0.148677
0.148679
0.148681
0.148682
0.148684
0.148685
0.148687
0.148688
0.148689
0.14869
0.148692
0.148693
0.148694
0.148695
0.148697
0.148698
0.148699
0.1487
0.148701
0.148702
0.148703
0.148704
0.148705
0.148705
0.148706
0.148707
0.148708
0.148708
0.148709
0.14871
0.14871
0.148711
0.148711
0.148711
0.148712
0.148712
0.148712
0.148712
0.148712
0.148712
0.148677
0.148679
0.148681
0.148683
0.148684
0.148685
0.148687
0.148688
0.148689
0.148691
0.148692
0.148693
0.148694
0.148696
0.148697
0.148698
0.148699
0.1487
0.148701
0.148702
0.148703
0.148704
0.148705
0.148706
0.148707
0.148707
0.148708
0.148709
0.148709
0.14871
0.14871
0.148711
0.148711
0.148712
0.148712
0.148712
0.148713
0.148713
0.148713
0.148713
0.148677
0.148679
0.148681
0.148683
0.148684
0.148686
0.148687
0.148688
0.14869
0.148691
0.148692
0.148693
0.148695
0.148696
0.148697
0.148698
0.148699
0.1487
0.148701
0.148702
0.148703
0.148704
0.148705
0.148706
0.148707
0.148708
0.148708
0.148709
0.14871
0.14871
0.148711
0.148711
0.148712
0.148712
0.148712
0.148713
0.148713
0.148713
0.148713
0.148713
0.148677
0.148679
0.148681
0.148683
0.148684
0.148686
0.148687
0.148688
0.14869
0.148691
0.148692
0.148694
0.148695
0.148696
0.148697
0.148698
0.1487
0.148701
0.148702
0.148703
0.148704
0.148705
0.148706
0.148706
0.148707
0.148708
0.148709
0.148709
0.14871
0.148711
0.148711
0.148712
0.148712
0.148712
0.148713
0.148713
0.148713
0.148713
0.148714
0.148714
0.148677
0.148679
0.148681
0.148683
0.148684
0.148686
0.148687
0.148689
0.14869
0.148691
0.148692
0.148694
0.148695
0.148696
0.148697
0.148699
0.1487
0.148701
0.148702
0.148703
0.148704
0.148705
0.148706
0.148707
0.148708
0.148708
0.148709
0.14871
0.14871
0.148711
0.148712
0.148712
0.148712
0.148713
0.148713
0.148713
0.148714
0.148714
0.148714
0.148714
0.148677
0.14868
0.148681
0.148683
0.148684
0.148686