/*--------------------------------*- C++ -*----------------------------------*\
| =========                 |                                                 |
| \\      /  F ield         | OpenFOAM: The Open Source CFD Toolbox           |
|  \\    /   O peration     | Version:  2.3.0                                 |
|   \\  /    A nd           | Web:      www.OpenFOAM.org                      |
|    \\/     M anipulation  |                                                 |
\*---------------------------------------------------------------------------*/
FoamFile
{
    version     2.0;
    format      ascii;
    class       volScalarField;
    location    "20";
    object      dQ;
}
// * * * * * * * * * * * * * * * * * * * * * * * * * * * * * * * * * * * * * //

dimensions      [1 2 -3 0 0 0 0];

internalField   nonuniform List<scalar> 
26600
(
1.34851e-18
5.94029e-16
1.75752e-14
2.91437e-13
2.01327e-12
1.58514e-11
6.87768e-11
2.23925e-10
5.903e-10
1.26063e-09
2.40426e-09
4.15454e-09
6.68607e-09
1.01601e-08
1.4701e-08
2.06609e-08
2.82122e-08
3.68984e-08
4.79844e-08
6.25177e-08
8.09536e-08
1.04774e-07
1.34736e-07
1.715e-07
2.17265e-07
2.73317e-07
3.42993e-07
4.28746e-07
5.34266e-07
6.63354e-07
8.2713e-07
1.03418e-06
1.30217e-06
1.6497e-06
2.10067e-06
2.66787e-06
3.40428e-06
4.31e-06
5.62849e-06
8.51793e-06
1.58861e-16
8.7363e-15
1.60464e-13
2.08864e-12
1.05865e-11
7.57684e-11
2.46043e-10
6.43114e-10
1.38232e-09
2.4175e-09
4.34025e-09
7.23308e-09
1.16534e-08
1.89214e-08
2.83918e-08
4.5552e-08
6.65096e-08
1.07774e-07
1.58063e-07
2.67254e-07
3.997e-07
6.57085e-07
1.05315e-06
1.7134e-06
2.7561e-06
4.08332e-06
7.39004e-06
1.08418e-05
1.87476e-05
2.59167e-05
4.73673e-05
6.82755e-05
9.16797e-05
0.000132866
0.000161886
0.000220166
0.000267591
0.000379475
0.000497853
0.000729439
2.85229e-15
9.81028e-14
1.63335e-12
1.50727e-11
7.59435e-11
3.51332e-10
8.49373e-10
2.03263e-09
3.83681e-09
6.99676e-09
1.22909e-08
2.08477e-08
3.55407e-08
6.4124e-08
1.11478e-07
2.2085e-07
3.91695e-07
8.20111e-07
1.45349e-06
3.3563e-06
5.8783e-06
1.38086e-05
2.9309e-05
5.66492e-05
0.000154581
0.000264044
0.000429398
0.000740233
0.00130373
0.00201922
0.00327277
0.00483725
0.00797834
0.0106282
0.017434
0.0250403
0.0370833
0.0506505
0.0628451
0.11514
1.40843e-14
5.32845e-13
7.89257e-12
5.76602e-11
2.67334e-10
9.65401e-10
2.19863e-09
4.80965e-09
8.77175e-09
1.57252e-08
2.93953e-08
5.52526e-08
1.12885e-07
2.52822e-07
5.63473e-07
1.51941e-06
3.37035e-06
9.76664e-06
2.12044e-05
6.90405e-05
0.000145367
0.000577235
0.00117664
0.00200041
0.00527953
0.00987362
0.0216247
0.0397622
0.0661364
0.105371
0.16154
0.216431
0.276994
0.321281
0.433165
0.586602
0.888873
1.25174
1.62991
0.103773
6.35536e-14
2.25176e-12
2.68183e-11
1.8279e-10
7.66969e-10
2.29203e-09
4.70789e-09
9.92564e-09
1.88852e-08
3.72137e-08
8.32351e-08
1.92233e-07
5.41439e-07
1.67315e-06
5.31926e-06
2.07421e-05
5.67396e-05
0.00024208
0.000605743
0.00300481
0.00687026
0.0168551
0.0549946
0.140478
0.277749
0.479264
0.867714
1.50918
2.32351
2.85351
3.38534
3.81908
3.93676
4.49833
4.63911
4.28121
4.19412
3.78896
3.56516
2.83373
2.89455e-13
8.14362e-12
8.85812e-11
5.39668e-10
1.85002e-09
4.84224e-09
9.56968e-09
2.08213e-08
4.61732e-08
1.12234e-07
3.46646e-07
1.12648e-06
5.26574e-06
2.40249e-05
0.000122525
0.000646148
0.00204984
0.0133109
0.0314549
0.124028
0.345496
1.01209
3.56891
3.49993
4.48717
4.89099
4.62636
4.24223
3.45134
3.03698
2.80845
2.78369
2.95367
3.12457
3.44314
2.91491
2.65932
2.70801
2.80411
2.23602
1.29814e-12
3.12874e-11
3.00828e-10
1.42519e-09
4.03784e-09
9.70966e-09
1.97155e-08
4.89189e-08
1.51473e-07
5.19733e-07
2.65704e-06
1.4501e-05
0.000135487
0.000867763
0.00789004
0.0379075
0.131745
0.602791
1.85812
3.39067
4.52263
4.69114
0.803503
1.61973
2.19552
2.62846
3.02121
2.6979
2.36302
2.27286
2.29667
2.4882
2.80193
3.24559
4.26905
6.61932
4.82162
2.40313
1.75158
2.06601
5.6731e-12
1.28307e-10
9.3769e-10
3.31103e-09
8.26341e-09
1.94546e-08
4.53782e-08
1.47882e-07
8.32878e-07
4.58268e-06
4.69161e-05
0.000540189
0.0103332
0.0671775
0.412868
1.86923
4.1365
5.21762
4.17193
2.92139
2.48407
2.66572
2.57196
2.07198
2.02923
2.45404
3.3068
5.04207
6.79091
2.85538
1.70375
1.33908
1.19225
1.08897
0.909999
0.458102
0.130713
0.0621627
0.048099
0.0464969
2.91855e-11
4.97694e-10
2.46125e-09
6.93725e-09
1.65432e-08
4.23846e-08
1.35913e-07
7.08116e-07
1.03444e-05
9.39961e-05
0.00227506
0.0657113
0.511182
2.74891
5.12797
4.06046
2.96537
2.46303
2.61186
1.76337
1.76461
2.09743
3.12664
6.33988
3.77457
1.50191
0.906929
0.626857
0.198947
0.0783615
0.0449718
0.0378325
0.0347435
0.0317763
0.0290056
0.0212685
0.0120377
0.007673
0.00484593
0.00479413
1.45011e-10
1.55779e-09
5.37265e-09
1.3761e-08
3.49549e-08
1.16624e-07
6.70236e-07
7.27566e-06
0.000385265
0.00486393
0.322539
2.52816
4.95164
3.35382
2.54427
2.36006
1.50272
1.60981
2.70873
4.29237
3.39355
1.24968
0.785904
0.249032
0.0780907
0.0430213
0.0279948
0.0184021
0.0117437
0.0077848
0.00520185
0.00333685
0.00193454
0.00117843
0.000616277
0.000348081
0.000257325
0.000192081
0.000168591
0.000176207
5.85684e-10
3.65052e-09
1.05289e-08
2.77713e-08
8.9105e-08
5.38567e-07
7.8519e-06
0.000219246
0.0302509
0.483029
4.64472
3.20091
2.50826
1.57511
1.35333
2.47353
4.41407
1.38956
0.612881
0.259743
0.0781567
0.0462017
0.0289783
0.00794844
0.00103562
0.000206667
0.00011613
7.62437e-05
5.25233e-05
3.66088e-05
2.78015e-05
2.13416e-05
1.13623e-05
8.53509e-06
6.84811e-06
5.9028e-06
5.92535e-06
6.69425e-06
8.58283e-06
1.4296e-05
1.58717e-09
7.20965e-09
2.04279e-08
6.36525e-08
3.56727e-07
7.32948e-06
0.00029424
0.0247361
1.7065
4.46701
3.02116
1.52058
1.35132
2.53573
2.86312
0.715566
0.104214
0.0551049
0.0447101
0.0183234
0.0033997
0.00014492
3.3914e-05
1.1594e-05
2.19929e-06
6.23932e-07
2.60938e-07
1.6736e-07
1.3175e-07
1.16298e-07
1.20998e-07
1.31804e-07
1.41911e-07
1.66725e-07
2.20043e-07
3.2283e-07
5.10302e-07
7.89522e-07
1.35678e-06
2.88251e-06
3.36777e-09
1.39509e-08
4.29717e-08
2.05299e-07
3.8708e-06
0.00061869
0.0292514
2.1688
4.2747
2.35983
1.20319
1.87446
2.59859
0.503486
0.074435
0.0554347
0.0307003
0.00606231
0.000157819
2.57595e-05
3.46093e-06
1.46914e-07
1.74882e-08
2.33901e-09
1.3349e-09
1.1267e-09
1.32103e-09
1.76136e-09
2.44225e-09
3.70994e-09
6.10766e-09
1.03029e-08
1.68803e-08
2.89657e-08
5.40407e-08
1.05523e-07
2.11597e-07
4.22571e-07
8.56168e-07
1.85599e-06
7.21596e-09
2.86821e-08
1.1741e-07
1.51389e-06
0.000324459
0.0209341
2.53801
3.61451
1.77656
1.55734
3.23024
0.65238
0.080687
0.0571344
0.038098
0.00362706
5.61739e-05
1.07006e-05
2.59373e-07
7.71715e-09
1.83646e-10
4.09037e-11
3.61287e-11
4.05179e-11
5.42877e-11
8.32669e-11
1.5041e-10
2.78949e-10
5.6077e-10
1.13831e-09
2.35885e-09
4.88953e-09
9.99128e-09
2.07461e-08
4.41657e-08
9.55839e-08
2.08824e-07
4.57048e-07
1.00296e-06
2.258e-06
1.76306e-08
6.88163e-08
7.27777e-07
7.71091e-05
0.0142241
2.90458
3.19265
1.50594
1.75443
2.43073
0.293713
0.064555
0.0561965
0.00770998
0.000100986
1.24454e-05
3.20977e-07
4.8451e-10
2.0129e-11
4.1233e-12
2.97241e-12
3.07148e-12
4.50782e-12
9.04794e-12
1.70015e-11
3.7266e-11
8.55196e-11
1.97752e-10
4.54997e-10
1.05971e-09
2.44909e-09
5.58775e-09
1.25906e-08
2.83111e-08
6.37974e-08
1.43812e-07
3.23335e-07
7.22761e-07
1.60705e-06
3.58283e-06
4.12289e-08
2.83095e-07
7.22251e-05
0.00352319
2.46235
3.51046
1.36001
1.97263
2.01595
0.229729
0.0822556
0.0369205
0.000584142
1.24086e-05
1.37163e-06
1.1531e-09
1.26325e-11
8.65539e-13
4.9187e-13
4.36139e-13
6.0123e-13
1.08722e-12
2.56655e-12
5.72215e-12
1.60786e-11
4.46135e-11
1.18063e-10
3.06024e-10
7.73229e-10
1.87846e-09
4.42395e-09
1.02708e-08
2.35803e-08
5.3709e-08
1.21514e-07
2.72829e-07
6.06347e-07
1.32944e-06
2.86804e-06
6.07709e-06
1.44261e-07
1.33831e-05
0.00485067
2.66027
3.89337
1.53061
1.95835
1.82313
0.229663
0.0931977
0.0113813
0.000112696
7.10395e-06
1.1e-07
4.70723e-11
1.00095e-12
1.41456e-13
9.76719e-14
1.01099e-13
1.74307e-13
3.60431e-13
1.04284e-12
3.30803e-12
1.08886e-11
3.28835e-11
9.43918e-11
2.70249e-10
7.29246e-10
1.88711e-09
4.55293e-09
1.0354e-08
2.35548e-08
5.31485e-08
1.18503e-07
2.61071e-07
5.67498e-07
1.21297e-06
2.53676e-06
5.16114e-06
1.01424e-05
3.4667e-07
0.00515846
3.91638
3.19169
1.73637
2.50305
1.61293
0.314773
0.0831775
0.000799111
9.62625e-05
2.13578e-06
6.72617e-10
3.08988e-12
1.05015e-13
3.63015e-14
3.00971e-14
3.11719e-14
3.22655e-14
1.33512e-13
4.83131e-13
1.99694e-12
6.71129e-12
3.05155e-11
8.90488e-11
2.6237e-10
7.86532e-10
2.12303e-09
5.42567e-09
1.28942e-08
2.65913e-08
5.857e-08
1.28053e-07
2.74358e-07
5.77484e-07
1.19245e-06
2.40564e-06
4.7115e-06
8.88983e-06
1.60126e-05
9.90641e-07
10.2541
3.10591
1.9346
4.70006
1.47387
0.294298
0.0187322
0.000108946
1.24803e-05
8.65405e-09
2.23874e-11
3.97305e-13
2.25632e-14
1.33797e-14
6.93761e-15
1.43797e-14
2.97865e-14
6.1663e-14
1.91367e-13
1.05522e-12
5.11905e-12
2.00051e-11
8.56698e-11
3.02832e-10
9.22198e-10
2.5708e-09
6.57917e-09
1.58502e-08
3.61659e-08
7.29997e-08
1.47485e-07
3.07676e-07
6.25086e-07
1.24116e-06
2.40497e-06
4.52573e-06
8.21344e-06
1.42608e-05
2.34793e-05
1.93153e-06
14.7865
4.43867
7.26533
2.20318
0.0370609
0.00115876
2.40274e-05
1.92371e-07
1.10378e-10
1.18298e-12
5.9806e-14
5.91915e-15
3.07339e-15
-6.14193e-21
-6.36938e-21
-6.60097e-21
-2.73468e-20
5.87949e-14
4.86577e-13
2.64112e-12
1.52202e-11
7.45693e-11
3.12393e-10
1.07752e-09
3.17223e-09
8.31943e-09
1.99715e-08
4.49035e-08
9.54035e-08
1.90911e-07
3.61621e-07
7.05556e-07
1.34505e-06
2.4986e-06
4.51038e-06
7.86921e-06
1.31802e-05
2.10352e-05
3.1757e-05
1.21464e-14
1.35565e-06
4.71823e-06
7.01025e-06
3.60269e-06
2.61426e-07
9.0425e-10
1.07844e-11
6.91942e-13
6.75721e-14
1.17216e-14
1.35449e-15
1.4076e-15
0
-1.46058e-21
-1.51467e-21
-5.4941e-21
-4.38966e-20
1.67781e-13
1.27281e-12
9.75693e-12
5.98889e-11
2.92721e-10
1.1512e-09
3.725e-09
1.02967e-08
2.52592e-08
5.67112e-08
1.19219e-07
2.38501e-07
4.47841e-07
8.17729e-07
1.49322e-06
2.65911e-06
4.60422e-06
7.72209e-06
1.24741e-05
1.92939e-05
2.84098e-05
3.96146e-05
3.72529e-17
2.67025e-14
3.25556e-13
3.59393e-13
2.03404e-13
5.2159e-14
1.15239e-14
3.27952e-15
5.69841e-16
2.96792e-16
0
0
0
0
0
-1.07775e-21
-5.95697e-21
5.12604e-14
5.30589e-13
4.89137e-12
4.01038e-11
2.40837e-10
1.10253e-09
3.99176e-09
1.19138e-08
3.05415e-08
6.97917e-08
1.46398e-07
2.87675e-07
5.3755e-07
9.59635e-07
1.67019e-06
2.85472e-06
4.75039e-06
7.66923e-06
1.19645e-05
1.79505e-05
2.57721e-05
3.5264e-05
4.58441e-05
0
0
2.06962e-16
2.16815e-16
2.26898e-16
2.3721e-16
1.23875e-16
0
0
0
0
0
0
0
-1.63847e-22
-6.79659e-22
-1.44396e-20
9.69791e-14
2.2084e-12
2.18309e-11
1.66525e-10
9.19102e-10
3.81559e-09
1.2543e-08
3.42477e-08
8.10826e-08
1.72417e-07
3.38296e-07
6.21121e-07
1.08929e-06
1.85124e-06
3.0525e-06
4.90044e-06
7.64021e-06
1.15356e-05
1.6809e-05
2.3548e-05
3.16061e-05
4.05388e-05
4.96192e-05
0
0
0
0
0
0
0
0
0
0
0
0
0
0
-1.54484e-22
-2.08267e-21
-5.54542e-20
6.40063e-13
8.52899e-12
9.25161e-11
6.40994e-10
3.16903e-09
1.17634e-08
3.48936e-08
8.70861e-08
1.90653e-07
3.78158e-07
6.94358e-07
1.18821e-06
1.9884e-06
3.20284e-06
4.9959e-06
7.55975e-06
1.10886e-05
1.5735e-05
2.15453e-05
2.83904e-05
3.59237e-05
4.35945e-05
5.07321e-05
0
0
0
0
0
0
0
0
0
0
0
0
0
0
-2.90243e-22
-9.18026e-21
1.65868e-13
2.62476e-12
3.8578e-11
3.47268e-10
2.20508e-09
9.62045e-09
3.17662e-08
8.51347e-08
1.94882e-07
3.95982e-07
7.35218e-07
1.259e-06
2.04265e-06
3.25475e-06
4.97986e-06
7.36485e-06
1.05494e-05
1.46342e-05
1.96367e-05
2.54446e-05
3.17878e-05
3.82475e-05
4.43111e-05
4.94679e-05
0
0
0
0
0
0
0
0
0
0
0
0
0
-6.54115e-23
-1.90063e-21
7.48617e-14
1.00859e-12
1.64911e-11
1.81869e-10
1.32168e-09
6.77521e-09
2.544e-08
7.47212e-08
1.81892e-07
3.84186e-07
7.29058e-07
1.26563e-06
2.02612e-06
3.18712e-06
4.8162e-06
7.01208e-06
9.86815e-06
1.34464e-05
1.77448e-05
2.26665e-05
2.80007e-05
3.3429e-05
3.85622e-05
4.30024e-05
4.6417e-05
0
0
0
0
0
0
0
0
0
0
0
0
0
-3.04502e-22
-1.403e-20
2.78795e-13
5.52998e-12
7.68682e-11
6.82271e-10
4.10881e-09
1.77113e-08
5.80767e-08
1.53245e-07
3.41935e-07
6.71652e-07
1.19673e-06
1.93951e-06
2.97841e-06
4.49637e-06
6.49048e-06
9.03001e-06
1.21492e-05
1.58336e-05
1.99999e-05
2.44837e-05
2.90427e-05
3.33813e-05
3.71926e-05
4.02084e-05
4.22445e-05
0
0
0
0
0
0
0
0
0
0
0
0
-5.43009e-23
-1.91723e-21
6.22313e-14
1.41979e-12
2.40339e-11
2.76939e-10
2.05726e-09
1.05887e-08
3.93752e-08
1.14943e-07
2.7625e-07
5.70916e-07
1.05114e-06
1.74665e-06
2.69208e-06
4.04399e-06
5.82029e-06
8.05249e-06
1.07541e-05
1.39026e-05
1.74263e-05
2.1196e-05
2.5027e-05
2.8695e-05
3.19637e-05
3.46193e-05
3.65037e-05
3.75367e-05
0
0
0
0
0
0
0
0
0
0
0
0
-1.99827e-22
-1.02719e-20
2.29011e-13
5.05354e-12
8.22572e-11
7.9912e-10
5.07001e-09
2.26031e-08
7.51715e-08
1.99432e-07
4.42737e-07
8.56884e-07
1.47892e-06
2.30241e-06
3.49482e-06
5.04268e-06
6.97628e-06
9.29635e-06
1.19757e-05
1.4952e-05
1.81226e-05
2.1346e-05
2.44511e-05
2.72563e-05
2.95921e-05
3.13257e-05
3.23781e-05
3.27327e-05
0
0
0
0
0
0
0
0
0
0
0
0
-8.2103e-22
-4.28197e-20
7.84114e-13
1.67394e-11
2.24945e-10
1.88459e-09
1.04603e-08
4.09558e-08
1.25496e-07
3.07699e-07
6.3893e-07
1.16623e-06
1.88595e-06
2.8479e-06
4.195e-06
5.84963e-06
7.82236e-06
1.00892e-05
1.25969e-05
1.52633e-05
1.79785e-05
2.06115e-05
2.30219e-05
2.5076e-05
2.66633e-05
2.77108e-05
2.81904e-05
2.81195e-05
0
0
0
0
0
0
0
0
0
0
0
-3.97116e-23
-2.80627e-21
9.11523e-14
2.06009e-12
4.20023e-11
5.00665e-10
3.72346e-09
1.86104e-08
6.67451e-08
1.87065e-07
4.2834e-07
8.39704e-07
1.4353e-06
2.22761e-06
3.33124e-06
4.72116e-06
6.37938e-06
8.2823e-06
1.03861e-05
1.26246e-05
1.49118e-05
1.71464e-05
1.92193e-05
2.10247e-05
2.24717e-05
2.34948e-05
2.40608e-05
2.41706e-05
2.38569e-05
0
0
0
0
0
0
0
0
0
0
0
-1.42126e-22
-7.16338e-21
1.63115e-13
4.78672e-12
8.70209e-11
9.34055e-10
6.30147e-09
2.88454e-08
9.61447e-08
2.51756e-07
5.4515e-07
1.00803e-06
1.62377e-06
2.51382e-06
3.64441e-06
5.01251e-06
6.5916e-06
8.34325e-06
1.02142e-05
1.21364e-05
1.40306e-05
1.58116e-05
1.73955e-05
1.87075e-05
1.96903e-05
2.03094e-05
2.05556e-05
2.04446e-05
2.00131e-05
0
0
0
0
0
0
0
0
0
0
0
-2.5081e-22
-1.44006e-20
3.2383e-13
9.04458e-12
1.50834e-10
1.49481e-09
9.31721e-09
3.94585e-08
1.24637e-07
3.0937e-07
6.38012e-07
1.11243e-06
1.75287e-06
2.66049e-06
3.76268e-06
5.04958e-06
6.48965e-06
8.03931e-06
9.64449e-06
1.12426e-05
1.27665e-05
1.41493e-05
1.53298e-05
1.62584e-05
1.69016e-05
1.72444e-05
1.72912e-05
1.70632e-05
1.65956e-05
0
0
0
0
0
0
0
0
0
0
-1.30631e-23
-4.07566e-22
-2.37751e-20
5.61306e-13
1.42354e-11
2.24895e-10
2.09169e-09
1.22633e-08
4.92596e-08
1.47435e-07
3.50363e-07
6.8545e-07
1.14038e-06
1.80829e-06
2.66421e-06
3.68469e-06
4.84409e-06
6.10712e-06
7.43048e-06
8.76461e-06
1.00562e-05
1.12518e-05
1.23013e-05
1.31624e-05
1.38038e-05
1.42078e-05
1.43711e-05
1.43041e-05
1.40289e-05
1.35761e-05
0
0
0
0
0
0
0
0
0
0
0
-5.51782e-22
2.54091e-14
7.65199e-13
1.92409e-11
2.92253e-10
2.59117e-09
1.4482e-08
5.56705e-08
1.59924e-07
3.65753e-07
6.80375e-07
1.11554e-06
1.74681e-06
2.5221e-06
3.42448e-06
4.42613e-06
5.49257e-06
6.58451e-06
7.65974e-06
8.67543e-06
9.59089e-06
1.03704e-05
1.09857e-05
1.14182e-05
1.166e-05
1.17139e-05
1.15921e-05
1.13149e-05
1.09075e-05
0
0
0
0
0
0
0
0
0
0
-1.80874e-23
-6.39566e-22
2.07892e-14
8.10818e-13
2.27052e-11
3.34116e-10
2.85555e-09
1.53781e-08
5.71136e-08
1.59179e-07
3.50342e-07
6.21081e-07
1.03565e-06
1.58372e-06
2.24827e-06
3.00742e-06
3.83416e-06
4.69772e-06
5.56498e-06
6.40212e-06
7.1764e-06
7.85822e-06
8.42297e-06
8.85261e-06
9.13678e-06
9.27311e-06
9.26686e-06
9.12986e-06
8.87897e-06
8.53423e-06
0
0
0
0
0
0
0
0
0
0
-1.40679e-23
-6.29115e-22
1.61694e-14
8.82505e-13
2.31893e-11
3.34697e-10
2.78303e-09
1.45696e-08
5.27277e-08
1.43547e-07
3.05243e-07
5.30136e-07
8.80926e-07
1.3292e-06
1.86324e-06
2.46377e-06
3.10781e-06
3.77027e-06
4.42525e-06
5.04731e-06
5.61275e-06
6.10102e-06
6.49587e-06
6.78626e-06
6.96686e-06
7.03805e-06
7.00542e-06
6.87894e-06
6.67172e-06
6.39879e-06
0
0
0
0
0
0
0
0
0
0
-1.00485e-23
-5.43422e-22
2.30991e-14
7.86279e-13
2.01581e-11
2.8653e-10
2.33702e-09
1.19848e-08
4.25943e-08
1.1398e-07
2.36093e-07
4.05638e-07
6.69754e-07
1.0016e-06
1.39151e-06
1.82467e-06
2.28384e-06
2.7507e-06
3.20687e-06
3.63478e-06
4.01859e-06
4.34497e-06
4.60385e-06
4.78886e-06
4.89753e-06
4.93115e-06
4.89442e-06
4.79471e-06
4.64135e-06
4.44471e-06
0
0
0
0
0
0
0
0
0
0
-6.02912e-24
-3.63675e-22
1.38595e-14
5.36533e-13
1.37353e-11
1.93031e-10
1.5557e-09
7.88122e-09
2.76751e-08
7.31388e-08
1.48936e-07
2.54419e-07
4.17979e-07
6.21556e-07
8.58622e-07
1.11985e-06
1.39463e-06
1.67187e-06
1.94064e-06
2.19068e-06
2.41294e-06
2.59998e-06
2.74634e-06
2.84877e-06
2.90628e-06
2.92004e-06
2.89307e-06
2.82989e-06
2.73604e-06
2.61761e-06
0
0
0
0
0
0
0
0
0
0
-2.00971e-24
-1.27495e-22
4.61982e-15
1.90838e-13
4.8401e-12
6.77828e-11
5.43266e-10
2.73715e-09
9.56271e-09
2.51172e-08
5.07587e-08
8.65053e-08
1.4178e-07
2.10302e-07
2.89776e-07
3.77027e-07
4.68479e-07
5.60423e-07
6.49237e-07
7.31553e-07
8.04418e-07
8.65436e-07
9.1288e-07
9.45749e-07
9.63786e-07
9.6743e-07
9.57724e-07
9.36185e-07
9.04651e-07
8.65123e-07
7.63196e-12
1.33916e-11
1.59446e-11
1.83433e-11
1.92158e-11
2.00113e-11
2.07291e-11
2.13702e-11
2.07156e-11
2.12404e-11
2.16883e-11
2.0956e-11
2.12875e-11
2.05163e-11
2.07321e-11
1.99215e-11
2.00211e-11
1.91718e-11
1.83219e-11
1.82664e-11
1.73777e-11
1.64885e-11
1.62777e-11
1.53497e-11
1.44211e-11
1.40548e-11
1.30873e-11
1.21193e-11
1.11513e-11
1.05904e-11
9.58294e-12
8.5754e-12
7.56759e-12
6.55936e-12
5.551e-12
4.54236e-12
3.66926e-12
2.62126e-12
1.57297e-12
5.2438e-13
7.63211e-12
1.33916e-11
1.59443e-11
1.83437e-11
1.92158e-11
2.00109e-11
2.07295e-11
2.13702e-11
2.07152e-11
2.12408e-11
2.16883e-11
2.09556e-11
2.1288e-11
2.05163e-11
2.07317e-11
1.99219e-11
2.00211e-11
1.91714e-11
1.83223e-11
1.82664e-11
1.73774e-11
1.64889e-11
1.62777e-11
1.53494e-11
1.44214e-11
1.40548e-11
1.30871e-11
1.21196e-11
1.11514e-11
1.05902e-11
9.58313e-12
8.57541e-12
7.56744e-12
6.55949e-12
5.551e-12
4.54226e-12
3.66933e-12
2.62127e-12
1.57294e-12
5.24387e-13
7.63195e-12
1.33916e-11
1.59446e-11
1.83433e-11
1.92158e-11
2.00113e-11
2.07291e-11
2.13702e-11
2.07156e-11
2.12404e-11
2.16883e-11
2.0956e-11
2.12875e-11
2.05163e-11
2.07321e-11
1.99215e-11
2.00211e-11
1.91718e-11
1.83219e-11
1.82664e-11
1.73777e-11
1.72054e-11
1.62777e-11
1.53497e-11
1.44211e-11
1.40548e-11
1.30873e-11
1.21193e-11
1.11513e-11
1.05904e-11
9.58294e-12
8.5754e-12
7.56759e-12
6.55936e-12
5.551e-12
4.71706e-12
3.66926e-12
2.62126e-12
1.57297e-12
5.2438e-13
7.63195e-12
1.33916e-11
1.73941e-11
1.83433e-11
1.92158e-11
2.00113e-11
2.07291e-11
2.13702e-11
2.07156e-11
2.12404e-11
2.16883e-11
2.0956e-11
2.12875e-11
2.05163e-11
2.07321e-11
1.99215e-11
2.00211e-11
1.91718e-11
1.83219e-11
1.82664e-11
1.73777e-11
1.72054e-11
1.62777e-11
1.53497e-11
1.44211e-11
1.40548e-11
1.30873e-11
1.21193e-11
1.15974e-11
1.05904e-11
9.58294e-12
8.5754e-12
7.56759e-12
6.55936e-12
5.551e-12
4.71706e-12
3.66926e-12
2.62126e-12
1.57297e-12
5.2438e-13
7.63211e-12
1.33916e-11
1.73938e-11
1.83437e-11
1.92158e-11
2.00109e-11
2.07295e-11
2.13702e-11
2.07152e-11
2.12408e-11
2.16883e-11
2.09556e-11
2.1288e-11
2.05163e-11
2.07317e-11
1.99219e-11
2.00211e-11
1.91714e-11
1.83223e-11
1.82664e-11
1.73774e-11
1.72058e-11
1.62777e-11
1.53494e-11
1.50223e-11
1.40548e-11
1.30871e-11
1.21196e-11
1.15974e-11
1.05902e-11
9.58313e-12
8.57541e-12
7.56744e-12
6.55949e-12
5.7645e-12
4.71697e-12
3.66933e-12
2.62127e-12
1.57294e-12
5.24387e-13
7.63195e-12
1.33916e-11
1.73941e-11
1.83433e-11
1.92158e-11
2.00113e-11
2.07291e-11
2.13702e-11
2.07156e-11
2.12404e-11
2.16883e-11
2.0956e-11
2.12875e-11
2.05163e-11
2.07321e-11
1.99215e-11
2.00211e-11
1.91718e-11
1.91547e-11
1.82664e-11
1.73777e-11
1.72054e-11
1.62777e-11
1.53497e-11
1.5022e-11
1.40548e-11
1.30873e-11
1.21193e-11
1.15974e-11
1.05904e-11
9.58294e-12
8.5754e-12
7.56759e-12
6.81164e-12
5.7645e-12
4.71706e-12
3.66926e-12
2.62126e-12
1.57297e-12
5.2438e-13
7.63195e-12
1.33916e-11
1.73941e-11
1.83433e-11
1.92158e-11
2.00113e-11
2.07291e-11
2.13702e-11
2.07156e-11
2.12404e-11
2.16883e-11
2.0956e-11
2.12875e-11
2.05163e-11
2.07321e-11
1.99215e-11
2.00211e-11
1.91718e-11
1.91547e-11
1.82664e-11
1.73777e-11
1.72054e-11
1.62777e-11
1.53497e-11
1.5022e-11
1.40548e-11
1.30873e-11
1.21193e-11
1.15974e-11
1.05904e-11
9.58294e-12
8.5754e-12
7.56759e-12
6.81164e-12
5.7645e-12
4.71706e-12
3.66926e-12
2.62126e-12
1.57297e-12
5.2438e-13
7.63211e-12
1.33916e-11
1.73938e-11
1.83437e-11
1.92158e-11
2.00109e-11
2.07295e-11
2.13702e-11
2.07152e-11
2.12408e-11
2.16883e-11
2.09556e-11
2.1288e-11
2.05163e-11
2.07317e-11
1.99219e-11
2.00211e-11
1.91714e-11
1.91551e-11
1.82664e-11
1.73774e-11
1.72058e-11
1.62777e-11
1.53494e-11
1.50223e-11
1.40548e-11
1.30871e-11
1.26044e-11
1.15974e-11
1.05902e-11
9.58313e-12
8.57541e-12
7.85849e-12
6.81178e-12
5.7645e-12
4.71697e-12
3.66933e-12
2.62127e-12
1.57294e-12
5.24387e-13
7.63195e-12
1.33916e-11
1.73941e-11
1.83433e-11
1.92158e-11
2.00113e-11
2.07291e-11
2.13702e-11
2.07156e-11
2.12404e-11
2.16883e-11
2.0956e-11
2.12875e-11
2.05163e-11
2.07321e-11
1.99215e-11
2.00211e-11
1.91718e-11
1.91547e-11
1.82664e-11
1.73777e-11
1.72054e-11
1.62777e-11
1.53497e-11
1.5022e-11
1.40548e-11
1.30873e-11
1.26041e-11
1.15974e-11
1.05904e-11
9.58294e-12
8.5754e-12
7.85865e-12
6.81164e-12
5.7645e-12
4.71706e-12
3.66926e-12
2.62126e-12
1.57297e-12
5.2438e-13
7.63195e-12
1.33916e-11
1.73941e-11
1.83433e-11
1.92158e-11
2.00113e-11
2.07291e-11
2.13702e-11
2.07156e-11
2.12404e-11
2.16883e-11
2.0956e-11
2.12875e-11
2.05163e-11
2.07321e-11
1.99215e-11
2.00211e-11
1.91718e-11
1.91547e-11
1.82664e-11
1.73777e-11
1.72054e-11
1.62777e-11
1.53497e-11
1.5022e-11
1.40548e-11
1.30873e-11
1.26041e-11
1.15974e-11
1.05904e-11
9.58294e-12
8.5754e-12
7.85865e-12
6.81164e-12
5.7645e-12
4.71706e-12
3.66926e-12
2.62126e-12
1.57297e-12
5.2438e-13
7.63211e-12
1.33916e-11
1.73938e-11
1.83437e-11
1.92158e-11
2.00109e-11
2.07295e-11
2.13702e-11
2.19337e-11
2.12408e-11
2.16883e-11
2.09556e-11
2.1288e-11
2.05163e-11
2.07317e-11
1.99219e-11
2.00211e-11
1.91714e-11
1.91551e-11
1.82664e-11
1.73774e-11
1.72058e-11
1.62777e-11
1.59889e-11
1.50223e-11
1.40548e-11
1.30871e-11
1.26044e-11
1.15974e-11
1.05902e-11
9.58313e-12
8.90523e-12
7.85849e-12
6.81178e-12
5.7645e-12
4.71697e-12
3.66933e-12
2.62127e-12
1.57294e-12
5.24387e-13
7.63195e-12
1.33916e-11
1.73941e-11
1.83433e-11
1.92158e-11
2.00113e-11
2.07291e-11
2.13702e-11
2.19341e-11
2.12404e-11
2.16883e-11
2.0956e-11
2.12875e-11
2.05163e-11
2.07321e-11
1.99215e-11
2.00211e-11
1.91718e-11
1.91547e-11
1.82664e-11
1.81333e-11
1.72054e-11
1.62777e-11
1.59892e-11
1.5022e-11
1.40548e-11
1.30873e-11
1.26041e-11
1.15974e-11
1.05904e-11
9.58294e-12
8.90523e-12
7.85865e-12
6.81164e-12
5.7645e-12
4.71706e-12
3.66926e-12
2.62126e-12
1.57297e-12
5.2438e-13
7.63195e-12
1.33916e-11
1.73941e-11
1.83433e-11
1.92158e-11
2.00113e-11
2.07291e-11
2.13702e-11
2.19341e-11
2.12404e-11
2.16883e-11
2.0956e-11
2.12875e-11
2.05163e-11
2.07321e-11
1.99215e-11
2.00211e-11
1.91718e-11
1.91547e-11
1.82664e-11
1.81333e-11
1.72054e-11
1.62777e-11
1.59892e-11
1.5022e-11
1.40548e-11
1.36108e-11
1.26041e-11
1.15974e-11
1.05904e-11
9.58294e-12
8.90523e-12
7.85865e-12
6.81164e-12
5.7645e-12
4.71706e-12
3.66926e-12
2.62126e-12
1.57297e-12
5.2438e-13
7.63211e-12
1.33916e-11
1.73938e-11
1.83437e-11
1.92158e-11
2.00108e-11
2.07295e-11
2.13702e-11
2.19337e-11
2.12408e-11
2.16883e-11
2.09556e-11
2.1288e-11
2.05163e-11
2.07317e-11
1.99219e-11
2.00211e-11
1.91714e-11
1.91551e-11
1.82664e-11
1.81329e-11
1.72058e-11
1.62777e-11
1.59889e-11
1.50223e-11
1.40548e-11
1.36105e-11
1.26044e-11
1.15974e-11
1.05902e-11
9.95171e-12
8.90523e-12
7.85849e-12
6.81178e-12
5.7645e-12
4.71697e-12
3.66933e-12
2.62127e-12
1.57294e-12
5.43809e-13
7.63195e-12
1.33916e-11
1.73941e-11
1.83433e-11
1.92158e-11
2.00113e-11
2.07291e-11
2.13702e-11
2.19341e-11
2.12404e-11
2.16883e-11
2.0956e-11
2.12875e-11
2.15421e-11
2.07321e-11
2.08701e-11
2.00211e-11
1.91718e-11
1.91547e-11
1.82664e-11
1.81333e-11
1.72054e-11
1.62777e-11
1.59892e-11
1.5022e-11
1.40548e-11
1.36108e-11
1.26041e-11
1.15974e-11
1.05904e-11
9.95152e-12
8.90523e-12
7.85865e-12
6.81164e-12
5.7645e-12
4.71706e-12
3.66926e-12
2.71835e-12
1.63123e-12
5.43802e-13
7.63195e-12
1.33916e-11
1.73941e-11
1.83433e-11
1.92158e-11
2.00113e-11
2.07291e-11
2.13702e-11
2.19341e-11
2.12404e-11
2.16883e-11
2.0956e-11
2.12875e-11
2.15421e-11
2.07321e-11
2.08701e-11
2.00211e-11
1.91718e-11
1.91547e-11
1.82664e-11
1.81333e-11
1.72054e-11
1.62777e-11
1.59892e-11
1.5022e-11
1.40548e-11
1.36108e-11
1.26041e-11
1.15974e-11
1.05904e-11
9.95152e-12
8.90523e-12
7.85865e-12
6.81164e-12
5.7645e-12
4.71706e-12
3.80516e-12
2.71835e-12
1.63123e-12
5.43802e-13
7.63211e-12
1.33916e-11
1.73938e-11
1.83437e-11
1.92158e-11
2.00108e-11
2.07295e-11
2.13702e-11
2.19337e-11
2.12408e-11
2.16883e-11
2.09556e-11
2.1288e-11
2.15421e-11
2.07317e-11
2.08705e-11
2.00211e-11
2.00428e-11
1.91551e-11
1.82664e-11
1.81329e-11
1.72058e-11
1.69559e-11
1.59889e-11
1.50223e-11
1.4617e-11
1.36105e-11
1.26044e-11
1.15974e-11
1.09975e-11
9.95171e-12
8.90523e-12
7.85849e-12
6.81178e-12
5.7645e-12
4.89167e-12
3.80523e-12
2.71835e-12
1.6312e-12
5.43809e-13
9.15835e-12
1.33916e-11
1.73941e-11
1.83433e-11
1.92158e-11
2.00113e-11
2.07291e-11
2.13702e-11
2.19341e-11
2.12404e-11
2.16883e-11
2.0956e-11
2.12875e-11
2.15421e-11
2.07321e-11
2.08701e-11
2.00211e-11
2.00432e-11
1.91547e-11
1.82664e-11
1.81333e-11
1.72054e-11
1.69559e-11
1.59892e-11
1.5022e-11
1.4617e-11
1.36108e-11
1.26041e-11
1.15974e-11
1.09977e-11
9.95152e-12
8.90523e-12
7.85865e-12
6.81164e-12
5.7645e-12
4.89177e-12
3.80516e-12
2.71835e-12
1.63123e-12
5.43802e-13
9.15835e-12
1.48796e-11
1.73941e-11
1.83433e-11
1.92158e-11
2.00113e-11
2.07291e-11
2.13702e-11
2.19341e-11
2.12404e-11
2.16883e-11
2.2059e-11
2.12875e-11
2.15421e-11
2.07321e-11
2.08701e-11
2.00211e-11
2.00432e-11
1.91547e-11
1.82664e-11
1.81333e-11
1.72054e-11
1.69559e-11
1.59892e-11
1.5022e-11
1.4617e-11
1.36108e-11
1.26041e-11
1.15974e-11
1.09977e-11
9.95152e-12
8.90523e-12
7.85865e-12
6.81164e-12
5.978e-12
4.89177e-12
3.80516e-12
2.71835e-12
1.63123e-12
5.43802e-13
9.15853e-12
1.48796e-11
1.73938e-11
1.83437e-11
1.92158e-11
2.00108e-11
2.07295e-11
2.13702e-11
2.19337e-11
2.12408e-11
2.16883e-11
2.20586e-11
2.1288e-11
2.15421e-11
2.07317e-11
2.08705e-11
2.00211e-11
2.00428e-11
1.91551e-11
1.90606e-11
1.81329e-11
1.72058e-11
1.69559e-11
1.59889e-11
1.50223e-11
1.4617e-11
1.36105e-11
1.26044e-11
1.20435e-11
1.09975e-11
9.95171e-12
8.90523e-12
7.85849e-12
7.06406e-12
5.978e-12
4.89167e-12
3.80523e-12
2.71835e-12
1.6312e-12
5.43809e-13
9.15835e-12
1.48796e-11
1.73941e-11
1.83433e-11
1.92158e-11
2.00113e-11
2.07291e-11
2.13702e-11
2.19341e-11
2.12404e-11
2.16883e-11
2.2059e-11
2.12875e-11
2.15421e-11
2.07321e-11
2.08701e-11
2.00211e-11
2.00432e-11
1.91547e-11
1.90605e-11
1.81333e-11
1.72054e-11
1.69559e-11
1.59892e-11
1.5022e-11
1.4617e-11
1.36108e-11
1.26041e-11
1.20435e-11
1.09977e-11
9.95152e-12
8.90523e-12
7.85865e-12
7.06393e-12
5.978e-12
4.89177e-12
3.80516e-12
2.71835e-12
1.63123e-12
5.43802e-13
9.15835e-12
1.48796e-11
1.73941e-11
1.83433e-11
1.92158e-11
2.00113e-11
2.07291e-11
2.13702e-11
2.19341e-11
2.12404e-11
2.16883e-11
2.2059e-11
2.12875e-11
2.15421e-11
2.07321e-11
2.08701e-11
2.00211e-11
2.00432e-11
1.91547e-11
1.90605e-11
1.81333e-11
1.72054e-11
1.69559e-11
1.59892e-11
1.56229e-11
1.4617e-11
1.36108e-11
1.26041e-11
1.20435e-11
1.09977e-11
9.95152e-12
8.90523e-12
8.14971e-12
7.06393e-12
5.978e-12
4.89177e-12
3.80516e-12
2.71835e-12
1.63123e-12
5.43802e-13
9.15853e-12
1.48796e-11
1.73938e-11
1.83437e-11
1.92158e-11
2.00108e-11
2.07295e-11
2.13702e-11
2.19337e-11
2.12408e-11
2.16883e-11
2.20586e-11
2.1288e-11
2.15421e-11
2.07317e-11
2.08705e-11
2.00211e-11
2.00428e-11
1.91551e-11
1.90606e-11
1.81329e-11
1.72058e-11
1.69559e-11
1.59889e-11
1.56232e-11
1.4617e-11
1.36105e-11
1.26044e-11
1.20435e-11
1.09975e-11
9.95171e-12
8.90523e-12
8.14955e-12
7.06406e-12
5.978e-12
4.89167e-12
3.80523e-12
2.71835e-12
1.6312e-12
5.43809e-13
9.15835e-12
1.48796e-11
1.73941e-11
1.83433e-11
1.92158e-11
2.00113e-11
2.07291e-11
2.13702e-11
2.19341e-11
2.12404e-11
2.16883e-11
2.2059e-11
2.12875e-11
2.15421e-11
2.07321e-11
2.08701e-11
2.00211e-11
2.00432e-11
1.91547e-11
1.90605e-11
1.81333e-11
1.79223e-11
1.69559e-11
1.59892e-11
1.56229e-11
1.4617e-11
1.36108e-11
1.30889e-11
1.20435e-11
1.09977e-11
9.95152e-12
9.23505e-12
8.14971e-12
7.06393e-12
5.978e-12
4.89177e-12
3.80516e-12
2.71835e-12
1.63123e-12
5.43802e-13
9.15835e-12
1.48796e-11
1.73941e-11
1.83433e-11
1.92158e-11
2.00113e-11
2.07291e-11
2.13702e-11
2.19341e-11
2.12404e-11
2.16883e-11
2.2059e-11
2.12875e-11
2.15421e-11
2.07321e-11
2.08701e-11
2.00211e-11
2.00432e-11
1.91547e-11
1.90605e-11
1.81333e-11
1.79223e-11
1.69559e-11
1.59892e-11
1.56229e-11
1.4617e-11
1.36108e-11
1.30889e-11
1.20435e-11
1.09977e-11
9.95152e-12
9.23505e-12
8.14971e-12
7.06393e-12
5.978e-12
4.89177e-12
3.80516e-12
2.71835e-12
1.63123e-12
5.43802e-13
9.15853e-12
1.48796e-11
1.73938e-11
1.83437e-11
1.92158e-11
2.00108e-11
2.07295e-11
2.13702e-11
2.19337e-11
2.12408e-11
2.16883e-11
2.20586e-11
2.1288e-11
2.15421e-11
2.07317e-11
2.08705e-11
2.00211e-11
2.00428e-11
1.91551e-11
1.90606e-11
1.81329e-11
1.79227e-11
1.69559e-11
1.59889e-11
1.56232e-11
1.4617e-11
1.36105e-11
1.30891e-11
1.20435e-11
1.09975e-11
9.95171e-12
9.23506e-12
8.14955e-12
7.06406e-12
5.978e-12
4.89167e-12
3.80523e-12
2.71835e-12
1.6312e-12
5.5352e-13
9.15835e-12
1.48796e-11
1.73941e-11
1.83433e-11
1.92158e-11
2.00113e-11
2.07291e-11
2.13702e-11
2.19341e-11
2.12404e-11
2.16883e-11
2.2059e-11
2.12875e-11
2.15421e-11
2.07321e-11
2.08701e-11
2.00211e-11
2.00432e-11
1.91547e-11
1.90605e-11
1.81333e-11
1.79223e-11
1.69559e-11
1.59892e-11
1.56229e-11
1.4617e-11
1.36108e-11
1.30889e-11
1.20435e-11
1.09977e-11
1.03201e-11
9.23505e-12
8.14971e-12
7.06393e-12
5.978e-12
4.89177e-12
3.80516e-12
2.81543e-12
1.68949e-12
5.63223e-13
9.15835e-12
1.48796e-11
1.73941e-11
1.83433e-11
1.92158e-11
2.00113e-11
2.07291e-11
2.13702e-11
2.19341e-11
2.12404e-11
2.16883e-11
2.2059e-11
2.12875e-11
2.15421e-11
2.07321e-11