/*--------------------------------*- C++ -*----------------------------------*\
| =========                 |                                                 |
| \\      /  F ield         | OpenFOAM: The Open Source CFD Toolbox           |
|  \\    /   O peration     | Version:  2.3.0                                 |
|   \\  /    A nd           | Web:      www.OpenFOAM.org                      |
|    \\/     M anipulation  |                                                 |
\*---------------------------------------------------------------------------*/
FoamFile
{
    version     2.0;
    format      ascii;
    class       volScalarField;
    location    "20";
    object      epsilon;
}
// * * * * * * * * * * * * * * * * * * * * * * * * * * * * * * * * * * * * * //

dimensions      [0 2 -3 0 0 0 0];

internalField   nonuniform List<scalar> 
26600
(
19.5617
125.321
328.989
563.793
779.401
942.777
1053.61
1117.71
1155
1176.98
1199.09
1221.13
1250.4
1273.71
1301.11
1330.94
1359.28
1382.78
1401.36
1412.5
1418.84
1417.13
1413.04
1403.66
1391.02
1374.82
1354.85
1333.56
1311.91
1289.84
1267.74
1245.94
1224.53
1204.03
1184.5
1166.71
1149.94
1133.9
1115.1
1181.02
0.567801
2.62671
6.9462
13.6286
22.0476
31.1711
41.8498
54.7302
71.4292
92.148
116.209
142.637
167.312
189.324
208.355
224.724
239.045
251.092
260.71
266.832
270.309
272.121
273.03
272.781
271.128
268.277
264.499
260.334
255.718
251.612
245.968
241.43
236.349
232.029
226.95
224.056
218.897
218.556
211.318
214.416
0.271897
0.657762
1.39618
2.69555
4.58578
8.13721
14.643
24.2817
36.014
48.9497
62.3648
75.6666
87.637
98.2622
107.004
114.205
120.028
124.773
128.242
130.906
132.161
132.134
131.917
131.524
128.951
127.306
125.751
123.597
121.141
119.132
117.21
114.87
112.602
110.512
107.875
106.047
104.15
103.147
103.243
97.6738
0.221578
0.475051
0.960536
1.75276
3.49465
7.43485
14.4586
24.484
35.789
47.3153
58.3729
68.2521
75.637
81.4385
85.4192
88.4951
90.6412
92.2478
93.1578
93.5652
93.4899
92.899
93.3154
93.1821
91.7849
90.3768
88.5535
87.1099
86.1717
85.9516
86.1192
86.2541
86.0201
85.5302
84.4305
84.4308
84.7263
85.1915
87.0973
84.6
0.227483
0.605317
1.1725
2.35348
5.15649
11.2385
20.4328
32.0592
43.4865
53.849
62.8192
69.1313
73.1486
75.7669
76.9271
77.8197
78.0308
77.9879
77.7544
77.1918
77.5161
77.9916
78.9656
80.8855
80.6604
80.0312
78.5416
77.967
78.2794
79.522
82.4612
86.0085
88.6335
91.2574
95.7222
100.27
108.684
115.411
129.029
105.824
0.239017
0.658803
1.41125
3.26046
7.79398
16.6322
28.0465
40.584
51.277
59.503
65.5084
68.9253
70.2929
70.5009
70.0294
69.7917
69.2412
68.2573
68.4421
68.9006
70.4427
73.4238
75.9
84.2727
86.3799
87.4774
89.2338
94.4774
101.433
112.179
125.036
142.842
156.786
175.808
209.181
236.033
285.742
332.768
409.415
250.396
0.262147
0.735364
1.8698
4.94023
12.1883
23.36
36.1863
47.8781
55.968
61.5202
64.94
65.3183
64.7858
63.9159
62.2579
61.7426
61.7727
61.7403
63.2676
66.436
73.0644
77.4178
95.2115
112.863
130.45
148.108
168.638
209.696
242.889
281.868
326.508
401.62
466.843
583.48
718.453
848.867
1018.69
1266.57
1352.7
1504.88
0.264568
0.899483
2.88598
7.96094
18.3818
30.7474
43.0748
51.2034
56.9782
59.8702
59.9209
59.0087
56.8086
55.9593
54.7789
55.5609
57.5781
60.7383
67.8378
81.7309
97.4034
127.568
164.402
231.548
312.663
414.595
559.939
735.983
855.097
991.79
1167.33
1379.29
1577.11
1791.22
1921.58
2042.46
2112.97
2190.24
2152.39
2219.48
0.287811
1.42244
5.06507
12.9676
25.2788
36.8406
46.0277
51.1186
53.9297
53.8066
52.2132
50.6058
48.3397
48.9223
50.7468
55.5281
65.3571
80.9437
115.243
155.817
235.215
340.959
538.107
768.789
1087.9
1459.97
1704.77
1832.83
1913.08
2039.56
2191.7
2284.68
2290.56
2273.72
2209.49
2121.72
1981.1
1868.11
1664.01
1742.55
0.386492
2.67345
8.70008
18.8636
30.5341
39.3393
45.5693
46.881
46.5691
45.3199
42.2377
42.0466
43.281
47.6644
58.4902
86.083
130.844
208.726
372.141
539.225
869.263
1274.57
1555.92
1832.46
2058.95
2069.83
2009.57
1895.07
1828.88
1761.07
1673.46
1565.77
1431.45
1284.14
1122.28
999.994
878.739
803.096
739.45
787.652
0.683451
4.77343
13.2458
23.328
32.3434
38.5088
40.4436
39.371
37.0548
35.2342
35.4978
38.3838
47.5587
73.4269
132.595
282.613
463.421
810.622
1171.61
1372.07
1790.89
1786.36
1671.99
1367.8
1005.9
755.319
624.513
557.039
521.126
494.985
471.833
446.347
413.883
379.062
345.738
320.135
295.414
282.871
276.637
301.371
1.23411
7.61739
16.9678
24.9469
30.6902
32.5899
31.929
29.3852
27.1421
29.2368
34.8113
52.9204
106.396
250.341
502.233
918.339
1104.73
1436.78
1392.11
1216.37
820.323
480.716
305.103
212.795
166.384
142.278
131.664
126.887
125.014
124.401
124.046
123.123
121.336
119.013
116.309
114.143
111.805
111.801
112.285
120.321
1.8862
10.6318
18.5682
23.6542
24.9832
23.5553
20.9272
21.1491
23.0424
33.3468
67.2688
158.927
386.26
779.696
1075.21
1119.66
937.834
544.892
284.973
163.469
100.926
69.5598
54.7596
49.5218
48.2941
48.692
49.7592
51.5046
53.227
54.8258
56.4355
57.8827
58.8709
59.4746
59.6424
59.6398
59.336
59.3571
59.0376
60.0811
2.73208
12.2752
17.907
18.9233
17.8163
14.9353
15.6564
19.1032
33.6735
90.3215
233.702
575.759
863.377
919.705
677.032
280.915
129.974
67.3181
42.0332
31.1746
28.353
29.1097
30.6588
33.2816
35.7493
37.7819
39.3525
40.2408
40.8133
41.3426
41.915
42.4169
42.6799
42.6784
42.4036
41.9064
41.1847
40.3841
39.2071
38.0643
3.65067
11.8099
13.5242
12.5597
11.2641
11.9388
16.6742
37.5114
103.704
340.999
560.928
778.448
599.426
234.02
95.7078
42.3329
26.3105
20.9978
21.0369
22.4499
25.8624
30.3891
34.2174
36.9496
38.609
39.3818
39.4609
39.2401
38.7162
38.1475
37.6641
37.2075
36.6464
35.9341
35.0636
34.0516
32.8739
31.5694
30.003
28.2466
3.65218
6.86537
7.15219
7.64344
9.41542
17.4048
44.7362
132.248
378.267
639.62
578.92
282.997
99.402
39.5651
22.087
16.818
16.8557
18.873
23.8887
31.0525
37.0713
41.1077
43.2821
43.932
43.6473
42.6418
41.1408
39.6316
38.165
36.7778
35.5145
34.3237
33.131
31.8899
30.5837
29.2091
27.7455
26.1973
24.4997
22.6853
1.67863
3.76855
4.90928
7.23473
18.2531
59.005
165.982
414.308
588.397
422.983
153.393
54.7699
24.2989
15.6944
13.8017
14.7873
19.2647
28.8727
38.1038
44.9926
49.0341
50.7145
50.2858
48.6754
46.3437
43.9139
41.4936
39.1748
37.0219
35.0527
33.2755
31.6343
30.062
28.5137
26.9677
25.4132
23.8302
22.2174
20.5505
18.8615
1.60041
4.12469
8.2351
20.4824
77.5241
257.833
448.809
507.035
304.05
104.178
38.9366
19.4939
13.4013
12.0047
13.5731
20.176
33.6926
45.724
53.4583
57.3938
57.8587
56.4483
53.4048
50.079
46.6826
43.3413
40.1993
37.3618
34.8291
32.5524
30.536
28.6854
26.9448
25.2814
23.666
22.0808
20.5127
18.9639
17.4264
15.9295
10.326
15.3993
30.0011
92.1835
384.342
591.682
504.427
223.718
75.9467
30.9978
16.4791
11.2951
10.8127
13.0833
21.4981
38.4528
53.1427
62.2347
65.7976
64.9881
62.0381
57.9877
53.5346
49.0262
44.7965
40.9205
37.4621
34.4312
31.7759
29.4478
27.3901
25.5115
23.7721
22.1381
20.5766
19.0708
17.6072
16.196
14.8376
13.555
66.1548
70.5665
151.458
509.961
824.457
607.92
182.728
58.5605
23.694
12.6355
8.99576
9.33647
12.4417
22.5208
42.5261
60.087
70.6432
73.8712
72.077
67.7051
62.3627
56.581
50.9767
45.8196
41.2464
37.2393
33.7788
30.8101
28.2518
26.0312
24.0729
22.3024
20.6763
19.16
17.7261
16.3625
15.0607
13.8308
12.6697
11.5947
78.8339
211.85
855.13
896.808
578.66
175.989
53.834
19.7601
9.50239
7.01636
7.66064
11.4862
22.8285
45.7088
66.5068
78.8521
81.6553
79.0439
73.4708
66.568
59.4372
52.6674
46.5868
41.2861
36.7613
32.9207
29.6744
26.9362
24.6049
22.5908
20.8213
19.2348
17.7809
16.4309
15.1686
13.9833
12.8699
11.8303
10.859
9.97019
4.03976
33.2235
64.2446
58.6095
36.4954
17.4299
8.55816
5.11302
5.15871
6.34716
11.1071
23.3635
48.0238
72.641
86.376
89.0233
85.9993
79.2271
70.7187
62.1663
54.2449
47.232
41.2224
36.1629
31.9592
28.4734
25.5739
23.1542
21.1081
19.3496
17.813
16.4379
15.1826
14.0237
12.9476
11.9452
11.012
10.1479
9.3496
8.62401
0.470097
3.14735
6.41104
6.43472
5.16287
3.4424
3.1514
3.61508
5.71862
11.8233
25.3586
50.6273
78.2429
93.027
95.6361
92.3791
84.5776
74.5963
64.7325
55.7248
47.8598
41.1687
35.6042
31.0296
27.2986
24.2542
21.7561
19.6851
17.9407
16.451
15.1488
13.9837
12.9274
11.9578
11.0609
10.2296
9.45923
8.75033
8.1007
7.51228
0.214361
0.593696
1.12857
1.53102
1.79086
2.11783
2.9884
5.82379
13.341
29.2479
55.0838
83.7553
98.7842
101.194
97.8413
89.1
77.8659
66.9082
57.0425
48.452
41.1914
35.1646
30.2414
26.2647
23.0604
20.4736
18.3723
16.6419
15.1889
13.9497
12.8651
11.8976
11.0237
10.2247
9.48836
8.80721
8.17836
7.60133
7.07451
6.59745
0.202648
0.285796
0.504615
1.14633
2.07877
3.64319
7.18612
16.0613
34.928
62.286
89.2645
103.039
105.589
102.026
92.259
80.0228
68.3836
58.0039
48.9418
41.2554
34.8693
29.6482
25.427
22.0614
19.3775
17.2269
15.4875
14.06
12.8676
11.8491
10.9579
10.1648
9.44907
8.7959
8.19536
7.64133
7.13065
6.66207
6.2346
5.84653
0.195686
0.307082
0.73781
2.68653
6.56864
11.8199
22.4459
44.708
72.2974
93.8201
105.123
108.042
103.95
93.1674
80.4024
68.5997
58.1687
49.0807
41.2614
34.6821
29.2415
24.8288
21.2976
18.5003
16.2843
14.5174
13.0926
11.9254
10.9529
10.1217
9.3947
8.74837
8.16494
7.63275
7.1439
6.6932
6.27769
5.89606
5.54752
5.23028
0.214154
0.691535
3.27434
13.3424
24.7187
37.1259
60.5565
83.0261
97.6066
105.407
107.319
102.401
90.8454
78.2596
67.0158
57.2207
48.6143
41.0549
34.5175
29.0037
24.4568
20.7877
17.8693
15.565
13.747
12.3028
11.1424
10.1935
9.40072
8.72236
8.12979
7.60276
7.127
6.69272
6.29334
5.9249
5.58499
5.27223
4.98581
4.72433
0.820138
5.20515
24.7123
50.1129
63.4172
76.8313
89.2828
98.0251
103.382
102.142
95.7346
84.1054
72.8925
63.1751
54.797
47.2994
40.4629
34.2937
28.8824
24.2992
20.527
17.4908
15.0843
13.1916
11.7031
10.5232
9.57662
8.80262
8.15468
7.59963
7.11459
6.68282
6.29257
5.9356
5.60678
5.30305
5.02247
4.76381
4.52621
4.30857
3.85362
33.5971
74.6722
83.5928
86.162
89.8351
93.111
92.8977
89.7025
81.4963
72.1094
63.7131
56.713
50.6155
44.8928
39.3022
33.8816
28.8258
24.3322
20.5124
17.3714
14.8499
12.8599
11.2997
10.0754
9.10717
8.33011
7.6938
7.16054
6.70325
6.30305
5.94613
5.62271
5.32626
5.05276
4.79964
4.56532
4.34887
4.14955
3.96645
2.07625
27.3311
56.1263
65.5584
67.2449
67.6106
66.7509
64.6204
59.6023
54.4848
50.6928
47.5746
44.5813
41.2597
37.4134
33.1529
28.7483
24.5273
20.7418
17.5179
14.8745
12.7626
11.1021
9.80441
8.78883
7.98668
7.34221
6.81354
6.36988
5.98899
5.65493
5.35621
5.08483
4.83562
4.60524
4.39159
4.19338
4.00984
3.84046
3.68456
0.501448
8.40813
21.8465
26.5573
29.3915
32.278
33.2053
33.2514
33.7896
35.1057
36.443
36.9254
36.3962
34.7252
31.9897
28.5548
24.8314
21.2063
17.9452
15.1767
12.9192
11.1256
9.72176
8.62908
7.77624
7.10244
6.5606
6.11559
5.7416
5.41996
5.13716
4.88358
4.65269
4.44021
4.24336
4.06044
3.89039
3.7326
3.58666
3.45214
0.242803
1.55784
4.45269
6.17028
8.83605
11.3987
13.7427
16.8328
20.8458
25.0096
28.4732
30.5877
31.1628
30.2984
28.1422
25.1727
21.8797
18.6643
15.7856
13.36
11.3971
9.84802
8.6424
7.70847
6.98068
6.40549
5.94282
5.56251
5.24242
4.96657
4.72342
4.50483
4.30536
4.1214
3.95063
3.79164
3.64357
3.50594
3.37843
3.26075
0.190993
0.408005
0.88464
1.53841
2.72557
4.29234
6.76045
10.5291
15.3252
20.2301
24.3191
26.9738
27.9491
27.3594
25.445
22.7083
19.6716
16.7317
14.1282
11.9575
10.2172
8.85462
7.80132
6.98891
6.35653
5.85703
5.45522
5.12473
4.8462
4.60564
4.3931
4.2016
4.0265
3.86468
3.71419
3.57384
3.44293
3.32109
3.20806
3.10364
0.196623
0.244752
0.403399
0.760258
1.37217
2.51979
4.7186
8.32999
13.0876
18.057
22.2391
24.9846
26.0132
25.4439
23.5708
20.9231
18.0295
15.2707
12.8627
10.88
9.30664
8.08569
7.14862
6.42825
5.86844
5.42683
5.07164
4.77936
4.53272
4.31931
4.13034
3.95977
3.8035
3.65883
3.52407
3.39821
3.28068
3.17117
3.06949
2.97549
0.203525
0.21893
0.32345
0.588326
1.06257
2.08076
4.13516
7.58198
12.2142
17.1202
21.2583
23.9366
24.8769
24.214
22.2809
19.6397
16.8164
14.1739
11.9035
10.058
8.6091
7.49501
6.64546
5.99433
5.48946
5.09179
4.7721
4.50893
4.28662
4.09395
3.92305
3.76853
3.62673
3.49526
3.37263
3.25798
3.1508
3.05085
2.95801
2.87214
0.206673
0.215092
0.305684
0.536093
0.984974
1.97945
3.9906
7.35609
11.9103
16.7642
20.8455
23.4281
24.2367
23.4403
21.405
18.7277
15.9308
13.3607
11.1857
9.43915
8.08191
7.04744
6.26268
5.66303
5.19928
4.83457
4.54156
4.3003
4.09632
3.91932
3.76209
3.61972
3.4889
3.36746
3.25407
3.14795
3.04868
2.95606
2.86999
2.79038
0.208113
0.214534
0.299811
0.516807
0.966225
1.97243
3.98247
7.31973
11.8411
16.6725
20.7162
23.2162
23.8984
22.9686
20.8235
18.0935
15.2987
12.7719
10.6613
8.98472
7.69356
6.71669
5.97885
5.41669
4.98295
4.64237
4.36894
4.14378
3.95329
3.78782
3.64068
3.50729
3.38458
3.27057
3.16403
3.06426
2.97087
2.8837
2.80269
2.72776
0.208872
0.214325
0.296357
0.508314
0.96278
1.99015
4.0166
7.34898
11.8592
16.6858
20.7107
23.1543
23.7366
22.6935
20.4521
17.67
14.8668
12.3645
10.2961
8.66684
7.42122
6.48412
5.77877
5.24263
4.82978
4.50604
4.2463
4.03242
3.85138
3.69402
3.55396
3.42688
3.30989
3.2011
3.09939
3.00408
2.91485
2.83153
2.7541
2.6825
0.209544
0.214376
0.293594
0.503165
0.965067
2.01584
4.06406
7.40435
11.9182
16.7515
20.7695
23.1731
23.6846
22.5583
20.2423
17.4166
14.6016
12.1112
10.0675
8.46714
7.24978
6.33741
5.65232
5.13245
4.73268
4.41954
4.16842
3.96165
3.78656
3.6343
3.49872
3.37562
3.26223
3.15675
3.05808
2.96559
2.87897
2.79808
2.72292
2.65342
0.210192
0.215426
0.296111
0.512608
0.991803
2.07455
4.15546
7.52647
12.0691
16.9236
20.9397
23.3093
23.762
22.5697
20.1961
17.3329
14.5006
12.008
9.97104
8.3812
7.17509
6.27298
5.5965
5.08364
4.68962
4.38117
4.13389
3.9303
3.7579
3.60793
3.47436
3.35305
3.24126
3.13725
3.03993
2.94869
2.86322
2.7834
2.70923
2.64065
95.1814
34.4962
22.4728
18.1521
16.0851
14.9379
14.2464
13.8089
13.5239
13.3349
13.2079
13.1217
13.0621
13.0197
12.9882
12.9629
12.941
12.9203
12.8994
12.8777
12.8546
12.83
12.804
12.7766
12.7483
12.7194
12.6902
12.6612
12.6327
12.6053
12.5792
12.5548
12.5325
12.5126
12.4954
12.4812
12.4703
12.463
12.4599
12.4619
95.2417
34.8852
22.7764
18.3858
16.277
15.1041
14.3957
13.9462
13.6521
13.4559
13.3231
13.2318
13.1678
13.1215
13.0863
13.0577
13.0325
13.0088
12.9851
12.9606
12.9349
12.9078
12.8794
12.8499
12.8195
12.7886
12.7576
12.7269
12.6968
12.6679
12.6405
12.615
12.5916
12.5708
12.5528
12.538
12.5266
12.519
12.5156
12.5175
95.4805
35.0629
22.9438
18.5558
16.4444
15.2669
14.5537
14.0998
13.8018
13.602
13.4658
13.3712
13.304
13.2546
13.2162
13.1845
13.1562
13.1294
13.1026
13.0751
13.0465
13.0165
12.9853
12.953
12.92
12.8866
12.8533
12.8204
12.7883
12.7575
12.7283
12.7012
12.6765
12.6545
12.6355
12.6198
12.6077
12.5995
12.5958
12.5975
95.6898
35.3107
23.1526
18.7395
16.6154
15.4312
14.7139
14.257
13.9567
13.7547
13.6164
13.5197
13.4503
13.3985
13.3576
13.3233
13.2923
13.2627
13.2331
13.2027
13.1712
13.1383
13.1043
13.0693
13.0336
12.9977
12.9619
12.9266
12.8924
12.8596
12.8286
12.7998
12.7736
12.7503
12.7301
12.7135
12.7006
12.6919
12.6878
12.6894
95.9916
35.5094
23.3366
18.9147
16.784
15.5953
14.8749
14.4159
14.1138
13.9103
13.7704
13.6721
13.6009
13.5471
13.5041
13.4674
13.4339
13.4017
13.3694
13.3363
13.3019
13.2663
13.2294
13.1917
13.1533
13.1148
13.0765
13.039
13.0025
12.9677
12.9348
12.9043
12.8766
12.8519
12.8306
12.813
12.7994
12.7901
12.7856
12.787
96.2762
35.7327
23.5291
19.0919
16.9532
15.7601
15.037
14.5763
14.2728
14.068
13.9268
13.827
13.7542
13.6985
13.6535
13.6146
13.5787
13.544
13.509
13.4731
13.436
13.3975
13.3579
13.3173
13.2763
13.2352
13.1944
13.1545
13.1158
13.0789
13.0441
13.0119
12.9826
12.9565
12.934
12.9154
12.901
12.8911
12.8863
12.8876
96.6254
35.9408
23.7155
19.2677
17.1228
15.9259
15.2005
14.7382
14.4335
14.2276
14.0852
13.9841
13.9097
13.8523
13.8053
13.7641
13.7259
13.6886
13.6509
13.6122
13.5722
13.5309
13.4884
13.4451
13.4013
13.3576
13.3142
13.2719
13.2309
13.1919
13.1552
13.1212
13.0903
13.0628
13.0391
13.0195
13.0043
12.9938
12.9886
12.9897
96.9608
36.1609
23.9057
19.4451
17.2936
16.093
15.3656
14.9019
14.5962
14.3893
14.2458
14.1434
14.0675
14.0083
13.9592
13.9158
13.8751
13.8352
13.7948
13.7532
13.7104
13.6661
13.6207
13.5745
13.5279
13.4814
13.4355
13.3906
13.3474
13.3062
13.2674
13.2316
13.1991
13.1702
13.1453
13.1247
13.1087
13.0976
13.092
13.0929
97.3448
36.3762
24.0954
19.6233
17.4657
16.2619
15.5325
15.0676
14.7609
14.5531
14.4085
14.3048
14.2274
14.1664
14.1152
14.0695
14.0263
13.9837
13.9404
13.896
13.8501
13.8029
13.7545
13.7053
13.6558
13.6065
13.5579
13.5106
13.4649
13.4215
13.3807
13.343
13.3089
13.2785
13.2524
13.2307
13.2138
13.2021
13.1961
13.1969
97.7206
36.5997
24.2881
19.8036
17.6398
16.4327
15.7016
15.2355
14.9279
14.7192
14.5735
14.4685
14.3895
14.3266
14.2734
14.2253
14.1795
14.1341
14.0879
14.0404
13.9915
13.9411
13.8896
13.8374
13.785
13.7328
13.6815
13.6315
13.5834
13.5377
13.4948
13.4552
13.4194
13.3875
13.3601
13.3373
13.3196
13.3073
13.3009
13.3016
98.1305
36.8231
24.4821
19.9858
17.816
16.6058
15.8728
15.4057
15.0972
14.8876
14.7409
14.6346
14.5539
14.4891
14.4337
14.3832
14.3346
14.2863
14.2372
14.1866
14.1344
14.0808
14.0262
13.9708
13.9153
13.8602
13.806
13.7533
13.7027
13.6547
13.6097
13.5682
13.5306
13.4972
13.4684
13.4446
13.426
13.4131
13.4062
13.4067
98.5397
37.0521
24.6793
20.1704
17.9946
16.7812
16.0466
15.5783
15.269
15.0585
14.9107
14.803
14.7207
14.6539
14.5962
14.5431
14.4918
14.4405
14.3882
14.3344
14.2789
14.222
14.164
14.1054
14.0468
13.9886
13.9315
13.8761
13.8229
13.7725
13.7253
13.6818
13.6424
13.6075
13.5774
13.5524
13.533
13.5193
13.5121
13.5124
98.9737
37.2836
24.8788
20.3576
18.1757
16.9593
16.2229
15.7536
15.4435
15.232
15.0831
14.974
14.8899
14.8211
14.7609
14.7052
14.651
14.5966
14.541
14.4838
14.4249
14.3646
14.3032
14.2413
14.1794
14.1181
14.058
13.9998
13.9439
13.891
13.8416
13.796
13.7548
13.7183
13.6868
13.6608
13.6404
13.6261
13.6184
13.6186
99.4092
37.5201
25.0816
20.5476
18.3597
17.1401
16.4021
15.9317
15.6207
15.4082
15.2581
15.1475
15.0616
14.9906
14.928
14.8694
14.8122
14.7545
14.6956
14.6349
14.5725
14.5086
14.4437
14.3783
14.3131
14.2485
14.1854
14.1242
14.0657
14.0103
13.9585
13.9109
13.8678
13.8297
13.7968
13.7695
13.7483
13.7333
13.7251
13.7252
99.8654
37.7595
25.2874
20.7406
18.5465
17.3238
16.5841
16.1127
15.8007
15.5873
15.4359
15.3237
15.2359
15.1626
15.0973
15.0359
14.9755
14.9144
14.852
14.7877
14.7216
14.654
14.5855
14.5165
14.4478
14.38
14.3137
14.2495
14.1882
14.1302
14.0761
14.0263
13.9813
13.9415
13.9072
13.8788
13.8565
13.8409
13.8323
13.8321
100.326
38.0041
25.4966
20.9367
18.7365
17.5106
16.7692
16.2967
15.9838
15.7692
15.6165
15.5027
15.4128
15.3371
15.2691
15.2045
15.1408
15.0763
15.0102
14.9421
14.8722
14.8009
14.7285
14.6559
14.5836
14.5123
14.4428
14.3756
14.3114
14.2507
14.1942
14.1422
14.0953
14.0538
14.018
13.9884
13.9652
13.9488
13.9398
13.9394
100.801
38.2525
25.7091
21.136
18.9296
17.7006
16.9575
16.4839
16.1699
15.9542
15.8001
15.6844
15.5924
15.5141
15.4432
15.3755
15.3083
15.2401
15.1701
15.0982
15.0243
14.949
14.8728
14.7964
14.7204
14.6456
14.5727
14.5024
14.4352
14.3719
14.3129
14.2587
14.2097
14.1665
14.1292
14.0983
14.0742
14.0571
14.0476
14.047
101.284
38.5052
25.9254
21.3388
19.1261
17.894
17.1491
16.6742
16.3592
16.1423
15.9867
15.8691
15.7748
15.6938
15.6198
15.5487
15.4779
15.4059
15.3319
15.2559
15.1779
15.0985
15.0183
14.9379
14.8582
14.7798
14.7034
14.6298
14.5597
14.4936
14.432
14.3755
14.3246
14.2795
14.2408
14.2086
14.1834
14.1656
14.1556
14.1549
101.779
38.7625
26.1453
21.5451
19.326
18.0907
17.344
16.868
16.5518
16.3336
16.1763
16.0567
15.9599
15.8761
15.7989
15.7243
15.6496
15.5736
15.4955
15.4152
15.333
15.2494
15.165
15.0805
14.9969
14.9147
14.8348
14.758
14.6847
14.6157
14.5516
14.4928
14.4398
14.3929
14.3526
14.3192
14.293
14.2744
14.2639
14.263
102.282
39.0245
26.369
21.7549
19.5296
18.291
17.5425
17.0652
16.7478
16.5282
16.3692
16.2474
16.148
16.0611
15.9805
15.9021
15.8235
15.7433
15.6608
15.5762
15.4895
15.4015
15.3128
15.2242
15.1365
15.0505
14.967
14.8867
14.8103
14.7384
14.6716
14.6104
14.5553
14.5065
14.4647
14.4299
14.4027
14.3833
14.3724
14.3713
102.796
39.2905
26.5967
21.9686
19.7367
18.495
17.7446
17.266
16.9473
16.7262
16.5652
16.4411
16.3389
16.2488
16.1647
16.0824
15.9996
15.9149
15.828
15.7387
15.6475
15.5549
15.4617
15.3688
15.277
15.187
15.0998
15.016
14.9363
14.8615
14.792
14.7283
14.671
14.6204
14.5769
14.5409
14.5126
14.4924
14.481
14.4797
103.319
39.5618
26.8284
22.1861
19.9477
18.7027
17.9504
17.4704
17.1503
16.9275
16.7645
16.638
16.5328
16.4394
16.3514
16.265
16.1778
16.0885
15.9969
15.9028
15.8068
15.7096
15.6118
15.5144
15.4183
15.3243
15.2332
15.1458
15.0628
14.9849
14.9126
14.8465
14.787
14.7345
14.6894
14.652
14.6226
14.6017
14.5897
14.5882
103.85
39.8377
27.0642
22.4075
20.1626
18.9142
18.16
17.6785
17.357
17.1324
16.9672
16.838
16.7297
16.6327
16.5407
16.4499
16.3581
16.2641
16.1675
16.0685
15.9676
15.8654
15.7629
15.6609
15.5603
15.4622
15.3671
15.2761
15.1897
15.1087
15.0336
14.9649
14.9032
14.8487
14.8019
14.7631
14.7327
14.711
14.6985
14.6968
104.392
40.1181
27.3043
22.633
20.3815
19.1297
18.3736
17.8905
17.5673
17.3409
17.1734
17.0413
16.9296
16.8288
16.7326
16.6373
16.5406
16.4416
16.3399
16.2357
16.1297
16.0224
15.915
15.8082
15.7032
15.6007
15.5016
15.4068
15.317
15.2328
15.1548
15.0835
15.0195
14.963
14.9146
14.8744
14.8428
14.8203
14.8073
14.8054
104.942
40.4038
27.5486
22.8627
20.6045
19.3493
18.5911
18.1064
17.7815
17.553
17.383
17.2479
17.1327
17.0278
16.9272
16.827
16.7253
16.6211
16.514
16.4045
16.2931
16.1806
16.0681
15.9564
15.8467
15.7398
15.6366
15.5379
15.4445
15.3571
15.2761
15.2023
15.1359
15.0774
15.0272
14.9856
14.9529
14.9296
14.9161
14.914
105.501
40.6944
27.7972
23.0965
20.8316
19.573
18.8126
18.3262
17.9996
17.7689
17.5962
17.4578
17.3388
17.2297
17.1243
17.0192
16.9122
16.8024
16.6898
16.5747
16.4577
16.3399
16.2221
16.1054
15.9908
15.8794
15.772
15.6693
15.5723
15.4816
15.3976
15.3211
15.2523
15.1918
15.1399
15.0968
15.063
15.0388
15.0248
15.0225
106.07
40.9896
28.0505
23.3348
21.063
19.8009
19.0384
18.5502
18.2216
17.9885
17.8129
17.6711
17.5481
17.4345
17.3242
17.2137
17.1011
16.9857
16.8673
16.7463
16.6237
16.5002
16.377
16.2551
16.1356
16.0195
15.9077
15.8011
15.7003
15.6062
15.5192
15.4399
15.3688
15.3062
15.2525
15.208
15.173
15.148
15.1334
15.1309
106.646
41.2904
28.3083
23.5774
21.2989
20.0332
19.2685
18.7783
18.4476
18.2121
18.0334
17.8879
17.7606
17.6422
17.5267
17.4106
17.2923
17.1708
17.0464
16.9194
16.7908
16.6615
16.5327
16.4055
16.2809
16.1601
16.0438
15.933
15.8285
15.7309
15.6408
15.5588
15.4852
15.4205
15.365
15.319
15.2829
15.257
15.2419
15.2392
107.232
41.5964
28.5707
23.8246
21.5392
20.2699
19.5029
19.0107
18.6778
18.4395
18.2575
18.1081
17.9763
17.8528
17.7318
17.6099
17.4855
17.3578
17.2271
17.0939
16.9591
16.8238
16.6893
16.5565
16.4268
16.301
16.1802
16.0652
15.9568
15.8557
15.7625
15.6776
15.6016
15.5347
15.4774
15.4299
15.3926
15.3659
15.3502
15.3473
107.827
41.9072
28.838
24.0765
21.7841
20.5112
19.7418
19.2475
18.9122
18.671
18.4855
18.3319
18.1953
18.0664
17.9397
17.8117
17.6808
17.5467
17.4094
17.2697
17.1285
16.9871
16.8466
16.7082
16.5731
16.4423
16.3168
16.1975
16.0852
15.9805
15.8841
15.7964
15.7178
15.6488
15.5896
15.5406
15.5021
15.4745
15.4583
15.4551
108.43
42.2239
29.1102
24.333
22.0336
20.7571
19.9852
19.4887
19.1508
18.9065
18.7172
18.5592
18.4175
18.283
18.1502
18.0157
17.8783
17.7373
17.5932
17.4468
17.2991
17.1512
17.0046
16.8604
16.7198
16.5839
16.4536
16.33
16.2136
16.1053
16.0056
15.915
15.8339
15.7627
15.7016
15.6511
15.6114
15.5829
15.5662
15.5628
109.042
42.5459
29.3872
24.5944
22.288
21.0077
20.2333
19.7344
19.3938
19.1462
18.9529
18.7901
18.643
18.5026
18.3634
18.2222
18.0778
17.9298
17.7786
17.6252
17.4706
17.3162
17.1633
17.0131
16.8669
16.7257
16.5906
16.4624
16.342
16.23
16.127
16.0334
15.9498
15.8763
15.8134
15.7614
15.7205
15.6911
15.6737
15.6701
109.663
42.873
29.6694
24.8608
22.5473
21.2632
20.4861
19.9847
19.6412
19.39
19.1924
19.0246
18.8719
18.7253
18.5793
18.4311
18.2794
18.124
17.9655
17.8048
17.6432
17.482
17.3226
17.1663
17.0143
16.8677
16.7277
16.595
16.4704
16.3546
16.2482
16.1517
16.0654
15.9898
15.925
15.8714
15.8292
15.7989
15.781
15.7772
110.293
43.2062
29.9567
25.1322
22.8116
21.5237
20.7439
20.2397
19.8931
19.6382
19.436
19.2629
19.1042
18.9509
18.7979
18.6423
18.483
18.32
18.1538
17.9857
17.8168
17.6486
17.4825
17.3199
17.162
17.0099
16.8648
16.7274
16.5987
16.4791
16.3693
16.2698
16.1808
16.1029
16.0362
15.981
15.9377
15.9065
15.888
15.884
110.93
43.5451
30.2493
25.4088
23.0811
21.7892
21.0066
20.4996
20.1497
19.8907
19.6837
19.5049
19.3399
19.1796
19.0192
18.8558
18.6886
18.5176
18.3436
18.1677
17.9913
17.8159
17.6429
17.4738
17.3099
17.1522
17.0019
16.8599
16.7268
16.6034
16.4901
16.3876
16.296
16.2157
16.1471
16.0904
16.0458
16.0137
15.9946
15.9904
111.578
43.8893
30.5474
25.6908
23.3558
22.06
21.2744
20.7644
20.411
20.1477
19.9355
19.7508
19.579
19.4114
19.2432
19.0718
18.8963
18.717
18.5348
18.3508
18.1667
17.9838
17.8038
17.6281
17.458
17.2946
17.1391
16.9922
16.8548
16.7274
16.6107
16.5051
16.4108
16.3283
16.2577
16.1994
16.1535
16.1205
16.1009
16.0964
112.233
44.24
30.851
25.9782
23.636
22.3361
21.5474
21.0343
20.6771
20.4092
20.1915
20.0004
19.8216
19.6463
19.4699
19.2901
19.106
18.9181
18.7273
18.5351
18.3429
18.1525
17.9652
17.7827
17.6063
17.4371
17.2762
17.1244
16.9826
16.8513
16.731
16.6222
16.5253
16.4404
16.3679
16.308
16.2609
16.2269
16.2068
16.202
112.898
44.5967
31.1603
26.2712
23.9217
22.6177
21.8258
21.3094
20.9481
20.6753
20.4518
20.2541
20.0677
19.8844
19.6994
19.5107
19.3177
19.1208
18.9212
18.7204
18.52
18.3217
18.127
17.9376
17.7547
17.5795
17.4132
17.2564
17.1101
16.9748
16.851
16.7391
16.6394
16.5522
16.4777
16.4162
16.3678
16.333
16.3122
16.3073
113.572
44.9592
31.4755
26.57
24.2131
22.905
22.1097
21.5897
21.2242
20.9462
20.7165
20.5116
20.3174
20.1256
19.9317
19.7337
19.5313
19.3252
19.1165
18.9068
18.6979
18.4914
18.2892
18.0926
17.9031
17.7219
17.55
17.3883
17.2374
17.0981
16.9707
16.8556
16.7531
16.6636
16.5871
16.524
16.4744
16.4386
16.4173
16.4121
114.255
45.3287
31.7967
26.8747
24.5104
23.198
22.3993
21.8755
21.5055
21.2219
20.9857
20.7733
20.5707
20.3699
20.1667
19.9591
19.747
19.5311
19.313
19.0941
18.8765
18.6617
18.4517
18.2479
18.0517
17.8643
17.6867
17.5199
17.3645
17.221
17.09
16.9717
16.8665
16.7746
16.6961
16.6314
16.5805
16.5438
16.5219
16.5165
114.946
45.7047
32.1241
27.1855
24.8138
23.497
22.6947
22.1669
21.792
21.5026
21.2593
21.039
20.8277
20.6175
20.4044
20.1868
19.9646
19.7387
19.5107
19.2825
19.0558
18.8325
18.6145
18.4032
18.2002
18.0065
17.8233
17.6513
17.4912
17.3436
17.2089
17.0874
16.9794
16.8851
16.8047
16.7383
16.6862
16.6486
16.6261
16.6205
115.647
46.0871
32.458
27.5026
25.1233
23.8022
22.996
22.4641
22.084
21.7883
21.5377
21.3089
21.0884
20.8684
20.645
20.4169
20.1841
19.9479
19.7098
19.4717
19.2358
19.0038
18.7775
18.5587
18.3487
18.1486
17.9596
17.7823
17.6175
17.4658
17.3274
17.2027
17.0919
16.9952
16.9128
16.8448
16.7914
16.7529
16.7298
16.724
116.358
46.4771
32.7983
27.8262
25.4394
24.1137
23.3036
22.7672
22.3816
22.0792
21.8208
21.5832
21.3529
21.1225
20.8884
20.6493
20.4056
20.1586
19.91
19.6619
19.4164
19.1754
18.9408
18.7143
18.4971
18.2906
18.0956
17.9131
17.7436
17.5876
17.4455
17.3175
17.2039
17.1049
17.0205
16.9509
16.8962
16.8567
16.8331
16.8271
117.081
46.8743
33.1454
28.1565
25.7621
24.4318
23.6176
23.0764
22.685
22.3755
22.1088
21.8618
21.6213
21.3801
21.1347
20.8841
20.6291
20.3708
20.1114
19.853
19.5976
19.3475
19.1043
18.8698
18.6454
18.4323
18.2314
18.0435
17.8692
17.709
17.5631
17.4319
17.3155
17.2141
17.1277
17.0564
17.0005
16.9601
16.9359
16.9296
117.822
47.278
33.4995
28.4938
26.0917
24.7567
23.9381
23.3919
22.9943
22.6773
22.4017
22.1449
21.8936
21.641
21.3838
21.1214
20.8544
20.5846
20.314
20.0449
19.7795
19.5198
19.2679
19.0254
18.7936
18.5738
18.3669
18.1735
17.9944
17.8299
17.6803
17.5458
17.4266
17.3228
17.2344
17.1615
17.1043
17.063
17.0382
17.0318
118.564
47.6893
33.861
28.8382
26.4285
25.0886
24.2656
23.714
23.3097
22.9847
22.6998
22.4325
22.1699
21.9053
21.6358
21.361
21.0817
20.7999
20.5177
20.2376
19.9618
19.6925
19.4317
19.1809
18.9417
18.7151
18.502
18.3032
18.1192
17.9504
17.797
17.6593
17.5372
17.431
17.3406
17.2661
17.2077
17.1655
17.1401
17.1334
119.313
48.1097
34.2301
29.1902
26.7728
25.4279
24.6001
24.0428
23.6315
23.298
23.0032
22.7248
22.4503
22.1732
21.8908
21.603
21.3109
21.0167
20.7225
20.4311
20.1446
19.8655
19.5955
19.3364
19.0895
18.856
18.6368
18.4325
18.2436
18.0704
17.9133
17.7722
17.6474
17.5387
17.4464
17.3703
17.3105
17.2675
17.2415
17.2346
120.083
48.5374
34.6069
29.5501
27.1249
25.7749
24.942
24.3787
23.9599
23.6173
23.312
23.022
22.7349
22.4445
22.1487
21.8474
21.5421
21.2349
20.9284
20.6253
20.328
20.0386
19.7593
19.4917
19.2371
18.9966
18.7712
18.5613
18.3674
18.19
18.029
17.8847
17.757
17.646
17.5516
17.4739
17.4129
17.3689
17.3424
17.3353
120.856
48.9737
34.9922
29.9182
27.4851
26.1298
25.2915
24.7218
24.295
23.9427
23.6264
23.324
23.0237
22.7195
22.4096
22.0942
21.7751
21.4546
21.1354
20.8202
20.5117
20.212
19.9232
19.6469
19.3844
19.1369
18.9051
18.6896
18.4908
18.309
18.1442
17.9966
17.8661
17.7527
17.6563
17.577
17.5148
17.4699
17.4428
17.4356
121.649
49.42
35.3861
30.2947
27.8537
26.4929
25.6491
25.0724
24.6371
24.2746
23.9465
23.6311
23.3168
22.9981
22.6735
22.3434
22.01
21.6756
21.3433
21.0158
20.6958
20.3855
20.087
19.8018
19.5315
19.2768
19.0386
18.8175
18.6137
18.4275
18.2589
18.108
17.9747
17.8589
17.7606
17.6797
17.6162
17.5704
17.5428
17.5353
122.45
49.8745
35.789
30.6802
28.2311
26.8647
26.0149
25.4309
24.9865
24.6131
24.2725
23.9433
23.6143
23.2805
22.9404
22.5951
22.2467
21.8981
21.5522
21.212
20.8802
20.5591
20.2507
19.9566
19.6781
19.4163
19.1717
18.9449
18.7361
18.5455
18.3731
18.2189
18.0827
17.9646
17.8643
17.7818
17.7171
17.6705
17.6423
17.6346
123.268
50.3398
36.2012
31.075
28.6178
27.2455
26.3894
25.7976
25.3434
24.9584
24.6045
24.2608
23.9163
23.5665
23.2104
22.8491
22.4853
22.1219
21.762
21.4088
21.0649
20.7327
20.4142
20.111
19.8244
19.5553
19.3042
19.0717
18.8579
18.6629
18.4867
18.3292
18.1902
18.0697
17.9675
17.8834
17.8175
17.77
17.7412
17.7334
124.097
50.8151
36.6234
31.4796
29.0142
27.6357
26.773