/*--------------------------------*- C++ -*----------------------------------*\
| =========                 |                                                 |
| \\      /  F ield         | OpenFOAM: The Open Source CFD Toolbox           |
|  \\    /   O peration     | Version:  2.3.0                                 |
|   \\  /    A nd           | Web:      www.OpenFOAM.org                      |
|    \\/     M anipulation  |                                                 |
\*---------------------------------------------------------------------------*/
FoamFile
{
    version     2.0;
    format      ascii;
    class       volScalarField;
    location    "20";
    object      G;
}
// * * * * * * * * * * * * * * * * * * * * * * * * * * * * * * * * * * * * * //

dimensions      [1 0 -3 0 0 0 0];

internalField   nonuniform List<scalar> 
26600
(
101563
101757
101947
102134
102319
102501
102683
102863
103041
103219
103396
103572
103748
103923
104097
104271
104444
104617
104790
104963
105136
105309
105483
105656
105831
106006
106181
106358
106537
106716
106898
107083
107270
107461
107658
107860
108071
108293
108532
108799
101596
101791
101982
102169
102355
102538
102720
102901
103081
103260
103438
103615
103791
103967
104142
104317
104491
104665
104839
105013
105187
105361
105535
105709
105885
106060
106237
106415
106594
106774
106957
107142
107330
107521
107717
107919
108128
108346
108577
108824
101630
101825
102016
102204
102391
102575
102758
102940
103120
103300
103478
103656
103834
104010
104186
104362
104537
104712
104887
105062
105236
105411
105586
105761
105937
106114
106291
106469
106649
106830
107013
107198
107385
107576
107771
107970
108176
108388
108607
108834
101664
101859
102050
102239
102426
102611
102795
102977
103159
103339
103519
103697
103876
104053
104230
104407
104583
104758
104934
105109
105285
105460
105636
105812
105989
106166
106343
106522
106702
106883
107066
107250
107437
107627
107819
108016
108216
108421
108629
108839
101698
101892
102084
102273
102461
102647
102831
103014
103197
103378
103558
103738
103917
104095
104273
104450
104627
104804
104980
105156
105333
105509
105685
105862
106038
106216
106394
106573
106753
106934
107116
107300
107486
107673
107863
108056
108251
108447
108645
108841
101731
101926
102118
102307
102495
102682
102867
103051
103234
103416
103597
103778
103958
104137
104315
104494
104671
104849
105026
105202
105379
105556
105733
105910
106087
106265
106443
106622
106802
106982
107164
107346
107529
107714
107901
108089
108278
108466
108654
108838
101765
101959
102151
102341
102529
102717
102902
103087
103271
103454
103636
103817
103998
104178
104357
104536
104714
104892
105070
105247
105425
105602
105779
105956
106133
106310
106488
106667
106846
107025
107205
107385
107566
107747
107929
108112
108294
108475
108653
108828
101798
101992
102184
102374
102563
102751
102937
103123
103307
103491
103674
103856
104037
104218
104398
104577
104756
104935
105113
105291
105468
105645
105822
105999
106175
106352
106528
106705
106883
107060
107237
107415
107593
107770
107948
108125
108301
108476
108647
108814
101831
102024
102216
102407
102596
102784
102971
103158
103343
103527
103711
103894
104076
104257
104438
104618
104797
104976
105154
105332
105509
105685
105861
106036
106211
106386
106561
106737
106912
107088
107263
107438
107613
107787
107961
108134
108305
108474
108639
108800
101863
102056
102248
102439
102628
102817
103005
103192
103378
103563
103747
103931
104114
104295
104476
104657
104836
105014
105192
105369
105544
105719
105894
106068
106242
106416
106590
106764
106938
107112
107285
107458
107630
107801
107971
108140
108307
108470
108631
108787
101894
102087
102279
102470
102660
102849
103038
103225
103412
103598
103783
103967
104150
104332
104513
104692
104871
105048
105225
105401
105575
105750
105924
106097
106271
106444
106617
106789
106962
107134
107305
107475
107645
107813
107980
108145
108307
108467
108623
108775
101925
102117
102309
102501
102691
102881
103070
103258
103445
103632
103817
104002
104184
104366
104546
104724
104902
105079
105254
105430
105604
105778
105952
106125
106297
106470
106641
106813
106984
107154
107323
107491
107658
107823
107987
108149
108307
108463
108615
108763
101955
102147
102339
102530
102721
102912
103101
103290
103478
103664
103850
104034
104216
104396
104575
104753
104930
105107
105282
105457
105632
105805
105978
106151
106323
106494
106665
106835
107004
107172
107339
107505
107670
107833
107993
108152
108307
108460
108608
108753
101984
102176
102368
102560
102751
102941
103131
103321
103509
103695
103880
104063
104244
104424
104602
104780
104957
105134
105309
105484
105658
105831
106003
106175
106346
106517
106686
106855
107023
107189
107355
107518
107681
107841
107999
108154
108307
108456
108601
108743
102012
102204
102396
102588
102779
102971
103161
103350
103537
103723
103907
104089
104270
104450
104628
104806
104983
105159
105335
105509
105683
105855
106027
106199
106369
106538
106707
106874
107040
107205
107369
107530
107690
107848
108003
108156
108306
108452
108595
108734
102040
102231
102423
102615
102807
102999
103189
103377
103564
103749
103932
104114
104295
104475
104653
104831
105008
105184
105359
105533
105706
105879
106050
106221
106390
106558
106726
106892
107057
107220
107382
107541
107699
107855
108008
108158
108305
108449
108589
108726
102065
102257
102449
102641
102834
103025
103215
103402
103588
103773
103956
104138
104319
104499
104677
104855
105032
105207
105382
105556
105729
105901
106072
106241
106410
106577
106744
106908
107072
107234
107393
107551
107707
107861
108011
108159
108304
108446
108584
108718
102090
102282
102474
102667
102859
103049
103238
103425
103611
103796
103979
104161
104342
104521
104700
104878
105054
105230
105404
105578
105750
105922
106092
106261
106429
106595
106760
106924
107086
107246
107404
107561
107715
107866
108015
108161
108303
108443
108578
108710
102113
102305
102498
102690
102882
103072
103260
103447
103633
103817
104001
104183
104364
104543
104722
104900
105076
105251
105426
105599
105771
105942
106111
106279
106446
106612
106776
106938
107099
107258
107415
107569
107721
107871
108018
108162
108302
108440
108574
108704
102135
102327
102520
102712
102903
103093
103281
103468
103654
103838
104022
104204
104385
104564
104743
104920
105097
105272
105446
105618
105790
105960
106129
106297
106463
106628
106791
106952
107111
107269
107424
107577
107728
107876
108021
108163
108302
108437
108569
108698
102154
102347
102540
102732
102923
103112
103301
103488
103674
103858
104042
104224
104405
104584
104763
104940
105116
105291
105465
105637
105808
105978
106146
106313
106479
106642
106804
106965
107123
107279
107433
107584
107733
107880
108023
108164
108301
108435
108565
108692
102173
102366
102559
102751
102942
103131
103320
103507
103693
103877
104061
104243
104424
104603
104782
104959
105135
105309
105483
105655
105825
105995
106162
106329
106493
106656
106817
106976
107134
107288
107441
107591
107739
107884
108026
108164
108300
108433
108561
108687
102191
102385
102577
102769
102960
103150
103338
103525
103711
103895
104079
104261
104442
104621
104799
104976
105152
105327
105500
105671
105842
106010
106178
106343
106507
106669
106829
106987
107143
107297
107449
107598
107744
107887
108028
108165
108300
108430
108558
108682
102208
102402
102595
102787
102977
103167
103355
103542
103728
103913
104096
104278
104459
104638
104816
104993
105169
105343
105516
105687
105857
106025
106192
106357
106520
106681
106840
106998
107153
107305
107456
107603
107749
107891
108030
108166
108299
108429
108555
108678
102225
102419
102611
102803
102993
103183
103371
103558
103744
103929
104112
104294
104475
104654
104832
105009
105184
105358
105530
105701
105871
106039
106205
106369
106532
106692
106851
107007
107161
107313
107462
107609
107753
107894
108032
108167
108299
108427
108552
108673
102241
102434
102627
102818
103009
103198
103387
103574
103759
103944
104127
104309
104490
104669
104847
105023
105199
105372
105544
105715
105884
106052
106217
106381
106543
106703
106860
107016
107169
107320
107468
107614
107757
107897
108034
108168
108298
108425
108549
108670
102256
102449
102641
102833
103023
103213
103401
103588
103774
103958
104141
104323
104504
104683
104861
105037
105212
105386
105557
105728
105896
106063
106229
106392
106553
106712
106869
107024
107177
107327
107474
107619
107760
107899
108035
108168
108298
108424
108547
108666
102270
102463
102655
102846
103037
103226
103414
103601
103787
103971
104155
104336
104517
104696
104874
105050
105225
105398
105570
105740
105908
106074
106239
106402
106563
106721
106878
107032
107183
107333
107479
107623
107764
107902
108037
108169
108298
108423
108545
108663
102283
102475
102668
102859
103049
103238
103427
103613
103799
103984
104167
104348
104529
104708
104885
105062
105236
105409
105581
105750
105918
106085
106249
106411
106571
106729
106885
107039
107190
107338
107484
107627
107767
107904
108038
108169
108297
108422
108543
108661
102295
102487
102679
102870
103061
103250
103438
103625
103810
103995
104178
104360
104540
104719
104896
105072
105247
105420
105591
105760
105928
106094
106258
106419
106579
106737
106892
107045
107195
107343
107488
107630
107770
107906
108040
108170
108297
108421
108541
108658
102306
102498
102690
102881
103071
103260
103448
103635
103821
104005
104188
104370
104550
104729
104906
105082
105256
105429
105600
105769
105937
106102
106266
106427
106586
106743
106898
107051
107200
107348
107492
107634
107772
107908
108041
108171
108297
108420
108540
108656
102316
102508
102699
102890
103080
103270
103458
103644
103830
104014
104197
104379
104559
104738
104915
105091
105265
105437
105608
105777
105944
106110
106273
106434
106593
106749
106904
107056
107205
107352
107495
107637
107775
107910
108042
108171
108297
108419
108538
108654
102324
102516
102708
102899
103089
103278
103466
103653
103838
104022
104205
104387
104567
104746
104923
105099
105273
105445
105616
105784
105951
106116
106279
106440
106599
106755
106909
107060
107209
107355
107499
107639
107777
107911
108043
108171
108297
108419
108537
108652
102332
102524
102715
102906
103096
103285
103473
103660
103845
104030
104213
104394
104574
104753
104930
105105
105279
105451
105622
105791
105957
106122
106285
106445
106603
106759
106913
107064
107212
107358
107501
107641
107779
107913
108044
108172
108297
108418
108536
108651
102339
102531
102722
102913
103103
103291
103479
103666
103852
104036
104219
104400
104580
104759
104936
105111
105285
105457
105627
105796
105962
106127
106289
106450
106608
106763
106917
107067
107215
107361
107504
107643
107780
107914
108045
108172
108296
108418
108535
108650
102344
102536
102727
102918
103108
103297
103485
103671
103857
104041
104224
104405
104585
104764
104941
105116
105290
105462
105632
105800
105967
106131
106293
106453
106611
106767
106920
107070
107218
107363
107505
107645
107781
107915
108045
108172
108296
108417
108535
108649
102349
102540
102732
102922
103112
103301
103489
103675
103861
104045
104228
104409
104589
104768
104945
105120
105294
105465
105636
105804
105970
106134
106296
106456
106614
106769
106922
107072
107220
107365
107507
107646
107782
107916
108046
108173
108296
108417
108534
108648
102352
102544
102735
102925
103115
103304
103492
103679
103864
104048
104231
104412
104592
104771
104948
105123
105296
105468
105638
105806
105973
106137
106299
106459
106616
106771
106924
107074
107221
107366
107508
107647
107783
107916
108046
108173
108296
108417
108534
108647
102354
102546
102737
102927
103117
103306
103494
103681
103866
104050
104233
104414
104594
104773
104949
105125
105298
105470
105640
105808
105974
106138
106300
106460
106618
106773
106925
107075
107222
107367
107509
107648
107784
107917
108046
108173
108296
108416
108533
108647
102355
102547
102738
102928
103118
103307
103495
103682
103867
104051
104234
104415
104595
104773
104950
105126
105299
105471
105641
105809
105975
106139
106301
106461
106618
106773
106926
107076
107223
107367
107509
107648
107784
107917
108046
108173
108296
108416
108533
108647
36229.1
36246.6
36264.8
36282.8
36300.4
36317.6
36334.3
36350.6
36366.4
36381.8
36396.8
36411.3
36425.4
36439
36452.2
36464.9
36477.1
36488.9
36500.2
36511
36521.4
36531.2
36540.6
36549.5
36557.8
36565.7
36573.1
36579.9
36586.2
36592.1
36597.4
36602.1
36606.4
36610.1
36613.3
36615.9
36618.1
36619.6
36620.7
36621.2
36231.2
36246.2
36262.3
36278.8
36295.2
36311.5
36327.4
36343
36358.2
36373.1
36387.6
36401.7
36415.3
36428.6
36441.4
36453.7
36465.7
36477.2
36488.2
36498.7
36508.8
36518.5
36527.6
36536.3
36544.5
36552.2
36559.3
36566
36572.2
36577.9
36583.1
36587.8
36591.9
36595.6
36598.7
36601.3
36603.4
36604.9
36605.9
36606.4
36231.2
36245.1
36259.9
36275.2
36290.6
36306
36321.2
36336.2
36350.9
36365.2
36379.2
36392.9
36406.1
36419
36431.5
36443.5
36455.2
36466.3
36477.1
36487.4
36497.3
36506.7
36515.6
36524.1
36532.1
36539.6
36546.6
36553.2
36559.2
36564.8
36569.8
36574.4
36578.5
36582
36585.1
36587.6
36589.7
36591.2
36592.2
36592.6
36230.1
36243.5
36257.5
36271.9
36286.5
36301.2
36315.7
36330.1
36344.3
36358.1
36371.7
36384.9
36397.8
36410.3
36422.4
36434.2
36445.5
36456.4
36466.9
36477
36486.6
36495.8
36504.5
36512.8
36520.6
36528
36534.8
36541.2
36547.2
36552.6
36557.6
36562
36566
36569.5
36572.5
36575
36576.9
36578.4
36579.4
36579.9
36228.5
36241.5
36255
36268.8
36282.8
36296.8
36310.8
36324.7
36338.3
36351.8
36364.9
36377.8
36390.3
36402.4
36414.3
36425.7
36436.7
36447.4
36457.6
36467.5
36476.9
36485.8
36494.4
36502.5
36510.1
36517.3
36524
36530.3
36536.1
36541.4
36546.2
36550.6
36554.5
36557.9
36560.8
36563.3
36565.2
36566.7
36567.6
36568.1
36226.5
36239.3
36252.5
36265.9
36279.4
36292.9
36306.5
36319.8
36333.1
36346.1
36358.8
36371.3
36383.5
36395.4
36406.9
36418
36428.8
36439.2
36449.2
36458.8
36468
36476.7
36485.1
36493
36500.5
36507.5
36514.1
36520.2
36525.9
36531.1
36535.8
36540.1
36543.9
36547.3
36550.1
36552.5
36554.4
36555.8
36556.8
36557.2
36224.5
36237.2
36250.1
36263.2
36276.3
36289.5
36302.6
36315.6
36328.4
36341.1
36353.5
36365.6
36377.5
36389
36400.2
36411.1
36421.6
36431.8
36441.6
36451
36459.9
36468.5
36476.7
36484.4
36491.7
36498.6
36505.1
36511.1
36516.6
36521.7
36526.4
36530.6
36534.3
36537.6
36540.4
36542.7
36544.6
36546
36546.9
36547.3
36222.6
36235.2
36247.9
36260.7
36273.6
36286.4
36299.2
36311.8
36324.3
36336.6
36348.7
36360.6
36372.1
36383.4
36394.4
36405
36415.3
36425.2
36434.8
36443.9
36452.7
36461.1
36469.1
36476.7
36483.9
36490.6
36496.9
36502.8
36508.2
36513.2
36517.8
36521.9
36525.5
36528.7
36531.5
36533.8
36535.6
36537
36537.9
36538.3
36220.9
36233.4
36246
36258.6
36271.2
36283.7
36296.2
36308.6
36320.8
36332.8
36344.6
36356.2
36367.5
36378.5
36389.2
36399.6
36409.7
36419.4
36428.7
36437.7
36446.3
36454.5
36462.4
36469.8
36476.8
36483.4
36489.6
36495.3
36500.7
36505.6
36510
36514.1
36517.7
36520.8
36523.5
36525.7
36527.5
36528.9
36529.7
36530.1
36219.4
36231.8
36244.3
36256.8
36269.2
36281.5
36293.8
36305.9
36317.8
36329.6
36341.2
36352.5
36363.5
36374.3
36384.8
36395
36404.8
36414.3
36423.5
36432.3
36440.7
36448.8
36456.4
36463.7
36470.6
36477.1
36483.1
36488.8
36494
36498.8
36503.2
36507.1
36510.6
36513.7
36516.4
36518.6
36520.3
36521.6
36522.5
36522.9
36218.2
36230.6
36243
36255.3
36267.6
36279.7
36291.8
36303.7
36315.4
36326.9
36338.3
36349.4
36360.2
36370.8
36381
36391
36400.7
36410
36419
36427.6
36435.9
36443.8
36451.3
36458.4
36465.2
36471.5
36477.5
36483
36488.1
36492.8
36497.1
36501
36504.5
36507.5
36510.1
36512.2
36514
36515.3
36516.1
36516.5
36217.3
36229.7
36242
36254.2
36266.4
36278.4
36290.2
36302
36313.5
36324.9
36336
36346.9
36357.5
36367.9
36378
36387.8
36397.2
36406.4
36415.2
36423.6
36431.8
36439.5
36446.9
36453.9
36460.5
36466.8
36472.6
36478
36483.1
36487.7
36491.9
36495.7
36499.1
36502.1
36504.6
36506.8
36508.4
36509.7
36510.6
36510.9
36216.9
36229.2
36241.5
36253.6
36265.6
36277.5
36289.2
36300.8
36312.2
36323.3
36334.3
36345
36355.5
36365.6
36375.5
36385.2
36394.5
36403.5
36412.1
36420.4
36428.4
36436
36443.3
36450.1
36456.7
36462.8
36468.5
36473.9
36478.8
36483.4
36487.5
36491.2
36494.6
36497.5
36500
36502.1
36503.7
36505
36505.8
36506.2
36216.8
36229.1
36241.3
36253.4
36265.3
36277.1
36288.7
36300.1
36311.3
36322.4
36333.1
36343.7
36354
36364
36373.8
36383.2
36392.4
36401.2
36409.7
36417.9
36425.8
36433.2
36440.4
36447.1
36453.5
36459.6
36465.2
36470.5
36475.3
36479.8
36483.9
36487.6
36490.8
36493.7
36496.2
36498.2
36499.9
36501.1
36501.9
36502.2
36217.2
36229.5
36241.6
36253.6
36265.5
36277.1
36288.6
36300
36311.1
36321.9
36332.6
36343
36353.2
36363
36372.7
36382
36391
36399.7
36408.1
36416.1
36423.8
36431.2
36438.2
36444.9
36451.2
36457.1
36462.7
36467.8
36472.6
36477
36481
36484.6
36487.9
36490.7
36493.1
36495.1
36496.7
36498
36498.7
36499.1
36218
36230.3
36242.4
36254.3
36266.1
36277.7
36289.1
36300.3
36311.3
36322.1
36332.6
36342.9
36352.9
36362.7
36372.2
36381.3
36390.2
36398.8
36407.1
36415
36422.6
36429.9
36436.8
36443.3
36449.5
36455.4
36460.8
36465.9
36470.7
36475
36478.9
36482.5
36485.7
36488.5
36490.8
36492.8
36494.4
36495.6
36496.4
36496.7
36219.3
36231.5
36243.6
36255.5
36267.3
36278.8
36290.1
36301.2
36312.1
36322.8
36333.2
36343.4
36353.3
36362.9
36372.3
36381.4
36390.1
36398.6
36406.7
36414.6
36422.1
36429.2
36436
36442.5
36448.6
36454.4
36459.8
36464.8
36469.4
36473.7
36477.6
36481.1
36484.2
36487
36489.3
36491.3
36492.8
36494
36494.8
36495.1
36221.1
36233.3
36245.4
36257.2
36268.9
36280.4
36291.6
36302.7
36313.5
36324.1
36334.4
36344.4
36354.3
36363.8
36373
36382
36390.7
36399
36407.1
36414.8
36422.2
36429.3
36436
36442.4
36448.4
36454.1
36459.4
36464.4
36468.9
36473.2
36477
36480.5
36483.5
36486.2
36488.6
36490.5
36492
36493.2
36493.9
36494.3
36223.3
36235.6
36247.6
36259.4
36271.1
36282.5
36293.7
36304.7
36315.4
36325.9
36336.1
36346.1
36355.8
36365.3
36374.4
36383.3
36391.9
36400.1
36408.1
36415.7
36423
36430
36436.6
36442.9
36448.9
36454.5
36459.8
36464.6
36469.2
36473.3
36477.1
36480.5
36483.6
36486.2
36488.5
36490.4
36492
36493.1
36493.8
36494.2
36226.1
36238.3
36250.4
36262.2
36273.8
36285.1
36296.3
36307.2
36317.9
36328.3
36338.4
36348.3
36358
36367.3
36376.4
36385.2
36393.7
36401.8
36409.7
36417.3
36424.5
36431.4
36438
36444.2
36450.1
36455.6
36460.8
36465.6
36470.1
36474.2
36478
36481.3
36484.3
36487
36489.2
36491.1
36492.6
36493.7
36494.5
36494.8
36229.4
36241.6
36253.6
36265.4
36277
36288.3
36299.4
36310.3
36320.9
36331.2
36341.3
36351.2
36360.7
36370
36379
36387.7
36396.1
36404.2
36412
36419.5
36426.6
36433.5
36440
36446.1
36451.9
36457.4
36462.5
36467.3
36471.7
36475.8
36479.5
36482.8
36485.8
36488.4
36490.6
36492.5
36494
36495.1
36495.8
36496.2
36233.2
36245.4
36257.4
36269.2
36280.7
36292
36303.1
36313.9
36324.5
36334.8
36344.8
36354.6
36364.1
36373.3
36382.2
36390.8
36399.2
36407.2
36414.9
36422.3
36429.4
36436.2
36442.6
36448.7
36454.5
36459.9
36465
36469.7
36474.1
36478.1
36481.7
36485
36488
36490.6
36492.8
36494.6
36496.1
36497.2
36497.9
36498.2
36237.6
36249.8
36261.8
36273.5
36285
36296.3
36307.3
36318.1
36328.6
36338.9
36348.9
36358.6
36368
36377.1
36386
36394.6
36402.9
36410.8
36418.5
36425.8
36432.8
36439.5
36445.9
36452
36457.7
36463
36468.1
36472.7
36477.1
36481.1
36484.7
36487.9
36490.9
36493.4
36495.6
36497.4
36498.9
36499.9
36500.7
36501
36242.4
36254.7
36266.6
36278.4
36289.9
36301.1
36312.1
36322.9
36333.3
36343.5
36353.5
36363.1
36372.5
36381.6
36390.4
36398.9
36407.2
36415.1
36422.7
36430
36436.9
36443.6
36449.9
36455.9
36461.5
36466.9
36471.8
36476.5
36480.8
36484.7
36488.3
36491.5
36494.4
36496.9
36499.1
36500.9
36502.3
36503.4
36504.1
36504.4
36247.9
36260.1
36272.1
36283.8
36295.3
36306.5
36317.5
36328.2
36338.6
36348.8
36358.7
36368.3
36377.6
36386.7
36395.4
36403.9
36412.1
36419.9
36427.5
36434.7
36441.6
36448.2
36454.5
36460.4
36466.1
36471.3
36476.3
36480.9
36485.1
36489
36492.6
36495.8
36498.7
36501.1
36503.3
36505.1
36506.5
36507.6
36508.3
36508.6
36253.9
36266.1
36278.1
36289.8
36301.2
36312.5
36323.4
36334.1
36344.5
36354.6
36364.5
36374.1
36383.4
36392.4
36401.1
36409.5
36417.6
36425.4
36432.9
36440.1
36447
36453.5
36459.8
36465.7
36471.2
36476.5
36481.4
36485.9
36490.2
36494
36497.6
36500.7
36503.6
36506
36508.2
36509.9
36511.4
36512.4
36513.1
36513.4
36260.4
36272.6
36284.6
36296.3
36307.8
36319
36329.9
36340.5
36350.9
36361
36370.9
36380.4
36389.7
36398.6
36407.3
36415.7
36423.8
36431.5
36439
36446.1
36453
36459.5
36465.7
36471.5
36477.1
36482.3
36487.1
36491.6
36495.8
36499.7
36503.2
36506.3
36509.2
36511.6
36513.7
36515.5
36516.9
36517.9
36518.6
36518.9
36267.5
36279.7
36291.7
36303.4
36314.9
36326
36336.9
36347.6
36357.9
36368
36377.8
36387.3
36396.6
36405.5
36414.1
36422.5
36430.5
36438.2
36445.7
36452.8
36459.6
36466
36472.2
36478
36483.5
36488.7
36493.5
36498
36502.2
36506
36509.5
36512.6
36515.4
36517.8
36519.9
36521.7
36523.1
36524.1
36524.8
36525.1
36275.2
36287.4
36299.4
36311.1
36322.5
36333.7
36344.6
36355.2
36365.5
36375.6
36385.4
36394.9
36404.1
36413
36421.6
36429.9
36437.9
36445.6
36453
36460
36466.8
36473.2
36479.4
36485.2
36490.6
36495.8
36500.6
36505
36509.2
36513
36516.4
36519.5
36522.3
36524.7
36526.8
36528.5
36529.9
36531
36531.6
36532
36283.4
36295.6
36307.6
36319.3
36330.7
36341.9
36352.8
36363.4
36373.7
36383.7
36393.5
36403
36412.1
36421
36429.6
36437.9
36445.9
36453.5
36460.9
36467.9
36474.7
36481.1
36487.2
36492.9
36498.4
36503.5
36508.2
36512.7
36516.8
36520.6
36524
36527.1
36529.9
36532.3
36534.3
36536.1
36537.4
36538.5
36539.2
36539.5
36292.2
36304.4
36316.4
36328.1
36339.5
36350.7
36361.6
36372.2
36382.5
36392.5
36402.2
36411.7
36420.8
36429.7
36438.2
36446.5
36454.4
36462.1
36469.4
36476.4
36483.1
36489.5
36495.6
36501.3
36506.7
36511.8
36516.6
36521
36525.1
36528.8
36532.3
36535.3
36538.1
36540.5
36542.5
36544.3
36545.6
36546.6
36547.3
36547.6
36301.6
36313.8
36325.8
36337.5
36348.9
36360.1
36370.9
36381.5
36391.8
36401.8
36411.5
36421
36430.1
36438.9
36447.5
36455.7
36463.6
36471.2
36478.6
36485.5
36492.2
36498.6
36504.6
36510.3
36515.7
36520.8
36525.5
36529.9
36534
36537.7
36541.1
36544.2
36546.9
36549.3
36551.4
36553.1
36554.4
36555.5
36556.1
36556.4
36311.5
36323.8
36335.7
36347.4
36358.9
36370
36380.9
36391.4
36401.7
36411.7
36421.4
36430.9
36440
36448.8
36457.3
36465.5
36473.4
36481
36488.3
36495.3
36501.9
36508.3
36514.3
36520
36525.4
36530.4
36535.1
36539.5
36543.6
36547.3
36550.7
36553.7
36556.4
36558.8
36560.9
36562.6
36563.9
36564.9
36565.6
36565.9
36322
36334.3
36346.3
36358
36369.4
36380.5
36391.4
36402
36412.3
36422.2
36431.9
36441.3
36450.4
36459.3
36467.8
36475.9
36483.8
36491.4
36498.7
36505.6
36512.3
36518.6
36524.6
36530.3
36535.6
36540.7
36545.4
36549.7
36553.8
36557.5
36560.8
36563.9
36566.6
36569
36571
36572.7
36574
36575
36575.7
36576
36333.1
36345.4
36357.4
36369.1
36380.5
36391.7
36402.5
36413.1
36423.4
36433.3
36443
36452.4
36461.5
36470.3
36478.8
36487
36494.8
36502.4
36509.7
36516.6
36523.2
36529.5
36535.5
36541.2
36546.5
36551.5
36556.2
36560.6
36564.6
36568.3
36571.6
36574.7
36577.4
36579.7
36581.7
36583.4
36584.8
36585.8
36586.4
36586.7
36344.8
36357.1
36369.1
36380.8
36392.2
36403.4
36414.2
36424.8
36435.1
36445
36454.7
36464.1
36473.2
36482
36490.4
36498.6
36506.5
36514
36521.3
36528.2
36534.8
36541.1
36547
36552.7
36558
36563
36567.7
36572
36576
36579.7
36583.1
36586.1
36588.8
36591.1
36593.1
36594.8
36596.2
36597.2
36597.8
36598.1
36357.1
36369.4
36381.4
36393.1
36404.5
36415.7
36426.5
36437.1
36447.4
36457.3
36467
36476.4
36485.5
36494.2
36502.7
36510.8
36518.7
36526.2
36533.5
36540.4
36547
36553.2
36559.2
36564.8
36570.1
36575.1
36579.8
36584.1
36588.1
36591.8
36595.1
36598.1
36600.8
36603.2
36605.2
36606.8
36608.2
36609.2
36609.8
36610.1
36370
36382.2
36394.2
36406
36417.4
36428.5
36439.4
36450
36460.2
36470.2
36479.9
36489.2
36498.3
36507.1
36515.5
36523.7
36531.5
36539.1
36546.3
36553.2
36559.8
36566
36572
36577.6
36582.9
36587.9
36592.5
36596.8
36600.8
36604.5
36607.8
36610.8
36613.5
36615.8
36617.8
36619.5
36620.8
36621.8
36622.5
36622.8
36383.4
36395.7
36407.7
36419.4
36430.9
36442
36452.9
36463.4
36473.7
36483.7
36493.4
36502.7
36511.8
36520.5
36529
36537.1
36545
36552.5
36559.7
36566.6
36573.2
36579.4
36585.4
36591
36596.3
36601.2
36605.9
36610.2
36614.2
36617.8
36621.2
36624.1
36626.8
36629.1
36631.1
36632.8
36634.1
36635.1
36635.8
36636.1
36397.4
36409.7
36421.7
36433.5
36444.9
36456.1
36467
36477.5
36487.8
36497.8
36507.4
36516.8
36525.9
36534.6
36543.1
36551.2
36559
36566.5
36573.7
36580.6
36587.2
36593.4
36599.4
36605
36610.3
36615.2
36619.8
36624.1
36628.1
36631.8
36635.1
36638.1
36640.7
36643.1
36645.1
36646.7
36648.1
36649
36649.7
36650
36412
36424.4
36436.4
36448.1
36459.6
36470.8
36481.6
36492.2
36502.5
36512.4
36522.1
36531.5
36540.5
36549.3
36557.7
36565.9
36573.7
36581.2
36588.4
36595.3
36601.8
36608.1
36614
36619.6
36624.9
36629.8
36634.4
36638.7
36642.7
36646.4
36649.7
36652.7
36655.3
36657.6
36659.6
36661.3
36662.6
36663.6
36664.2
36664.5
36427.3
36439.6
36451.6
36463.4
36474.8
36486
36496.9
36507.5
36517.7
36527.7
36537.4
36546.7
36555.8
36564.6
36573
36581.1
36588.9
36596.4
36603.6
36610.5
36617.1
36623.3
36629.2
36634.8
36640.1
36645
36649.6
36653.9
36657.9
36661.6
36664.9
36667.8
36670.5
36672.8
36674.8
36676.5
36677.8
36678.8
36679.4
36679.7
36443.1
36455.4
36467.5
36479.2
36490.7
36501.9
36512.7
36523.3
36533.6
36543.6
36553.2
36562.6
36571.7
36580.4
36588.9
36597
36604.8
36612.3
36619.5
36626.4
36632.9
36639.2
36645.1
36650.7
36655.9
36660.9
36665.5
36669.8
36673.7
36677.4
36680.7
36683.7
36686.3
36688.6
36690.6
36692.3
36693.6
36694.6
36695.2
36695.5
36459.5
36471.8
36483.9
36495.6
36507.1
36518.3
36529.2
36539.8
36550.1
36560.1
36569.7
36579.1
36588.2
36596.9
36605.4
36613.5
36621.3
36628.8
36636
36642.9
36649.4
36655.6
36661.5
36667.1
36672.4
36677.3
36681.9
36686.2
36690.2
36693.8
36697.1
36700.1
36702.7
36705
36707
36708.7
36710
36711
36711.6
36711.9
36476.5
36488.8
36500.9
36512.7
36524.2
36535.4
36546.3
36556.9
36567.1
36577.1
36586.8
36596.2
36605.2
36614
36622.4
36630.6
36638.4
36645.9
36653.1
36659.9
36666.5
36672.7
36678.6
36684.2
36689.5
36694.4
36699
36703.3
36707.2
36710.9
36714.2
36717.1
36719.8
36722.1
36724.1
36725.7
36727
36728
36728.7
36729
36494.1
36506.4
36518.5
36530.3
36541.8
36553
36563.9
36574.5
36584.8
36594.8
36604.5
36613.9
36622.9
36631.7
36640.1
36648.3
36656.1
36663.6
36670.8
36677.6
36684.2
36690.4
36696.3
36701.9
36707.2
36712.1
36716.7
36721
36724.9
36728.6
36731.9
36734.8
36737.5
36739.8
36741.8
36743.4
36744.7
36745.7
36746.3
36746.6
36512.3
36524.6
36536.7
36548.5
36560.1
36571.3
36582.2
36592.8
36603.1
36613.1
36622.8
36632.2
36641.2
36650
36658.4
36666.6
36674.4
36681.9
36689.1
36696
36702.5
36708.7
36714.6
36720.2
36725.5
36730.4
36735
36739.3
36743.2
36746.9
36750.2
36753.1
36755.8
36758.1
36760
36761.7
36763
36764
36764.6
36764.9
36531.1
36543.5
36555.6
36567.4
36578.9
36590.1
36601
36611.7
36622
36632
36641.7
36651.1
36660.1
36668.9
36677.4
36685.5
36693.3
36700.8
36708
36714.9
36721.4
36727.7
36733.6
36739.1
36744.4
36749.3
36753.9
36758.2
36762.2
36765.8
36769.1
36772
36774.7
36777
36779
36780.6
36781.9
36782.9
36783.6
36783.8
36550.4
36562.9
36575
36586.8
36598.4
36609.6
36620.5
36631.1
36641.5
36651.5
36661.2
36670.6
36679.7
36688.4
36696.9
36705
36712.9
36720.4
36727.6
36734.4
36741
36747.2
36753.1
36758.7
36763.9
36768.9
36773.5
36777.8
36781.7
36785.3
36788.6
36791.6
36794.2
36796.5
36798.5
36800.1
36801.5
36802.4
36803.1
36803.4
36570.4
36582.9
36595
36606.9
36618.4
36629.7
36640.6
36651.2
36661.6
36671.6
36681.3
36690.7
36699.8
36708.6
36717
36725.2
36733
36740.5
36747.7
36754.6
36761.1
36767.4
36773.3
36778.8
36784.1
36789
36793.6
36797.9
36801.9
36805.5
36808.8
36811.7
36814.4
36816.7
36818.7
36820.3
36821.6
36822.6
36823.2
36823.5
36591.1
36603.5
36615.6
36627.5
36639.1
36650.3
36661.3
36671.9
36682.3
36692.3
36702
36711.4
36720.5
36729.3
36737.8
36745.9
36753.8
36761.3
36768.5
36775.3
36781.9
36788.1
36794
36799.6
36804.9
36809.8
36814.4
36818.7
36822.6
36826.3
36829.6
36832.5
36835.2
36837.5
36839.4
36841.1
36842.4
36843.4
36844
36844.3
36612.3
36624.7
36636.9
36648.8
36660.3
36671.6
36682.6
36693.2
36703.6
36713.6
36723.4
36732.8
36741.9
36750.7
36759.1
36767.3
36775.1
36782.7
36789.9
36796.7
36803.3
36809.5
36815.4
36821
36826.3
36831.2
36835.8
36840.1
36844
36847.7
36851
36853.9
36856.6
36858.9
36860.8
36862.5
36863.8
36864.8
36865.4
36865.7
36634.1
36646.6
36658.7
36670.6
36682.2
36693.5
36704.5
36715.1
36725.5
36735.6
36745.3
36754.7
36763.8
36772.6
36781.1
36789.3
36797.1
36804.6
36811.9
36818.7
36825.3
36831.5
36837.4
36843
36848.3
36853.2
36857.8
36862.1
36866.1
36869.7
36873
36875.9
36878.6
36880.9
36882.9
36884.5
36885.8
36886.8
36887.4
36887.7
36656.5
36669
36681.2
36693.1
36704.7
36716
36727
36737.7
36748
36758.1
36767.9
36777.3
36786.4
36795.2
36803.7
36811.9
36819.7
36827.3
36834.5
36841.4
36847.9
36854.2
36860.1
36865.7
36870.9
36875.9
36880.5
36884.7
36888.7
36892.3
36895.6
36898.6
36901.2
36903.5
36905.5
36907.2
36908.5
36909.4
36910.1
36910.4
36679.5
36692
36704.3
36716.2
36727.8
36739.1
36750.1
36760.8
36771.2
36781.3
36791
36800.5
36809.6
36818.4
36826.9
36835.1
36842.9
36850.5
36857.7
36864.6
36871.2
36877.4
36883.3
36888.9
36894.2
36899.1
36903.7
36908
36912
36915.6
36918.9
36921.8
36924.5
36926.8
36928.8
36930.4
36931.7
36932.7
36933.4
36933.6
36703.2
36715.7
36727.9
36739.9
36751.5
36762.8
36773.9
36784.6
36795
36805.1
36814.8
36824.3
36833.4
36842.2
36850.7
36858.9
36866.8
36874.3
36881.5
36888.4
36895
36901.3
36907.2
36912.8
36918
36923
36927.6
36931.9
36935.8
36939.5
36942.8
36945.7
36948.4
36950.7
36952.7
36954.3
36955.6
36956.6
36957.2
36957.5
36727.4
36740
36752.2
36764.2
36775.8
36787.2
36798.2
36808.9
36819.3
36829.4
36839.2
36848.7
36857.8
36866.7
36875.2
36883.4
36891.2
36898.8
36906
36912.9
36919.5
36925.7
36931.7
36937.3
36942.5
36947.5
36952.1
36956.4
36960.3
36964
36967.3
36970.2
36972.9
36975.2
36977.2
36978.8
36980.1
36981.1
36981.7
36982
36752.3
36764.9
36777.1
36789.1
36800.8
36812.1
36823.2
36833.9
36844.3
36854.5
36864.2
36873.7
36882.9
36891.7
36900.2
36908.4
36916.3