/*--------------------------------*- C++ -*----------------------------------*\
| =========                 |                                                 |
| \\      /  F ield         | OpenFOAM: The Open Source CFD Toolbox           |
|  \\    /   O peration     | Version:  2.3.0                                 |
|   \\  /    A nd           | Web:      www.OpenFOAM.org                      |
|    \\/     M anipulation  |                                                 |
\*---------------------------------------------------------------------------*/
FoamFile
{
    version     2.0;
    format      ascii;
    class       volScalarField;
    location    "20";
    object      H2O;
}
// * * * * * * * * * * * * * * * * * * * * * * * * * * * * * * * * * * * * * //

dimensions      [0 0 0 0 0 0 0];

internalField   nonuniform List<scalar> 
26600
(
1.47179e-15
4.00351e-13
1.31051e-11
1.81176e-10
1.78102e-09
1.65911e-08
9.57701e-08
3.66532e-07
1.19949e-06
3.01598e-06
6.96887e-06
1.51576e-05
2.81385e-05
4.97187e-05
7.69027e-05
0.000114912
0.000158201
0.00020238
0.000252412
0.000313717
0.000380193
0.000455271
0.000535333
0.000617863
0.000704555
0.000792735
0.000886267
0.000980658
0.00107815
0.00117605
0.00128347
0.00139464
0.00151876
0.00164342
0.00178767
0.00192003
0.00207001
0.00221115
0.00239025
0.00268411
1.77534e-13
7.6404e-12
2.0032e-10
2.43227e-09
2.15837e-08
2.00257e-07
9.78001e-07
3.05296e-06
8.70425e-06
1.78461e-05
3.71704e-05
7.73816e-05
0.000124472
0.000220705
0.000300193
0.000452659
0.000564495
0.00076741
0.000917381
0.00117926
0.00137443
0.00164495
0.00191684
0.00220883
0.00252634
0.00277573
0.00320558
0.00348881
0.00391961
0.00417032
0.00468921
0.00500923
0.00527203
0.00562396
0.00581198
0.00611435
0.00631802
0.00668179
0.00701046
0.00744956
2.70733e-12
1.0651e-10
2.05457e-09
2.41867e-08
1.98503e-07
1.13454e-06
4.17851e-06
1.24988e-05
3.22142e-05
7.26859e-05
0.000145741
0.000254512
0.000396975
0.000612978
0.000829131
0.00116141
0.00144283
0.00186897
0.00219672
0.00275772
0.00313742
0.00378588
0.00440353
0.00495565
0.00595941
0.00650787
0.00700401
0.00761946
0.00834243
0.00892332
0.00960557
0.0101898
0.0110346
0.0115516
0.0125254
0.0133045
0.014203
0.0150309
0.0159298
0.0168468
1.26792e-11
5.9201e-10
1.11348e-08
1.17247e-07
8.29396e-07
3.93872e-06
1.35371e-05
3.70579e-05
9.07671e-05
0.000184957
0.000341261
0.000549623
0.000840415
0.00123617
0.0016616
0.00227138
0.00278201
0.00356328
0.00415174
0.00519457
0.00589372
0.00738217
0.00825186
0.00891481
0.0103003
0.0113455
0.0127911
0.0140111
0.0150984
0.0162852
0.0177026
0.0189048
0.0204334
0.021475
0.0236578
0.0251214
0.0267702
0.0285694
0.0303299
0.0310535
5.20023e-11
2.50727e-09
4.09089e-08
4.24239e-07
2.77331e-06
1.1242e-05
3.45699e-05
8.86249e-05
0.000210264
0.000399926
0.000699202
0.0010766
0.001628
0.00232135
0.00310478
0.00416295
0.00500592
0.00643124
0.00740324
0.0094518
0.010657
0.0122072
0.0144553
0.0166249
0.0185759
0.0204317
0.0236645
0.0261849
0.0291848
0.0323424
0.0356175
0.0388861
0.0419795
0.0452462
0.0481572
0.0515943
0.0544928
0.0585637
0.0622465
0.0613074
2.16371e-10
9.20687e-09
1.49514e-07
1.43948e-06
7.74623e-06
2.80688e-05
8.06425e-05
0.000195927
0.000452012
0.000807265
0.00135642
0.00203536
0.00307043
0.00425517
0.00572086
0.00748037
0.00885663
0.0116519
0.0131172
0.0160298
0.018691
0.0230099
0.0293974
0.0327584
0.0362591
0.040762
0.045276
0.0489146
0.0536606
0.0575733
0.0610808
0.0645449
0.0679259
0.0716157
0.075261
0.0799161
0.0839412
0.0877991
0.0915845
0.0907314
8.87313e-10
3.47639e-08
5.60411e-07
4.39324e-06
1.96668e-05
6.52151e-05
0.000177467
0.000410907
0.000924644
0.0015541
0.00254472
0.00379665
0.0057685
0.00777502
0.0107561
0.0133807
0.0158947
0.0200527
0.0250866
0.030097
0.0355885
0.0417978
0.0570382
0.0576442
0.0598357
0.0629617
0.0675174
0.0729651
0.0786413
0.0832136
0.0867179
0.0903302
0.0929911
0.0959038
0.0982712
0.105439
0.107233
0.105889
0.102695
0.102778
3.64685e-09
1.52767e-07
2.00046e-06
1.19537e-05
4.6491e-05
0.000143885
0.000376841
0.000827096
0.00181965
0.00289011
0.00468786
0.00717152
0.0110718
0.0144252
0.0185533
0.0240034
0.0302774
0.0370586
0.0431104
0.0495616
0.0549819
0.0610705
0.0675637
0.0747028
0.0815033
0.0879149
0.091561
0.0951304
0.104376
0.104309
0.103293
0.101715
0.0997177
0.0979151
0.0950755
0.0913254
0.0890419
0.0845787
0.0819346
0.0797425
1.77351e-08
6.66044e-07
6.13455e-06
2.93208e-05
0.000104598
0.00030769
0.000776234
0.00161421
0.00350976
0.0052672
0.00872354
0.014328
0.0190187
0.0262459
0.0341815
0.0418994
0.0486334
0.0562512
0.0637366
0.0726193
0.0793626
0.0873672
0.090593
0.102069
0.10198
0.0989825
0.0936491
0.0884572
0.0861291
0.0846717
0.0823772
0.0804677
0.0785513
0.0759141
0.0726311
0.0686531
0.0636928
0.0602079
0.0575177
0.0572611
9.28194e-08
2.38239e-06
1.5733e-05
6.71389e-05
0.000228659
0.00064801
0.00156395
0.00310948
0.00675417
0.00961357
0.0175476
0.0254792
0.0347395
0.0437183
0.0520787
0.0627193
0.073987
0.0849938
0.089424
0.100037
0.101617
0.0991002
0.0932189
0.0891177
0.079025
0.0729859
0.0683182
0.0636403
0.060228
0.0574896
0.0550306
0.052271
0.0495469
0.047385
0.0452481
0.0439528
0.0434453
0.0432354
0.0436653
0.0448435
3.96224e-07
6.38156e-06
3.60389e-05
0.000148731
0.000494487
0.00137257
0.00312722
0.00603579
0.0126981
0.0178476
0.0328211
0.0430634
0.0521971
0.0671743
0.0823287
0.0889853
0.102514
0.100805
0.0957577
0.0924318
0.0828159
0.0752392
0.0673814
0.0540441
0.0419941
0.0360503
0.0344407
0.0336124
0.0332233
0.0329022
0.0328496
0.0328166
0.0326044
0.0327153
0.0330702
0.0340569
0.0353793
0.036522
0.0385118
0.0411351
1.08333e-06
1.40487e-05
8.01795e-05
0.000327117
0.0010784
0.00302964
0.00620555
0.0124377
0.0231243
0.0368118
0.0477628
0.0660051
0.0829092
0.0939315
0.0997666
0.0970406
0.0910165
0.0826949
0.0743162
0.0603123
0.0452994
0.0323776
0.0283683
0.0259947
0.0229556
0.0215429
0.0208859
0.0211034
0.0215566
0.0224726
0.023518
0.0247177
0.0262664
0.0276571
0.029565
0.0318622
0.0342571
0.0368344
0.0396066
0.0436307
2.14534e-06
2.97468e-05
0.000181004
0.00073217
0.00244087
0.00707249
0.0124969
0.0233586
0.0400024
0.0555732
0.0768082
0.0912123
0.0990868
0.0959937
0.0871921
0.0789619
0.0625564
0.045289
0.030259
0.025607
0.021603
0.0166133
0.0143113
0.0127875
0.0130582
0.0140693
0.0150679
0.0167846
0.018408
0.0201374
0.0220939
0.0241948
0.0263788
0.0286778
0.0312223
0.0339856
0.0367837
0.0398778
0.043243
0.0473328
3.67958e-06
6.61938e-05
0.000434183
0.00173456
0.00598491
0.0118202
0.0253293
0.0435661
0.0624838
0.0823712
0.0996111
0.0968336
0.0884202
0.0796617
0.0613483
0.0397569
0.0254869
0.0220389
0.0157335
0.011623
0.00844937
0.00813422
0.00888652
0.00978555
0.0114585
0.013371
0.0153142
0.0174339
0.0194351
0.0216213
0.0239634
0.0264192
0.0289692
0.0316546
0.0345304
0.0376171
0.0410783
0.0447141
0.0486672
0.0532211
5.833e-06
0.000166128
0.00119655
0.00463889
0.0103517
0.0254855
0.0453591
0.065066
0.0849853
0.0953308
0.0925823
0.0818733
0.0645806
0.0420189
0.0257344
0.0211534
0.0150434
0.00790236
0.0055903
0.0054199
0.00594929
0.00692254
0.00856241
0.0105387
0.0127898
0.0151438
0.0175303
0.0199626
0.0225935
0.0251456
0.0277209
0.0303744
0.0331406
0.0360617
0.0391756
0.0425136
0.0461324
0.05004
0.0543049
0.0590845
7.26384e-06
0.000544856
0.00424511
0.00881118
0.0233489
0.0449773
0.0670593
0.0854733
0.0920213
0.0856135
0.0702385
0.0526532
0.0296396
0.02015
0.0166294
0.00789689
0.00448829
0.00355297
0.00380221
0.00461574
0.0058737
0.00800933
0.0104246
0.0133709
0.0161804
0.0188958
0.0215662
0.0242119
0.0269048
0.0295676
0.0322381
0.0350057
0.03791
0.0409845
0.0442604
0.0477685
0.051541
0.0556029
0.0599924
0.0647753
2.24279e-06
0.00260258
0.00845095
0.0225456
0.0448498
0.0664941
0.0860203
0.0887308
0.0807559
0.0605133
0.0396496
0.0241807
0.0186347
0.0125318
0.00513899
0.0027053
0.00236129
0.00282494
0.00364472
0.00536636
0.00805725
0.0111491
0.0142276
0.0175658
0.0205413
0.023414
0.0262745
0.0290736
0.0318756
0.0345971
0.0372617
0.0400916
0.0430877
0.0462625
0.049642
0.05325
0.0571033
0.0612117
0.0655811
0.0702143
0
0.00791044
0.023982
0.0454553
0.0665882
0.0866324
0.087574
0.0746184
0.0523671
0.0283283
0.0231496
0.0162812
0.00670624
0.00285834
0.001518
0.00151889
0.00200636
0.00299532
0.00513947
0.008197
0.0115164
0.0152766
0.0186757
0.0225443
0.0254226
0.0283637
0.0314652
0.0343756
0.037262
0.0400843
0.0425498
0.0454365
0.0485123
0.0517489
0.0551777
0.0588155
0.0626663
0.0667196
0.0709535
0.075332
6.52575e-05
0.0312595
0.0478519
0.0642633
0.0886475
0.0835624
0.0590956
0.0372911
0.0222979
0.0183383
0.00860732
0.00372789
0.00155476
0.000848695
0.000918984
0.00137995
0.0023877
0.00476831
0.00793096
0.0119039
0.0156865
0.0201604
0.0234778
0.0273813
0.030843
0.0340053
0.037029
0.0399244
0.0427807
0.0456306
0.0481937
0.0509433
0.0540571
0.0573081
0.0607287
0.0643277
0.0680955
0.0720047
0.0760157
0.0800733
8.13453e-05
0.0410444
0.0558253
0.0800105
0.067526
0.0367895
0.0261313
0.0183392
0.0117201
0.00467283
0.00191281
0.000786839
0.000442529
0.000542092
0.000878026
0.00187699
0.00404578
0.00765876
0.0114769
0.0163715
0.0202339
0.0248301
0.0290342
0.0329602
0.0364967
0.0397068
0.0426986
0.0455531
0.0483486
0.0511189
0.053851
0.0565423
0.059603
0.0628101
0.066163
0.0696575
0.0732717
0.0769677
0.0806965
0.0843981
3.686e-05
0.0101457
0.0110367
0.0118817
0.0115554
0.00965392
0.00505772
0.0023089
0.00115723
0.000552537
0.000265239
0.000183588
0.000276278
0.000550763
0.00141097
0.00345449
0.00645612
0.0112629
0.0154635
0.0204985
0.0255866
0.0303782
0.0347337
0.0386708
0.0421976
0.0453855
0.0483337
0.0511364
0.0538729
0.0566094
0.0592732
0.062022
0.0650109
0.0681247
0.0713568
0.0746903
0.0780934
0.0815258
0.0849389
0.0882768
4.25838e-06
0.000628854
0.00126435
0.00127677
0.00108589
0.000693253
0.000386202
0.000218548
0.000124259
7.09213e-05
6.52786e-05
0.000119319
0.000308413
0.00099357
0.00249907
0.00577825
0.00936799
0.0144246
0.0201852
0.0258342
0.0311511
0.0360404
0.0404317
0.0443355
0.0478066
0.0509351
0.0538226
0.0565622
0.059226
0.0618756
0.0645181
0.0672596
0.0701432
0.0731282
0.0761986
0.0793309
0.0824906
0.0856375
0.0887279
0.0917155
9.95111e-07
3.30081e-05
9.32861e-05
9.90666e-05
9.40715e-05
7.09132e-05
4.79656e-05
3.43384e-05
2.272e-05
2.33986e-05
4.73637e-05
0.000184636
0.000595823
0.00193609
0.00412375
0.00763869
0.013043
0.0189866
0.0252203
0.0312167
0.0366919
0.0416325
0.0459955
0.0498264
0.0532116
0.0562576
0.0590686
0.0617348
0.064305
0.0668662
0.069477
0.0721543
0.0749148
0.0777447
0.080626
0.0835333
0.0864338
0.089291
0.0920686
0.0947304
2.98274e-07
2.80903e-06
9.7667e-06
1.44244e-05
1.51353e-05
1.40964e-05
1.02495e-05
8.30893e-06
8.74116e-06
1.8524e-05
8.65927e-05
0.00040274
0.00113536
0.00269345
0.00603086
0.010983
0.0170367
0.0235265
0.0301476
0.036469
0.0420814
0.047033
0.0513179
0.0550419
0.058322
0.0612733
0.0639988
0.0665717
0.0690142
0.0715372
0.0740729
0.0766469
0.0792666
0.0819237
0.0846016
0.0872761
0.0899182
0.0924975
0.0949847
0.0973529
9.56073e-08
4.42635e-07
1.49126e-06
3.27056e-06
3.89392e-06
3.75339e-06
2.93856e-06
3.14761e-06
6.62028e-06
3.61004e-05
0.000202906
0.000632072
0.00171318
0.00418764
0.00872739
0.0146714
0.0214248
0.0284445
0.0351826
0.0414908
0.0472747
0.0521591
0.0563191
0.0599121
0.0630743
0.0659222
0.0685534
0.0709933
0.0733544
0.0758113
0.0782516
0.0807022
0.0831693
0.0856464
0.0881184
0.0905646
0.0929611
0.0952838
0.0975099
0.0996197
3.04445e-08
9.53045e-08
2.83393e-07
7.51552e-07
1.08524e-06
1.12777e-06
1.15151e-06
2.31966e-06
1.28615e-05
8.75913e-05
0.00032588
0.000984686
0.00284131
0.00702552
0.0128602
0.0196456
0.0268519
0.0340294
0.040729
0.0468448
0.0522854
0.0569511
0.0609395
0.0643857
0.0674229
0.0701656
0.0726698
0.0749532
0.0773239
0.0796685
0.0819931
0.084309
0.0866191
0.0889173
0.0911909
0.0934229
0.0955944
0.0976869
0.0996834
0.10157
8.78443e-09
2.10016e-08
5.04294e-08
1.54231e-07
2.88823e-07
3.30315e-07
6.62393e-07
4.02501e-06
3.10179e-05
0.000142417
0.000501136
0.00175118
0.0049917
0.0103423
0.0170351
0.0244105
0.0319205
0.0391513
0.0457828
0.0517171
0.0568866
0.0613276
0.0651342
0.0684313
0.0713443
0.0739756
0.0763142
0.0785404
0.0808521
0.083093
0.0852973
0.0874764
0.0896324
0.0917603
0.0938495
0.0958868
0.0978577
0.0997482
0.101546
0.103241
2.93419e-09
5.65036e-09
1.14164e-08
3.6508e-08
6.84808e-08
1.38653e-07
9.51704e-07
8.75013e-06
5.02862e-05
0.00023814
0.00103884
0.00322441
0.00763125
0.0138204
0.0211335
0.0289008
0.0365829
0.0438042
0.0503281
0.0561
0.061017
0.0652504
0.0688853
0.0720403
0.074831
0.077286
0.0795176
0.0817762
0.0839677
0.0860978
0.0881821
0.0902289
0.0922398
0.0942106
0.0961333
0.0979977
0.0997932
0.101509
0.103137
0.104671
1.40576e-09
2.14117e-09
4.09631e-09
1.0882e-08
2.85737e-08
1.54916e-07
1.63882e-06
1.48515e-05
9.46313e-05
0.000501653
0.00185898
0.00506329
0.0103678
0.0172191
0.0249854
0.0330125
0.0407838
0.0479571
0.054344
0.0599074
0.0646532
0.068713
0.0721953
0.0752233
0.0778595
0.0801248
0.0824166
0.0845911
0.0866819
0.0887064
0.0906771
0.0926007
0.0944788
0.0963085
0.098084
0.0997977
0.101442
0.103009
0.104493
0.10589
3.17971e-10
6.83896e-10
1.71675e-09
5.06906e-09
2.9149e-08
3.47815e-07
3.93188e-06
3.12586e-05
0.000204936
0.000918859
0.002931
0.00702039
0.0129914
0.0203562
0.0284672
0.0366784
0.0444947
0.0516035
0.0578484
0.0631702
0.0678193
0.0717336
0.075083
0.0779843
0.0804312
0.0826635
0.0849223
0.0870221
0.0890235
0.090951
0.0928176
0.0946297
0.0963893
0.0980949
0.0997424
0.101327
0.102842
0.104283
0.105646
0.106928
7.42534e-11
2.14114e-10
7.53887e-10
4.47435e-09
5.87917e-08
8.39486e-07
8.90693e-06
6.91195e-05
0.000380495
0.00145661
0.00410304
0.00883138
0.0153429
0.0231282
0.0315205
0.0398757
0.0477173
0.0547626
0.0609024
0.0661107
0.0705694
0.0743443
0.07757
0.0802757
0.0826277
0.0849323
0.0870877
0.089108
0.0910274
0.0928676
0.094641
0.0963544
0.0980104
0.0996084
0.101146
0.10262
0.104026
0.105361
0.106623
0.107809
2.40666e-11
7.83377e-11
6.09181e-10
8.98113e-09
1.47803e-07
1.95178e-06
1.83812e-05
0.000128239
0.000596569
0.00200696
0.00517309
0.0103953
0.0173584
0.0255037
0.0341385
0.0426166
0.0504754
0.0574601
0.0634959
0.0685985
0.0729228
0.0765827
0.0796485
0.0821573
0.0846118
0.0868534
0.0889335
0.0908825
0.0927286
0.0944915
0.0961833
0.0978109
0.0993775
0.100884
0.102328
0.103709
0.105024
0.106271
0.107448
0.108554
2.30794e-11
1.48866e-10
2.04723e-09
3.08025e-08
4.0819e-07
4.37269e-06
3.54266e-05
0.000197411
0.000803993
0.00248893
0.00606435
0.0116894
0.0190357
0.0274946
0.0363431
0.0449292
0.0528042
0.0597339
0.0656478
0.070691
0.0749142
0.078463
0.0813366
0.0838279
0.0862771
0.0884699
0.0904901
0.0923775
0.0941598
0.0958558
0.0974773
0.0990315
0.100522
0.101951
0.103317
0.10462
0.105859
0.107032
0.108139
0.109179
4.71636e-11
4.47536e-10
6.5763e-09
8.64622e-08
9.39534e-07
8.36432e-06
5.38027e-05
0.000261169
0.000979841
0.00288192
0.00677599
0.0127324
0.0204033
0.0291337
0.0381702
0.0468531
0.0547464
0.0616401
0.0675031
0.072445
0.0765834
0.0799723
0.0826864
0.0853087
0.0876773
0.0898187
0.0917876
0.0936226
0.0953505
0.0969895
0.0985515
0.100044
0.101471
0.102835
0.104136
0.105375
0.106551
0.107664
0.108714
0.1097
9.02158e-11
9.44031e-10
1.40348e-08
1.70731e-07
1.67658e-06
1.25831e-05
7.10027e-05
0.000316041
0.0011231
0.00319386
0.00732853
0.0135548
0.0214967
0.0304584
0.0396576
0.0484266
0.0563396
0.0632073
0.0690198
0.0738901
0.0779423
0.0811553
0.0838689
0.0865038
0.0888279
0.0909262
0.0928523
0.0946434
0.0963259
0.0979175
0.0994301
0.100871
0.102246
0.103557
0.104806
0.105993
0.107118
0.108182
0.109184
0.110127
1.41934e-10
1.52439e-09
2.27573e-08
2.66685e-07
2.41436e-06
1.64954e-05
8.59622e-05
0.000361395
0.0012367
0.00343527
0.007748
0.0141878
0.0223502
0.0315042
0.0408408
0.049684
0.0576159
0.0644643
0.0702367
0.0750598
0.079001
0.0820241
0.0849016
0.0874685
0.0897524
0.0918151
0.0937062
0.0954617
0.0971073
0.0986605
0.100133
0.101533
0.102866
0.104135
0.105341
0.106486
0.107571
0.108596
0.109562
0.110469
1.91219e-10
2.05785e-09
3.06895e-08
3.53291e-07
3.07089e-06
1.98313e-05
9.82313e-05
0.00039727
0.00132363
0.00361552
0.00805762
0.0146595
0.0229942
0.0323017
0.0417495
0.0506539
0.0586026
0.0654354
0.0711785
0.0759637
0.0797922
0.0827549
0.0856721
0.0882128
0.0904683
0.0925036
0.0943673
0.096095
0.0977117
0.0992348
0.100676
0.102045
0.103345
0.104581
0.105755
0.106868
0.107922
0.108917
0.109854
0.110734
2.3041e-10
2.46579e-09
3.67063e-08
4.20999e-07
3.59069e-06
2.24148e-05
0.000107513
0.000423788
0.00138638
0.00374304
0.00827487
0.0149926
0.0234538
0.0328762
0.0424083
0.0513596
0.0593215
0.0661412
0.071866
0.0766224
0.0803608
0.0833027
0.0862267
0.0887533
0.0909899
0.0930055
0.0948493
0.0965565
0.0981519
0.0996531
0.101072
0.102417
0.103694
0.104906
0.106056
0.107146
0.108177
0.10915
0.110067
0.110928
2.56745e-10
2.72534e-09
4.04905e-08
4.65709e-07
3.94186e-06
2.4143e-05
0.000113644
0.00044106
0.00142665
0.00382383
0.00841194
0.0152037
0.0237473
0.0332455
0.0428339
0.0518166
0.0597881
0.0666049
0.0723157
0.0770467
0.0807253
0.0836605
0.0865838
0.0891022
0.0913272
0.0933302
0.0951611
0.0968549
0.0984366
0.0999235
0.101328
0.102658
0.103919
0.105116
0.106251
0.107326
0.108342
0.109301
0.110205
0.111053
2.68494e-10
2.84149e-09
4.21986e-08
4.86352e-07
4.10309e-06
2.49304e-05
0.000116427
0.000448837
0.00144464
0.00385971
0.0084728
0.0152978
0.0238787
0.0334115
0.0430255
0.0520225
0.0599986
0.0668138
0.0725198
0.0772368
0.0808884
0.0838219
0.0867442
0.089259
0.0914788
0.0934763
0.0953014
0.0969892
0.0985647
0.100045
0.101443
0.102766
0.10402
0.10521
0.106338
0.107406
0.108416
0.109369
0.110267
0.11111
0.121717
0.121719
0.12172
0.121721
0.121722
0.121723
0.121724
0.121725
0.121726
0.121727
0.121728
0.121728
0.121729
0.12173
0.121731
0.121731
0.121732
0.121733
0.121733
0.121734
0.121735
0.121735
0.121736
0.121736
0.121737
0.121737
0.121738
0.121738
0.121739
0.121739
0.121739
0.12174
0.12174
0.12174
0.12174
0.12174
0.121741
0.121741
0.121741
0.121741
0.121717
0.121719
0.12172
0.121722
0.121723
0.121724
0.121724
0.121725
0.121726
0.121727
0.121728
0.121729
0.121729
0.12173
0.121731
0.121732
0.121732
0.121733
0.121734
0.121734
0.121735
0.121735
0.121736
0.121736
0.121737
0.121737
0.121738
0.121738
0.121739
0.121739
0.121739
0.12174
0.12174
0.12174
0.12174
0.121741
0.121741
0.121741
0.121741
0.121741
0.121717
0.121719
0.121721
0.121722
0.121723
0.121724
0.121725
0.121725
0.121726
0.121727
0.121728
0.121729
0.121729
0.12173
0.121731
0.121732
0.121732
0.121733
0.121734
0.121734
0.121735
0.121736
0.121736
0.121737
0.121737
0.121738
0.121738
0.121739
0.121739
0.121739
0.12174
0.12174
0.12174
0.12174
0.121741
0.121741
0.121741
0.121741
0.121741
0.121741
0.121717
0.121719
0.121721
0.121722
0.121723
0.121724
0.121725
0.121726
0.121726
0.121727
0.121728
0.121729
0.12173
0.12173
0.121731
0.121732
0.121733
0.121733
0.121734
0.121735
0.121735
0.121736
0.121736
0.121737
0.121737
0.121738
0.121738
0.121739
0.121739
0.12174
0.12174
0.12174
0.12174
0.121741
0.121741
0.121741
0.121741
0.121741
0.121741
0.121741
0.121718
0.121719
0.121721
0.121722
0.121723
0.121724
0.121725
0.121726
0.121727
0.121727
0.121728
0.121729
0.12173
0.121731
0.121731
0.121732
0.121733
0.121733
0.121734
0.121735
0.121735
0.121736
0.121737
0.121737
0.121738
0.121738
0.121739
0.121739
0.121739
0.12174
0.12174
0.12174
0.121741
0.121741
0.121741
0.121741
0.121741
0.121742
0.121742
0.121742
0.121718
0.12172
0.121721
0.121722
0.121723
0.121724
0.121725
0.121726
0.121727
0.121728
0.121728
0.121729
0.12173
0.121731
0.121732
0.121732
0.121733
0.121734
0.121734
0.121735
0.121736
0.121736
0.121737
0.121737
0.121738
0.121738
0.121739
0.121739
0.12174
0.12174
0.12174
0.121741
0.121741
0.121741
0.121741
0.121742
0.121742
0.121742
0.121742
0.121742
0.121718
0.12172
0.121721
0.121722
0.121723
0.121724
0.121725
0.121726
0.121727
0.121728
0.121729
0.121729
0.12173
0.121731
0.121732
0.121732
0.121733
0.121734
0.121735
0.121735
0.121736
0.121736
0.121737
0.121738
0.121738
0.121739
0.121739
0.12174
0.12174
0.12174
0.121741
0.121741
0.121741
0.121741
0.121742
0.121742
0.121742
0.121742
0.121742
0.121742
0.121718
0.12172
0.121721
0.121722
0.121723
0.121724
0.121725
0.121726
0.121727
0.121728
0.121729
0.12173
0.12173
0.121731
0.121732
0.121733
0.121733
0.121734
0.121735
0.121735
0.121736
0.121737
0.121737
0.121738
0.121738
0.121739
0.121739
0.12174
0.12174
0.121741
0.121741
0.121741
0.121741
0.121742
0.121742
0.121742
0.121742
0.121742
0.121742
0.121742
0.121718
0.12172
0.121721
0.121722
0.121723
0.121724
0.121725
0.121726
0.121727
0.121728
0.121729
0.12173
0.121731
0.121731
0.121732
0.121733
0.121734
0.121734
0.121735
0.121736
0.121736
0.121737
0.121738
0.121738
0.121739
0.121739
0.12174
0.12174
0.12174
0.121741
0.121741
0.121741
0.121742
0.121742
0.121742
0.121742
0.121743
0.121743
0.121743
0.121743
0.121718
0.12172
0.121721
0.121723
0.121724
0.121725
0.121726
0.121726
0.121727
0.121728
0.121729
0.12173
0.121731
0.121732
0.121732
0.121733
0.121734
0.121735
0.121735
0.121736
0.121737
0.121737
0.121738
0.121738
0.121739
0.121739
0.12174
0.12174
0.121741
0.121741
0.121741
0.121742
0.121742
0.121742
0.121742
0.121743
0.121743
0.121743
0.121743
0.121743
0.121718
0.12172
0.121722
0.121723
0.121724
0.121725
0.121726
0.121727
0.121727
0.121728
0.121729
0.12173
0.121731
0.121732
0.121733
0.121733
0.121734
0.121735
0.121735
0.121736
0.121737
0.121737
0.121738
0.121739
0.121739
0.12174
0.12174
0.121741
0.121741
0.121741
0.121742
0.121742
0.121742
0.121743
0.121743
0.121743
0.121743
0.121743
0.121743
0.121743
0.121718
0.12172
0.121722
0.121723
0.121724
0.121725
0.121726
0.121727
0.121728
0.121729
0.121729
0.12173
0.121731
0.121732
0.121733
0.121733
0.121734
0.121735
0.121736
0.121736
0.121737
0.121738
0.121738
0.121739
0.121739
0.12174
0.12174
0.121741
0.121741
0.121742
0.121742
0.121742
0.121743
0.121743
0.121743
0.121743
0.121743
0.121743
0.121744
0.121744
0.121718
0.12172
0.121722
0.121723
0.121724
0.121725
0.121726
0.121727
0.121728
0.121729
0.12173
0.12173
0.121731
0.121732
0.121733
0.121734
0.121734
0.121735
0.121736
0.121737
0.121737
0.121738
0.121738
0.121739
0.12174
0.12174
0.121741
0.121741
0.121742
0.121742
0.121742
0.121743
0.121743
0.121743
0.121743
0.121743
0.121744
0.121744
0.121744
0.121744
0.121719
0.12172
0.121722
0.121723
0.121724
0.121725
0.121726
0.121727
0.121728
0.121729
0.12173
0.121731
0.121731
0.121732
0.121733
0.121734
0.121735
0.121735
0.121736
0.121737
0.121737
0.121738
0.121739
0.121739
0.12174
0.12174
0.121741
0.121741
0.121742
0.121742
0.121743
0.121743
0.121743
0.121743
0.121744
0.121744
0.121744
0.121744
0.121744
0.121744
0.121719
0.121721
0.121722
0.121723
0.121724
0.121725
0.121726
0.121727
0.121728
0.121729
0.12173
0.121731
0.121732
0.121732
0.121733
0.121734
0.121735
0.121736
0.121736
0.121737
0.121738
0.121738
0.121739
0.12174
0.12174
0.121741
0.121741
0.121742
0.121742
0.121742
0.121743
0.121743
0.121743
0.121744
0.121744
0.121744
0.121744
0.121744
0.121744
0.121744
0.121719
0.121721
0.121722
0.121723
0.121724
0.121725
0.121726
0.121727
0.121728
0.121729
0.12173
0.121731
0.121732
0.121733
0.121733
0.121734
0.121735
0.121736
0.121737
0.121737
0.121738
0.121739
0.121739
0.12174
0.12174
0.121741
0.121741
0.121742
0.121742
0.121743
0.121743
0.121743
0.121744
0.121744
0.121744
0.121744
0.121745
0.121745
0.121745
0.121745
0.121719
0.121721
0.121722
0.121723
0.121724
0.121726
0.121726
0.121727
0.121728
0.121729
0.12173
0.121731
0.121732
0.121733
0.121734
0.121734
0.121735
0.121736
0.121737
0.121737
0.121738
0.121739
0.121739
0.12174
0.121741
0.121741
0.121742
0.121742
0.121743
0.121743
0.121743
0.121744
0.121744
0.121744
0.121744
0.121745
0.121745
0.121745
0.121745
0.121745
0.121719
0.121721
0.121722
0.121724
0.121725
0.121726
0.121727
0.121728
0.121729
0.121729
0.12173
0.121731
0.121732
0.121733
0.121734
0.121735
0.121735
0.121736
0.121737
0.121738
0.121738
0.121739
0.12174
0.12174
0.121741
0.121741
0.121742
0.121742
0.121743
0.121743
0.121744
0.121744
0.121744
0.121745
0.121745
0.121745
0.121745
0.121745
0.121745
0.121745
0.121719
0.121721
0.121722
0.121724
0.121725
0.121726
0.121727
0.121728
0.121729
0.12173
0.121731
0.121731
0.121732
0.121733
0.121734
0.121735
0.121736
0.121736
0.121737
0.121738
0.121739
0.121739
0.12174
0.121741
0.121741
0.121742
0.121742
0.121743
0.121743
0.121744
0.121744
0.121744
0.121745
0.121745
0.121745
0.121745
0.121745
0.121745
0.121746
0.121746
0.121719
0.121721
0.121723
0.121724
0.121725
0.121726
0.121727
0.121728
0.121729
0.12173
0.121731
0.121732
0.121733
0.121733
0.121734
0.121735
0.121736
0.121737
0.121737
0.121738
0.121739
0.12174
0.12174
0.121741
0.121741
0.121742
0.121742
0.121743
0.121743
0.121744
0.121744
0.121745
0.121745
0.121745
0.121745
0.121746
0.121746
0.121746
0.121746
0.121746
0.121719
0.121721
0.121723
0.121724
0.121725
0.121726
0.121727
0.121728
0.121729
0.12173
0.121731
0.121732
0.121733
0.121734
0.121734
0.121735
0.121736
0.121737
0.121738
0.121738
0.121739
0.12174
0.12174
0.121741
0.121742
0.121742
0.121743
0.121743
0.121744
0.121744
0.121744
0.121745
0.121745
0.121745
0.121746
0.121746
0.121746
0.121746
0.121746
0.121746
0.121719
0.121721
0.121723
0.121724
0.121725
0.121726
0.121727
0.121728
0.121729
0.12173
0.121731
0.121732
0.121733
0.121734
0.121735
0.121735
0.121736
0.121737
0.121738
0.121739
0.121739
0.12174
0.121741
0.121741
0.121742
0.121742
0.121743
0.121744
0.121744
0.121744
0.121745
0.121745
0.121745
0.121746
0.121746
0.121746
0.121746
0.121746
0.121746
0.121746
0.12172
0.121721
0.121723
0.121724
0.121725
0.121726
0.121727
0.121728
0.121729
0.12173
0.121731
0.121732
0.121733
0.121734
0.121735
0.121736
0.121737
0.121737
0.121738
0.121739
0.12174
0.12174
0.121741
0.121742
0.121742
0.121743
0.121743
0.121744
0.121744
0.121745
0.121745
0.121745
0.121746
0.121746
0.121746
0.121746
0.121747
0.121747
0.121747
0.121747
0.12172
0.121722
0.121723
0.121724
0.121725
0.121726
0.121727
0.121728
0.121729
0.12173
0.121731
0.121732
0.121733
0.121734
0.121735
0.121736
0.121737
0.121738
0.121738
0.121739
0.12174
0.121741
0.121741
0.121742
0.121742
0.121743
0.121744
0.121744
0.121745
0.121745
0.121745
0.121746
0.121746
0.121746
0.121747
0.121747
0.121747
0.121747
0.121747
0.121747
0.12172
0.121722
0.121723
0.121724
0.121725
0.121727
0.121728
0.121729
0.12173
0.121731
0.121732
0.121732
0.121733
0.121734
0.121735
0.121736
0.121737
0.121738
0.121739
0.121739
0.12174
0.121741
0.121741
0.121742
0.121743
0.121743
0.121744
0.121744
0.121745
0.121745
0.121746
0.121746
0.121746
0.121747
0.121747
0.121747
0.121747
0.121747
0.121747
0.121747
0.12172
0.121722
0.121723
0.121724
0.121726
0.121727
0.121728
0.121729
0.12173
0.121731
0.121732
0.121733
0.121734
0.121734
0.121735
0.121736
0.121737
0.121738
0.121739
0.12174
0.12174
0.121741
0.121742
0.121742
0.121743
0.121744
0.121744
0.121745
0.121745
0.121746
0.121746
0.121746
0.121747
0.121747
0.121747
0.121747
0.121747
0.121748
0.121748
0.121748
0.12172
0.121722
0.121723
0.121725
0.121726
0.121727
0.121728
0.121729
0.12173
0.121731
0.121732
0.121733
0.121734
0.121735
0.121736
0.121736
0.121737
0.121738
0.121739
0.12174
0.121741
0.121741
0.121742
0.121743
0.121743
0.121744
0.121744
0.121745
0.121745
0.121746
0.121746
0.121747
0.121747
0.121747
0.121747
0.121748
0.121748
0.121748
0.121748
0.121748
0.12172
0.121722
0.121723
0.121725
0.121726
0.121727
0.121728
0.121729
0.12173
0.121731
0.121732
0.121733
0.121734
0.121735
0.121736
0.121737
0.121738
0.121738
0.121739
0.12174
0.121741
0.121741
0.121742
0.121743
0.121743
0.121744
0.121745
0.121745
0.121746
0.121746
0.121746
0.121747
0.121747
0.121747
0.121748
0.121748
0.121748
0.121748
0.121748
0.121748
0.12172
0.121722
0.121723
0.121725
0.121726
0.121727
0.121728
0.121729
0.12173
0.121731
0.121732
0.121733
0.121734
0.121735
0.121736
0.121737
0.121738
0.121739
0.121739
0.12174
0.121741
0.121742
0.121742
0.121743
0.121744
0.121744
0.121745
0.121745
0.121746
0.121746
0.121747
0.121747
0.121747
0.121748
0.121748
0.121748
0.121748
0.121749
0.121749
0.121749
0.12172
0.121722
0.121724
0.121725
0.121726
0.121727
0.121728
0.121729
0.12173
0.121731
0.121732
0.121733
0.121734
0.121735
0.121736
0.121737
0.121738
0.121739
0.12174
0.12174
0.121741
0.121742
0.121743
0.121743
0.121744
0.121745
0.121745
0.121746
0.121746
0.121747
0.121747
0.121747
0.121748
0.121748
0.121748
0.121749
0.121749
0.121749
0.121749
0.121749
0.12172
0.121722
0.121724
0.121725
0.121726
0.121727
0.121728
0.121729
0.12173
0.121731
0.121732
0.121733
0.121734
0.121735
0.121736
0.121737
0.121738
0.121739
0.12174
0.121741
0.121741
0.121742
0.121743
0.121744
0.121744
0.121745
0.121745
0.121746
0.121746
0.121747
0.121747
0.121748
0.121748
0.121748
0.121749
0.121749
0.121749
0.121749
0.121749
0.121749
0.12172
0.121722
0.121724
0.121725
0.121726
0.121727
0.121728
0.121729
0.121731
0.121732
0.121733
0.121734
0.121735
0.121736
0.121737
0.121737
0.121738
0.121739
0.12174
0.121741
0.121742
0.121742
0.121743
0.121744
0.121745
0.121745
0.121746
0.121746
0.121747
0.121747
0.121748
0.121748
0.121748
0.121749
0.121749
0.121749
0.121749
0.121749
0.12175
0.12175
0.12172
0.121722
0.121724
0.121725
0.121726
0.121727
0.121729
0.12173
0.121731
0.121732
0.121733
0.121734
0.121735
0.121736
0.121737
0.121738
0.121739
0.121739
0.12174
0.121741
0.121742
0.121743
0.121743
0.121744
0.121745
0.121745
0.121746
0.121747
0.121747
0.121748
0.121748
0.121748
0.121749
0.121749
0.121749
0.121749
0.12175
0.12175
0.12175
0.12175
0.12172
0.121722
0.121724
0.121725
0.121726
0.121728
0.121729
0.12173
0.121731
0.121732
0.121733
0.121734
0.121735
0.121736
0.121737
0.121738
0.121739
0.12174
0.121741
0.121741
0.121742
0.121743
0.121744
0.121744
0.121745
0.121746
0.121746
0.121747
0.121747
0.121748
0.121748
0.121749
0.121749
0.121749
0.12175
0.12175
0.12175
0.12175
0.12175
0.12175
0.121721
0.121723
0.121724
0.121725
0.121726
0.121728
0.121729
0.12173
0.121731
0.121732
0.121733
0.121734
0.121735
0.121736
0.121737
0.121738
0.121739
0.12174
0.121741
0.121742
0.121742
0.121743
0.121744
0.121745
0.121745
0.121746
0.121747
0.121747
0.121748
0.121748
0.121749
0.121749
0.121749
0.12175
0.12175
0.12175
0.12175
0.12175
0.12175
0.121751
0.121721
0.121723
0.121724
0.121725
0.121727
0.121728
0.121729
0.12173