/*--------------------------------*- C++ -*----------------------------------*\
| =========                 |                                                 |
| \\      /  F ield         | OpenFOAM: The Open Source CFD Toolbox           |
|  \\    /   O peration     | Version:  2.3.0                                 |
|   \\  /    A nd           | Web:      www.OpenFOAM.org                      |
|    \\/     M anipulation  |                                                 |
\*---------------------------------------------------------------------------*/
FoamFile
{
    version     2.0;
    format      ascii;
    class       volScalarField;
    location    "20";
    object      k;
}
// * * * * * * * * * * * * * * * * * * * * * * * * * * * * * * * * * * * * * //

dimensions      [0 2 -2 0 0 0 0];

internalField   nonuniform List<scalar> 
26600
(
0.0912693
0.32003
0.61887
0.900181
1.13435
1.30701
1.42814
1.50678
1.5617
1.6031
1.64486
1.68684
1.73566
1.77927
1.82691
1.87704
1.92622
1.9712
2.0119
2.0457
2.07503
2.09645
2.11531
2.12878
2.13834
2.14387
2.14489
2.14367
2.14136
2.13788
2.13363
2.12897
2.12398
2.11927
2.11517
2.11246
2.11054
2.10887
2.10316
2.20344
0.0453651
0.0569191
0.0751141
0.100244
0.132044
0.179697
0.257644
0.386292
0.569522
0.78081
0.999951
1.20181
1.37379
1.51285
1.61983
1.69683
1.75209
1.78604
1.80795
1.81584
1.81591
1.8075
1.79311
1.76809
1.74163
1.70779
1.67344
1.63476
1.59787
1.56204
1.52132
1.48741
1.45722
1.42669
1.40282
1.37272
1.35682
1.32302
1.30679
1.1827
0.0647857
0.0917099
0.133789
0.181149
0.24414
0.382755
0.604447
0.86835
1.12863
1.3657
1.57344
1.74498
1.87158
1.95938
2.01237
2.03996
2.05031
2.04697
2.03677
2.01878
1.99259
1.95446
1.92142
1.89065
1.83105
1.78861
1.75056
1.70481
1.65775
1.61427
1.57728
1.53761
1.50059
1.46605
1.42805
1.3881
1.36183
1.32727
1.30804
1.19433
0.0549168
0.0865053
0.142866
0.199564
0.318507
0.563883
0.857971
1.16948
1.4514
1.68978
1.88495
2.0272
2.10824
2.14995
2.16012
2.15484
2.14103
2.1172
2.08605
2.05248
2.0136
1.96589
1.94871
1.91912
1.85833
1.80465
1.74765
1.69205
1.64657
1.60876
1.58129
1.54977
1.51495
1.48335
1.43725
1.40713
1.38929
1.35528
1.34801
1.27127
0.049837
0.10439
0.168786
0.258851
0.46508
0.781132
1.12176
1.45339
1.72399
1.93297
2.08026
2.16238
2.19481
2.19655
2.18188
2.158
2.12228
2.08032
2.04063
1.9925
1.97135
1.9293
1.90313
1.88787
1.83707
1.77791
1.69851
1.62686
1.58121
1.55852
1.55028
1.54275
1.52185
1.5029
1.47868
1.47532
1.47991
1.48534
1.50485
1.39282
0.0519569
0.115913
0.181241
0.321157
0.626021
0.9966
1.36146
1.68124
1.90701
2.0526
2.14473
2.17484
2.16487
2.13932
2.08819
2.0562
2.01091
1.95112
1.92568
1.88652
1.85983
1.82759
1.81452
1.85865
1.82828
1.75493
1.65789
1.61772
1.59953
1.60382
1.63449
1.67864
1.70332
1.73829
1.79835
1.87352
2.0243
2.16952
2.41868
1.99011
0.0633775
0.114328
0.209643
0.437926
0.820273
1.21267
1.56687
1.82413
1.9807
2.06971
2.09908
2.07827
2.0265
1.97919
1.90704
1.8732
1.83679
1.76157
1.73272
1.73012
1.73967
1.69665
1.83203
1.86935
1.85782
1.80309
1.76068
1.77385
1.80348
1.8636
1.98693
2.1895
2.37593
2.72242
3.10249
3.48286
3.98276
4.73203
5.03282
5.54203
0.0566039
0.12094
0.28311
0.630698
1.03641
1.40837
1.69531
1.86782
1.96257
1.97896
1.95373
1.88809
1.79745
1.75058
1.67803
1.61805
1.58165
1.53407
1.53249
1.5754
1.61502
1.68658
1.76664
1.89686
1.97743
2.10041
2.34215
2.65723
2.89809
3.23067
3.70939
4.26269
4.83357
5.45146
5.88954
6.29543
6.58148
6.97794
7.0184
7.40744
0.0561111
0.164577
0.460971
0.85816
1.24256
1.5288
1.72995
1.80899
1.82761
1.7988
1.71354
1.62456
1.52426
1.44358
1.38018
1.33276
1.29872
1.30564
1.35596
1.45721
1.59289
1.77763
2.10742
2.48345
3.025
3.75885
4.24758
4.60383
4.9086
5.27698
5.74946
6.07151
6.31817
6.50474
6.49757
6.46622
6.39529
6.29032
6.08558
6.39243
0.0671311
0.283293
0.700431
1.07133
1.36084
1.5587
1.65393
1.64251
1.60213
1.52846
1.39252
1.28814
1.17953
1.09099
1.02501
1.03603
1.08888
1.20897
1.44444
1.70953
2.26418
2.96443
3.52917
4.08338
4.51555
4.71097
4.70163
4.70538
4.80777
4.83079
4.81327
4.77001
4.67201
4.47587
4.22366
4.04623
3.86284
3.76997
3.73905
3.9684
0.106514
0.501928
0.902188
1.1857
1.38106
1.47096
1.46055
1.39361
1.2765
1.18755
0.998844
0.870714
0.749731
0.756764
0.817046
0.957261
1.22029
1.74693
2.4185
2.78767
3.59859
3.71698
3.58636
3.20365
2.6946
2.33138
2.12369
2.04877
2.03814
2.04195
2.05786
2.07569
2.07759
2.05685
2.03819
2.03534
2.03019
2.04528
2.07698
2.24176
0.208583
0.679237
1.0031
1.20124
1.27079
1.24763
1.17585
1.04219
0.862431
0.718524
0.540529
0.517151
0.560605
0.70208
1.01075
1.73184
2.06721
2.70154
2.71937
2.5287
2.05397
1.42507
1.06618
0.899703
0.862295
0.870042
0.894545
0.940142
0.986466
1.0338
1.08497
1.13717
1.18651
1.22854
1.26557
1.29946
1.32359
1.35594
1.37461
1.43285
0.312005
0.753637
1.00967
1.08124
1.04634
0.921331
0.773308
0.58109
0.398855
0.332539
0.355085
0.452467
0.721919
1.39456
1.81808
2.10175
1.88668
1.39229
0.862571
0.60351
0.499149
0.496501
0.514624
0.557768
0.615011
0.669821
0.726464
0.781633
0.830953
0.877742
0.925453
0.971931
1.01114
1.04377
1.07008
1.09054
1.10298
1.11293
1.11022
1.11233
0.34744
0.751351
0.876059
0.850191
0.752667
0.520053
0.318653
0.213658
0.212292
0.260503
0.43085
0.968213
1.37872
1.66969
1.3958
0.747096
0.449395
0.328977
0.315297
0.330174
0.367506
0.443672
0.526533
0.611641
0.688036
0.751358
0.802652
0.844124
0.878126
0.909407
0.940139
0.969143
0.993758
1.0118
1.02288
1.02759
1.02605
1.01901
1.00201
0.982391
0.344068
0.607022
0.610412
0.532776
0.333247
0.188177
0.131211
0.138986
0.203883
0.528825
0.919802
1.3552
1.16171
0.607628
0.331323
0.221647
0.2263
0.247555
0.297418
0.395631
0.517032
0.628041
0.718121
0.790584
0.847327
0.88943
0.920382
0.942522
0.958808
0.972875
0.98621
0.997974
1.0059
1.00888
1.00741
1.00084
0.98812
0.970366
0.946051
0.918905
0.262951
0.303368
0.259871
0.169216
0.101318
0.0935693
0.109176
0.204218
0.558837
1.01283
1.00232
0.651736
0.295941
0.178542
0.167601
0.1811
0.223195
0.324404
0.47223
0.610374
0.729802
0.824886
0.895604
0.946218
0.981594
1.00327
1.01578
1.02098
1.02203
1.02134
1.01969
1.01701
1.01252
1.00461
0.992885
0.977147
0.957112
0.933191
0.905139
0.875608
0.110343
0.0974206
0.071687
0.0575643
0.0627492
0.0998315
0.231071
0.612925
0.937512
0.783515
0.387235
0.189517
0.134811
0.14004
0.157507
0.218314
0.360592
0.540107
0.697436
0.828084
0.929562
1.00013
1.04512
1.07063
1.08356
1.08432
1.07918
1.06859
1.05658
1.04395
1.03203
1.01969
1.00573
0.989369
0.970362
0.948625
0.924005
0.89691
0.867697
0.83836
0.0462845
0.0441033
0.0434888
0.049945
0.111429
0.334306
0.609433
0.792632
0.599941
0.268175
0.14192
0.117728
0.124137
0.14252
0.212804
0.380459
0.591294
0.778576
0.922676
1.02583
1.09483
1.13458
1.15206
1.15206
1.14373
1.12653
1.10625
1.08545
1.06489
1.04419
1.02458
1.00478
0.984115
0.962261
0.938873
0.913811
0.887127
0.859331
0.830901
0.803267
0.0435547
0.0412993
0.0526041
0.120374
0.458022
0.762469
0.708356
0.442319
0.196385
0.117449
0.104736
0.110258
0.133121
0.213847
0.400516
0.635697
0.84761
1.0077
1.11454
1.17958
1.21169
1.21886
1.21006
1.18931
1.1643
1.13608
1.10673
1.07786
1.05022
1.02403
0.999325
0.974889
0.950458
0.925775
0.900455
0.874404
0.847642
0.820817
0.794436
0.769465
0.10569
0.103159
0.186309
0.557506
0.960636
0.796054
0.332825
0.142707
0.0937954
0.0911539
0.097798
0.125856
0.215706
0.41619
0.667719
0.901381
1.07757
1.19102
1.25338
1.27746
1.27454
1.25612
1.22737
1.19313
1.15648
1.11921
1.0831
1.04917
1.01767
0.988461
0.961081
0.934679
0.908912
0.883461
0.858016
0.832618
0.807378
0.782879
0.759328
0.7374
0.113535
0.250308
0.902574
1.03707
0.792025
0.301435
0.131515
0.0851264
0.0817526
0.089801
0.122508
0.216921
0.422889
0.685715
0.939942
1.13285
1.25476
1.31412
1.33124
1.32133
1.29524
1.25813
1.21471
1.16921
1.12453
1.0819
1.04221
1.00602
0.973131
0.942982
0.915061
0.888728
0.863339
0.83862
0.814522
0.791096
0.768485
0.746962
0.726517
0.707662
0.0407143
0.0665863
0.121774
0.122565
0.10081
0.0793348
0.0741333
0.0784474
0.0964632
0.140106
0.235306
0.431947
0.693319
0.965641
1.1748
1.30297
1.36072
1.37225
1.35933
1.32765
1.28242
1.23071
1.17725
1.12506
1.07622
1.03146
0.990925
0.954679
0.92216
0.892749
0.865931
0.840936
0.817168
0.794413
0.77265
0.751888
0.732187
0.713698
0.696417
0.680585
0.048944
0.0534471
0.0593145
0.0689631
0.0733594
0.0775813
0.0870699
0.112674
0.174872
0.273416
0.451069
0.703913
0.98136
1.20397
1.33227
1.38931
1.40082
1.38742
1.35187
1.30075
1.24266
1.1823
1.12359
1.06867
1.01881
0.974315
0.93497
0.900277
0.869481
0.842089
0.817297
0.794371
0.773001
0.752905
0.733942
0.716087
0.699325
0.683779
0.66944
0.656375
0.0468447
0.0563988
0.0621854
0.0771977
0.0919232
0.104515
0.128043
0.184154
0.307801
0.487871
0.729927
1.0015
1.21905
1.34275
1.39931
1.41524
1.40304
1.36602
1.31261
1.25058
1.18564
1.12161
1.06138
1.00675
0.958197
0.915669
0.878763
0.846719
0.818602
0.793846
0.771582
0.751265
0.732623
0.715363
0.699293
0.684287
0.67034
0.657509
0.645767
0.635094
0.0466365
0.051898
0.0651005
0.100421
0.135948
0.162987
0.210404
0.32498
0.540856
0.784796
1.02991
1.21525
1.33233
1.38999
1.41055
1.40079
1.36767
1.31664
1.25429
1.18716
1.11985
1.05568
0.996631
0.944309
0.898716
0.859383
0.825637
0.796668
0.771667
0.749807
0.730344
0.712832
0.696942
0.682402
0.669016
0.656653
0.645248
0.634801
0.62529
0.616638
0.0467542
0.0551128
0.0749204
0.139323
0.232657
0.299735
0.399815
0.616042
0.859203
1.05094
1.19777
1.29748
1.35995
1.38167
1.37577
1.35093
1.30716
1.25064
1.18578
1.11815
1.05174
0.989723
0.933924
0.885181
0.843324
0.807683
0.777447
0.751774
0.729908
0.710967
0.694301
0.679489
0.666181
0.654125
0.643131
0.633056
0.623813
0.615374
0.60772
0.600768
0.0452186
0.0654098
0.119368
0.308333
0.494724
0.601102
0.745295
0.925887
1.06235
1.16048
1.24546
1.30154
1.32369
1.32318
1.31056
1.28143
1.23634
1.17936
1.11533
1.04956
0.98608
0.927772
0.876121
0.831493
0.793628
0.76178
0.735135
0.712782
0.693857
0.677624
0.663534
0.65115
0.640144
0.630256
0.621295
0.613134
0.605691
0.598913
0.592776
0.587221
0.0916031
0.144873
0.37592
0.719598
0.86222
0.902876
0.954576
1.0437
1.11474
1.16694
1.2023
1.22725
1.24104
1.24354
1.23455
1.20861
1.16541
1.11014
1.04836
0.985677
0.926072
0.871992
0.824663
0.78428
0.750407
0.722232
0.698933
0.67959
0.663353
0.649569
0.637746
0.62747
0.618419
0.610335
0.603049
0.596451
0.590465
0.585039
0.58014
0.575723
0.0997102
0.341302
0.800549
0.984632
1.00674
0.982391
0.981239
1.01415
1.032
1.05125
1.08403
1.11989
1.14912
1.16473
1.16258
1.14111
1.10027
1.04712
0.988087
0.928852
0.8732
0.823302
0.780202
0.743836
0.713659
0.688863
0.668546
0.651829
0.637945
0.626292
0.616407
0.607895
0.600445
0.593832
0.587908
0.582568
0.577744
0.573395
0.569492
0.565999
0.0667849
0.329764
0.716417
0.839412
0.823936
0.788795
0.794603
0.813204
0.840042
0.890433
0.958282
1.02205
1.07085
1.09847
1.10203
1.08305
1.04382
0.992451
0.935955
0.879879
0.827873
0.781887
0.742614
0.709851
0.682977
0.661137
0.643396
0.628924
0.617034
0.607174
0.598891
0.591815
0.585661
0.580237
0.575403
0.571067
0.567166
0.563668
0.560557
0.557805
0.0445007
0.175763
0.394708
0.452542
0.455195
0.481725
0.521697
0.572705
0.658424
0.763757
0.86638
0.952235
1.01421
1.04857
1.0546
1.03581
0.996959
0.946632
0.892049
0.838669
0.789879
0.747303
0.711362
0.681742
0.657722
0.638365
0.622783
0.610197
0.599971
0.591582
0.584599
0.578676
0.573564
0.569085
0.565115
0.561571
0.558402
0.555581
0.553099
0.550943
0.0419397
0.0768766
0.14145
0.170312
0.206402
0.257908
0.332326
0.437
0.565448
0.697527
0.815916
0.911197
0.978293
1.01416
1.0194
0.998961
0.959264
0.909146
0.855874
0.804671
0.75856
0.718848
0.685739
0.658796
0.637142
0.619832
0.606032
0.595003
0.586136
0.578936
0.572994
0.567992
0.563707
0.559974
0.556683
0.553762
0.551171
0.54889
0.546912
0.54524
0.0427813
0.0515352
0.0694198
0.0931779
0.125131
0.181051
0.272295
0.394238
0.534201
0.673131
0.795444
0.892339
0.958788
0.992326
0.994548
0.971142
0.929672
0.879107
0.826614
0.777062
0.733101
0.69574
0.664998
0.640251
0.620517
0.604877
0.592527
0.58276
0.574989
0.568738
0.563621
0.559349
0.555714
0.552566
0.549807
0.547375
0.54524
0.543387
0.541819
0.540541
0.0437416
0.0467473
0.0585638
0.0832748
0.113528
0.173469
0.267674
0.391027
0.531406
0.670136
0.791783
0.887141
0.950631
0.979833
0.977839
0.950698
0.906927
0.855467
0.803314
0.754958
0.712675
0.67722
0.648412
0.625412
0.607213
0.592919
0.581735
0.572975
0.566076
0.560572
0.556105
0.552405
0.549278
0.546586
0.544241
0.542192
0.540414
0.5389
0.53766
0.536706
0.0441134
0.045803
0.0574355
0.0840671
0.117194
0.184118
0.280739
0.40353
0.541968
0.678402
0.797523
0.889748
0.94931
0.973864
0.967188
0.936086
0.889782
0.837189
0.785068
0.737536
0.696537
0.662604
0.635319
0.613686
0.596701
0.583472
0.57321
0.565244
0.559026
0.554107
0.550145
0.546888
0.544153
0.541812
0.539788
0.538035
0.536535
0.535287
0.534304
0.533607
0.0442108
0.0455448
0.0573716
0.0854309
0.122746
0.196214
0.295848
0.419096
0.556343
0.690871
0.807535
0.896545
0.952024
0.972027
0.960825
0.925948
0.877151
0.823354
0.771073
0.724082
0.684047
0.651302
0.625176
0.604591
0.588547
0.576144
0.566596
0.559245
0.553549
0.549078
0.545503
0.542584
0.540146
0.538073
0.536292
0.534765
0.533477
0.532433
0.531647
0.531149
0.0442506
0.0454183
0.0572174
0.0858215
0.127103
0.206075
0.30882
0.433184
0.570095
0.703505
0.818343
0.904667
0.956578
0.972506
0.957353
0.919162
0.868132
0.813203
0.760668
0.714015
0.674685
0.642821
0.617553
0.597752
0.582412
0.570629
0.561618
0.554727
0.549423
0.545286
0.541999
0.539329
0.537112
0.535237
0.533636
0.532276
0.531145
0.530252
0.529614
0.529265
0.0442867
0.0453336
0.0569078
0.0853239
0.129867
0.213149
0.318609
0.444208
0.581246
0.71414
0.827812
0.91216
0.961296
0.974002
0.955675
0.914825
0.861992
0.806122
0.753329
0.706878
0.668039
0.63679
0.612129
0.592882
0.578041
0.5667
0.558072
0.551508
0.546482
0.542581
0.539498
0.537004
0.534942
0.533206
0.531731
0.530488
0.529468
0.52868
0.528147
0.527899
0.0443454
0.045304
0.0565634
0.0845541
0.131569
0.218012
0.325517
0.452108
0.589409
0.722132
0.835128
0.91815
0.965331
0.975742
0.955143
0.912403
0.858273
0.80171
0.748702
0.702355
0.663821
0.632959
0.60868
0.589783
0.575259
0.5642
0.555818
0.549463
0.544614
0.540864
0.53791
0.535528
0.533564
0.531915
0.53052
0.529349
0.528398
0.527675
0.52721
0.527022
0.0444167
0.0454198
0.0568054
0.0852599
0.13418
0.222722
0.331502
0.458752
0.596316
0.728978
0.841482
0.923527
0.969332
0.978191
0.956092
0.91212
0.85713
0.800065
0.746834
0.700455
0.662008
0.631288
0.607162
0.588412
0.574028
0.563096
0.554824
0.548566
0.543799
0.540119
0.537225
0.534895
0.532976
0.531367
0.530008
0.52887
0.527949
0.527256
0.52682
0.526657
0.443786
0.568536
0.683683
0.773683
0.848663
0.913809
0.971881
1.02448
1.07263
1.117
1.15806
1.19617
1.23161
1.26459
1.29529
1.32386
1.35045
1.37516
1.39812
1.41942
1.43914
1.45739
1.47423
1.48975
1.50401
1.51709
1.52903
1.53989
1.54974
1.5586
1.56654
1.57358
1.57977
1.58513
1.5897
1.5935
1.59656
1.5989
1.60055
1.60154
0.443975
0.57339
0.689293
0.779444
0.854415
0.91952
0.977546
1.03011
1.07821
1.12254
1.16356
1.20164
1.23703
1.26997
1.30063
1.32916
1.3557
1.38036
1.40327
1.42452
1.44419
1.46239
1.47918
1.49465
1.50887
1.52189
1.53379
1.54461
1.55442
1.56325
1.57115
1.57816
1.58432
1.58966
1.59421
1.59799
1.60104
1.60337
1.60501
1.606
0.444715
0.576039
0.693552
0.784748
0.860414
0.925988
0.984347
1.03715
1.08544
1.1299
1.17103
1.20918
1.24463
1.2776
1.30828
1.33681
1.36334
1.38799
1.41087
1.43208
1.45171
1.46987
1.48661
1.50203
1.5162
1.52917
1.54102
1.55179
1.56155
1.57033
1.57819
1.58517
1.59129
1.5966
1.60112
1.60488
1.60791
1.61022
1.61185
1.61283
0.445365
0.579698
0.698273
0.790254
0.866561
0.932667
0.991465
1.04463
1.09322
1.13793
1.17926
1.21757
1.25315
1.28622
1.31697
1.34556
1.37212
1.39679
1.41967
1.44088
1.4605
1.47862
1.49534
1.51072
1.52484
1.53778
1.54958
1.56031
1.57002
1.57877
1.58659
1.59352
1.59962
1.60489
1.60939
1.61312
1.61613
1.61843
1.62006
1.62103
0.446303
0.582934
0.702873
0.79576
0.872762
0.93944
0.998718
1.05229
1.10123
1.14623
1.18781
1.22634
1.26209
1.2953
1.32617
1.35484
1.38147
1.40619
1.4291
1.45032
1.46994
1.48805
1.50475
1.52011
1.53421
1.54711
1.55887
1.56957
1.57924
1.58795
1.59574
1.60264
1.6087
1.61395
1.61842
1.62214
1.62513
1.62742
1.62903
1.63
0.447183
0.586495
0.707626
0.801359
0.879045
0.946295
1.00607
1.06007
1.10937
1.1547
1.19655
1.23531
1.27126
1.30464
1.33563
1.36442
1.39113
1.41591
1.43886
1.46011
1.47974
1.49786
1.51455
1.5299
1.54397
1.55684
1.56858
1.57924
1.58889
1.59756
1.60531
1.61219
1.61822
1.62344
1.62789
1.63159
1.63456
1.63684
1.63845
1.63941
0.448264
0.589961
0.712394
0.807014
0.885395
0.953229
1.0135
1.06794
1.11763
1.16328
1.20542
1.24443
1.28059
1.31414
1.34528
1.37418
1.40098
1.42583
1.44884
1.47012
1.48977
1.5079
1.52459
1.53992
1.55398
1.56683
1.57854
1.58917
1.59878
1.60743
1.61515
1.62199
1.628
1.6332
1.63762
1.6413
1.64426
1.64652
1.64813
1.64909
0.449302
0.593599
0.717267
0.812752
0.891825
0.960246
1.02102
1.0759
1.12597
1.17197
1.2144
1.25366
1.29003
1.32376
1.35505
1.38407
1.41098
1.4359
1.45896
1.48028
1.49995
1.51809
1.53478
1.5501
1.56414
1.57697
1.58866
1.59926
1.60884
1.61746
1.62515
1.63197
1.63794
1.64312
1.64752
1.65118
1.65412
1.65638
1.65797
1.65894
0.450486
0.597232
0.722191
0.818562
0.898337
0.967345
1.02863
1.08396
1.13442
1.18075
1.22348
1.26299
1.29958
1.33349
1.36494
1.39408
1.42108
1.44608
1.4692
1.49055
1.51025
1.5284
1.54509
1.5604
1.57442
1.58723
1.59889
1.60947
1.61902
1.6276
1.63527
1.64205
1.648
1.65315
1.65753
1.66117
1.6641
1.66635
1.66793
1.6689
0.451645
0.600983
0.727207
0.824456
0.904931
0.974532
1.03633
1.0921
1.14296
1.18963
1.23266
1.27242
1.30923
1.34333
1.37492
1.40419
1.43129
1.45636
1.47953
1.50093
1.52065
1.5388
1.55549
1.57079
1.5848
1.59758
1.60921
1.61976
1.62928
1.63784
1.64547
1.65223
1.65815
1.66327
1.66763
1.67125
1.67417
1.6764
1.67798
1.67894
0.452909
0.604763
0.73229
0.830431
0.911611
0.981808
1.04412
1.10034
1.15159
1.19861
1.24193
1.28195
1.31898
1.35326
1.38501
1.4144
1.4416
1.46674
1.48996
1.51139
1.53113
1.5493
1.56598
1.58127
1.59525
1.60801
1.61962
1.63013
1.63962
1.64814
1.65574
1.66247
1.66837
1.67346
1.6778
1.6814
1.6843
1.68652
1.6881
1.68906
0.454165
0.60864
0.737456
0.836489
0.918381
0.989174
1.05201
1.10868
1.16032
1.20768
1.25131
1.29158
1.32883
1.36329
1.39519
1.4247
1.45199
1.47721
1.50048
1.52194
1.5417
1.55987
1.57654
1.59182
1.60578
1.61852
1.63009
1.64057
1.65003
1.65852
1.66608
1.67278
1.67864
1.68372
1.68803
1.69161
1.6945
1.69671
1.69827
1.69923
0.455498
0.612558
0.742697
0.842633
0.92524
0.996635
1.05999
1.11711
1.16915
1.21686
1.26078
1.30132
1.33878
1.37342
1.40547
1.4351
1.46248
1.48777
1.51109
1.53258
1.55235
1.57052
1.58719
1.60245
1.61639
1.62909
1.64063
1.65108
1.6605
1.66895
1.67648
1.68314
1.68898
1.69402
1.69831
1.70187
1.70474
1.70694
1.7085
1.70945
0.456835
0.616561
0.748021
0.848865
0.93219
1.00419
1.06807
1.12565
1.17808
1.22614
1.27036
1.31115
1.34883
1.38365
1.41584
1.44559
1.47306
1.49841
1.52178
1.5433
1.56308
1.58125
1.5979
1.61314
1.62705
1.63972
1.65123
1.66164
1.67102
1.67944
1.68693
1.69356
1.69936
1.70438
1.70864
1.71219
1.71503
1.71722
1.71877
1.71972
0.458229
0.620617
0.753419
0.855182
0.939236
1.01185
1.07624
1.13428
1.18712
1.23552
1.28004
1.32108
1.35897
1.39398
1.42631
1.45617
1.48373
1.50914
1.53255
1.55409
1.57389
1.59205
1.60869
1.6239
1.63778
1.65042
1.66189
1.67226
1.6816
1.68998
1.69744
1.70403
1.7098
1.71478
1.71902
1.72254
1.72537
1.72755
1.72909
1.73004
0.459637
0.624746
0.758902
0.861589
0.946374
1.0196
1.08453
1.14302
1.19626
1.245
1.28982
1.33112
1.36922
1.4044
1.43688
1.46685
1.49449
1.51996
1.54341
1.56497
1.58476
1.60292
1.61954
1.63473
1.64858
1.66118
1.6726
1.68294
1.69224
1.70057
1.70799
1.71454
1.72028
1.72523
1.72944
1.73294
1.73575
1.73791
1.73945
1.7404
0.461089
0.628935
0.764462
0.868084
0.953606
1.02745
1.09291
1.15187
1.2055
1.2546
1.29971
1.34126
1.37957
1.41492
1.44754
1.47761
1.50533
1.53086
1.55434
1.57592
1.59572
1.61386
1.63046
1.64561
1.65943
1.67199
1.68337
1.69366
1.70292
1.71121
1.71858
1.7251
1.7308
1.73572
1.73991
1.74338
1.74618
1.74832
1.74985
1.75079
0.462559
0.633196
0.770103
0.874669
0.960937
1.0354
1.1014
1.16082
1.21486
1.2643
1.3097
1.3515
1.39003
1.42555
1.45829
1.48847
1.51627
1.54185
1.56536
1.58694
1.60674
1.62487
1.64144
1.65656
1.67034
1.68285
1.69419
1.70443
1.71365
1.72189
1.72922
1.7357
1.74136
1.74625
1.75041
1.75386
1.75663
1.75877
1.76028
1.76123
0.464065
0.637516
0.775826
0.881345
0.968364
1.04346
1.10999
1.16988
1.22432
1.2741
1.31981
1.36185
1.40058
1.43627
1.46914
1.49942
1.52729
1.55291
1.57645
1.59805
1.61783
1.63594
1.65248
1.66757
1.6813
1.69377
1.70506
1.71526
1.72442
1.73262
1.73991
1.74634
1.75197
1.75682
1.76095
1.76437
1.76713
1.76925
1.77075
1.7717
0.465593
0.641907
0.78163
0.888112
0.975889
1.05162
1.11869
1.17905
1.23389
1.28402
1.33002
1.37231
1.41124
1.44709
1.48009
1.51047
1.5384
1.56406
1.58762
1.60922
1.629
1.64708
1.66359
1.67863
1.69232
1.70474
1.71598
1.72612
1.73524
1.74338
1.75063
1.75702
1.7626
1.76743
1.77152
1.77492
1.77766
1.77976
1.78126
1.7822
0.467151
0.646362
0.787515
0.89497
0.983514
1.05988
1.1275
1.18833
1.24357
1.29405
1.34033
1.38287
1.422
1.458
1.49113
1.5216
1.54959
1.57529
1.59887
1.62047
1.64022
1.65828
1.67475
1.68975
1.70339
1.71576
1.72695
1.73703
1.74609
1.75419
1.76139
1.76773
1.77328
1.77806
1.78213
1.7855
1.78822
1.7903
1.79179
1.79273
0.468732
0.650882
0.793484
0.901921
0.991238
1.06825
1.13642
1.19771
1.25336
1.30418
1.35076
1.39354
1.43286
1.46902
1.50227
1.53282
1.56087
1.58661
1.61019
1.63178
1.65152
1.66954
1.68597
1.70093
1.71451
1.72682
1.73795
1.74798
1.75699
1.76503
1.77218
1.77848
1.78398
1.78873
1.79276
1.79611
1.7988
1.80088
1.80236
1.80329
0.470341
0.655469
0.799535
0.908966
0.999061
1.07672
1.14544
1.20721
1.26327
1.31443
1.3613
1.40431
1.44383
1.48014
1.5135
1.54413
1.57223
1.598
1.62159
1.64317
1.66288
1.68086
1.69725
1.71215
1.72568
1.73793
1.749
1.75897
1.76792
1.77591
1.78301
1.78926
1.79472
1.79943
1.80343
1.80675
1.80942
1.81148
1.81295
1.81388
0.471972
0.660125
0.805668
0.916103
1.00699
1.0853
1.15458
1.21682
1.27328
1.32479
1.37194
1.41519
1.45489
1.49135
1.52482
1.55553
1.58368
1.60946
1.63306
1.65462
1.6743
1.69224
1.70858
1.72342
1.73689
1.74908
1.76009
1.77
1.77889
1.78682
1.79386
1.80007
1.80549
1.81016
1.81412
1.81741
1.82006
1.8221
1.82357
1.82449
0.47363
0.664844
0.811886
0.923335
1.01501
1.09399
1.16383
1.22655
1.28341
1.33526
1.3827
1.42618
1.46607
1.50267
1.53624
1.56702
1.59521
1.62101
1.6446
1.66614
1.68578
1.70368
1.71996
1.73474
1.74815
1.76028
1.77122
1.78106
1.78989
1.79777
1.80475
1.81091
1.81628
1.82091
1.82484
1.8281
1.83073
1.83276
1.83421
1.83513
0.47531
0.669632
0.818189
0.930662
1.02314
1.10279
1.17319
1.23639
1.29366
1.34585
1.39356
1.43727
1.47734
1.51408
1.54775
1.57859
1.60682
1.63263
1.65621
1.67772
1.69732
1.71517
1.73139
1.74611
1.75945
1.77151
1.78238
1.79216
1.80092
1.80874
1.81567
1.82177
1.8271
1.83169
1.83558
1.83882
1.84142
1.84343
1.84487
1.84579
0.477015
0.67449
0.824574
0.938084
1.03138
1.11169
1.18266
1.24634
1.30401
1.35654
1.40454
1.44848
1.48872
1.52559
1.55935
1.59025
1.61851
1.64433
1.66789
1.68937
1.70892
1.72671
1.74287
1.75752
1.77079
1.78277
1.79358
1.80329
1.81198
1.81974
1.82661
1.83266
1.83794
1.84249
1.84635
1.84955
1.85213
1.85412
1.85555
1.85647
0.478742
0.679412
0.831047
0.945604
1.03972
1.12071
1.19224
1.25641
1.31449
1.36736
1.41563
1.45979
1.5002
1.5372
1.57105
1.602
1.63028
1.65609
1.67963
1.70107
1.72058
1.73831
1.75439
1.76897
1.78217
1.79408
1.80481
1.81445
1.82307
1.83076
1.83757
1.84357
1.8488
1.85331
1.85713
1.8603
1.86286
1.86484
1.86626
1.86717
0.480494
0.684404
0.837605
0.953221
1.04816
1.12983
1.20194
1.26659
1.32508
1.37829
1.42684
1.47121
1.51179
1.5489
1.58284
1.61384
1.64213
1.66794
1.69145
1.71284
1.73229
1.74995
1.76597
1.78047
1.79358
1.80541
1.81607
1.82563
1.83419
1.84181
1.84856
1.8545
1.85968
1.86415
1.86793
1.87108
1.87361
1.87557
1.87698
1.87789
0.482267
0.689467
0.844249
0.960935
1.05671
1.13907
1.21176
1.2769
1.33579
1.38933
1.43815
1.48274
1.52348
1.56071
1.59471
1.62575
1.65406
1.67985
1.70332
1.72467
1.74405
1.76164
1.77758
1.792
1.80503
1.81678
1.82736
1.83684
1.84533
1.85288
1.85957
1.86546
1.87059
1.87501
1.87875
1.88187
1.88438
1.88632
1.88772
1.88863
0.484064
0.694596
0.850983
0.968749
1.06537
1.14842
1.22169
1.28732
1.34662
1.40049
1.44958
1.49437
1.53527
1.57261
1.60668
1.63775
1.66606
1.69183
1.71527
1.73655
1.75587
1.77338
1.78924
1.80357
1.81652
1.82818
1.83867
1.84808
1.85649
1.86397
1.8706
1.87643
1.88151
1.88588
1.88959
1.89267
1.89516
1.89708
1.89847
1.89938
0.485884
0.699797
0.857805
0.976664
1.07414
1.15789
1.23175
1.29786
1.35757
1.41177
1.46112
1.50612
1.54717
1.58461
1.61874
1.64984
1.67815
1.70389
1.72727
1.74849
1.76774
1.78516
1.80093
1.81518
1.82803
1.83961
1.85001
1.85934
1.86767
1.87509
1.88165
1.88742
1.89244
1.89677
1.90044
1.9035
1.90596
1.90786
1.90924
1.91014
0.487726
0.705072
0.864714
0.984679
1.08301
1.16747
1.24192
1.30852
1.36863
1.42317
1.47278
1.51797
1.55917
1.59671
1.63089
1.66201
1.6903
1.71601
1.73934
1.76049
1.77965
1.79699
1.81267
1.82682
1.83958
1.85106
1.86138
1.87062
1.87887
1.88622
1.89271
1.89842
1.9034
1.90768
1.91131
1.91433
1.91677
1.91865
1.92002
1.92092
0.48959
0.710413
0.871716
0.992799
1.092
1.17717
1.25221
1.31931
1.37982
1.43468
1.48455
1.52994
1.57127
1.6089
1.64313
1.67426
1.70254
1.7282
1.75146
1.77254
1.79162
1.80886
1.82444
1.83849
1.85115
1.86254
1.87277
1.88192
1.8901
1.89736
1.90379
1.90944
1.91436
1.9186
1.92219
1.92518
1.92759
1.92946
1.93081
1.93171
0.491477
0.715829
0.878811
1.00102
1.1011
1.187
1.26263
1.33022
1.39114
1.44632
1.49644
1.54202
1.58348
1.62119
1.65546
1.68659
1.71484
1.74045
1.76365
1.78464
1.80363
1.82077
1.83624
1.85019
1.86275
1.87405
1.88418
1.89324
1.90134
1.90853
1.91489
1.92048
1.92534
1.92953
1.93309
1.93604
1.93843
1.94027
1.94162
1.94252
0.493385
0.721323
0.885997
1.00935
1.11032
1.19694
1.27317
1.34125
1.40258
1.45808
1.50845
1.55421
1.5958
1.63358
1.66788
1.69901
1.72722
1.75277
1.77589
1.7968
1.81568
1.83272
1.84809
1.86193
1.87438
1.88557
1.89561
1.90458
1.91259
1.91971
1.926
1.93152
1.93633
1.94048
1.94399
1.94691
1.94927
1.9511
1.95244
1.95333
0.495315
0.726887
0.893281
1.01779
1.11966
1.207
1.28384
1.35242
1.41414
1.46997
1.52058
1.56651
1.60822
1.64607
1.68039
1.7115
1.73968
1.76516
1.7882
1.809
1.82778
1.84471
1.85996
1.87369
1.88604
1.89712
1.90706
1.91594
1.92386
1.9309
1.93712
1.94258
1.94734
1.95143
1.95491
1.9578
1.96013
1.96194
1.96327
1.96416
0.497269
0.732529
0.900662
1.02634
1.12911
1.2172
1.29464
1.36371
1.42584
1.48198
1.53282
1.57893
1.62074
1.65865
1.69299
1.72408
1.7522
1.77761
1.80056
1.82126
1.83992
1.85673
1.87187
1.88548
1.89771
1.90869
1.91852
1.92731
1.93515
1.94211
1.94825
1.95365
1.95835
1.9624
1.96584
1.96869
1.971
1.97279
1.97411
1.975
0.499244
0.738252
0.908141
1.035
1.13869
1.22752
1.30557
1.37514
1.43767
1.49411
1.5452
1.59146
1.63338
1.67134
1.70568
1.73674
1.7648
1.79012
1.81297
1.83356
1.8521
1.86879
1.88381
1.8973
1.90941
1.92028
1.93001
1.9387
1.94645
1.95332
1.9594
1.96474
1.96938
1.97338
1.97677
1.9796
1.98188
1.98366
1.98496
1.98585
0.501243
0.744052
0.915724
1.04378
1.1484
1.23797
1.31664
1.38671
1.44963
1.50638
1.55769
1.60411
1.64612
1.68412
1.71846
1.74948
1.77747
1.8027
1.82544
1.84591
1.86432
1.88089
1.89577
1.90914
1.92114
1.93189
1.94151
1.9501
1.95776
1.96455
1.97056
1.97583
1.98042
1.98437
1.98772
1.99051
1.99277
1.99453
1.99582
1.9967
0.503264
0.749935
0.923411
1.05268
1.15823
1.24856
1.32784
1.39841
1.46173
1.51878
1.57031
1.61688
1.65897
1.697
1.73133
1.7623
1.79021
1.81534
1.83796
1.8583
1.87659
1.89301
1.90777
1.921
1.93288
1.94351
1.95302
1.96152
1.96908
1.9758
1.98172
1.98693
1.99146
1.99537
1.99868
2.00144
2.00367
2.00541
2.00669
2.00757
0.505306
0.755908
0.931204
1.0617
1.1682
1.25929
1.33919
1.41026
1.47396
1.53132
1.58306
1.62977
1.67194
1.70999
1.74429
1.7752
1.80302
1.82804
1.85053
1.87074
1.88889
1.90517
1.91979
1.93289
1.94464
1.95515
1.96455
1.97294
1.98042
1.98705
1.9929
1.99804
2.00252
2.00637
2.00965
2.01237
2.01458
2.0163
2.01757
2.01845
0.507373
0.761964
0.939109
1.07084
1.1783
1.27016
1.35068
1.42225
1.48635
1.54399
1.59594
1.64278
1.68501
1.72307
1.75734
1.78818
1.8159
1.8408
1.86316
1.88322
1.90122
1.91736
1.93183
1.9448
1.95641
1.9668
1.97609
1.98438
1.99176
1.99831
2.00409
2.00916
2.01358
2.01739
2.02062
2.02332
2.0255
2.0272
2.02847
2.02934
0.509476
0.768109
0.947127
1.08012
1.18854
1.28118
1.36233
1.43439
1.49887
1.5568
1.60895
1.65591
1.6982
1.73626
1.77048
1.80123
1.82884
1.85362
1.87583
1.89575
1.91359
1.92958
1.9439
1.95673
1.96821
1.97847
1.98765
1.99583
2.00311
2.00957
2.01528
2.02029
2.02465
2.02841
2.03161
2.03427
2.03643
2.03812
2.03937
2.04025
0.51162
0.774346
0.955259
1.08952
1.19892
1.29234
1.37412
1.44668
1.51155
1.56976
1.62209
1.66917
1.7115
1.74955
1.78371
1.81437
1.84186
1.86649
1.88856
1.90831
1.926
1.94183
1.95599
1.96867
1.98001
1.99015
1.99921
2.00729
2.01448
2.02085
2.02648
2.03143
2.03573
2.03945
2.0426
2.04523
2.04737
2.04904
2.05028
2.05116
0.513763
0.780671
0.963515
1.09907
1.20946
1.30367
1.38608
1.45914
1.52438
1.58286
1.63538
1.68255
1.72492
1.76294
1.79704
1.82759
1.85495
1.87943
1.90133
1.92092
1.93843
1.9541
1.96811
1.98063
1.99184
2.00185
2.01078
2.01875
2.02584
2.03214
2.03769
2.04257
2.04682
2.05049
2.05361
2.05621
2.05832
2.05997
2.06121
2.06208
0.515927
0.787107
0.971899
1.10875
1.22014
1.31515
1.3982
1.47175
1.53737
1.59612
1.6488
1.69606
1.73845
1.77643
1.81045
1.84088
1.8681
1.89242
1.91415
1.93356
1.9509
1.96639
1.98024
1.99261
2.00367
2.01355
2.02236
2.03023
2.03722
2.04343
2.04891
2.05372
2.05792
2.06154
2.06462
2.06719
2.06928
2.07091
2.07214
2.07301
0.518141
0.793641
0.980406
1.11859
1.23099
1.3268
1.41048
1.48453
1.55051
1.60952
1.66237
1.70971
1.7521
1.79003
1.82395
1.85425
1.88131
1.90546
1.92701
1.94624
1.9634
1.97871
1.99239
2.0046
2.01551
2.02526
2.03395
2.04171
2.0486
2.05472
2.06013
2.06488
2.06903
2.0726
2.07564
2.07818
2.08025
2.08187
2.08308
2.08396
0.520363
0.800271
0.989052
1.12857
1.242
1.33862
1.42294
1.49748