/*--------------------------------*- C++ -*----------------------------------*\
| =========                 |                                                 |
| \\      /  F ield         | OpenFOAM: The Open Source CFD Toolbox           |
|  \\    /   O peration     | Version:  2.3.0                                 |
|   \\  /    A nd           | Web:      www.OpenFOAM.org                      |
|    \\/     M anipulation  |                                                 |
\*---------------------------------------------------------------------------*/
FoamFile
{
    version     2.0;
    format      ascii;
    class       volScalarField;
    location    "20";
    object      mut;
}
// * * * * * * * * * * * * * * * * * * * * * * * * * * * * * * * * * * * * * //

dimensions      [1 -1 -1 0 0 0 0];

internalField   nonuniform List<scalar> 
26600
(
3.21941e-05
6.1412e-05
8.70301e-05
0.000106966
0.00012241
0.000133955
0.000142789
0.000149597
0.000155367
0.000160584
0.000165902
0.000171271
0.000176988
0.000182403
0.000187987
0.000193597
0.000199133
0.00020438
0.000209396
0.000213963
0.000218273
0.000222089
0.000225706
0.000229039
0.000232074
0.000234882
0.000237358
0.000239644
0.000241798
0.000243852
0.000245751
0.00024753
0.000249167
0.000250676
0.000252153
0.000253647
0.000255125
0.000256466
0.000257406
0.000263171
0.000275513
9.37266e-05
6.17102e-05
5.60011e-05
6.00411e-05
7.86265e-05
0.000120346
0.000206766
0.000344111
0.000500765
0.000649996
0.000762762
0.000846849
0.000902439
0.000935385
0.000943796
0.000939661
0.000919937
0.000900868
0.000876191
0.000856516
0.000831735
0.000805066
0.000772594
0.000742974
0.000713701
0.000681677
0.000652619
0.000622852
0.00059843
0.000567915
0.000545707
0.000529241
0.000509306
0.000499586
0.000478564
0.000474728
0.00044572
0.000443771
0.000352135
0.00117408
0.000972072
0.000974563
0.000925363
0.000987844
0.00136812
0.00189546
0.00235754
0.00268175
0.00288226
0.00299037
0.0030131
0.00296934
0.00286928
0.0027476
0.00260071
0.00246405
0.00231351
0.00219335
0.00205605
0.00194955
0.00182263
0.00171791
0.00163012
0.00149741
0.00141666
0.00134813
0.00127134
0.00119475
0.0011285
0.00106954
0.00101671
0.000961078
0.000919197
0.000867079
0.000814097
0.000777181
0.000728413
0.000689514
0.000592426
0.0010348
0.00119751
0.00161532
0.00172729
0.0022064
0.00324976
0.00386651
0.00423645
0.00445053
0.00453956
0.00454032
0.0044419
0.00426982
0.00404187
0.00380841
0.0035521
0.00334235
0.00309995
0.00290378
0.00267876
0.00250805
0.00227246
0.00215308
0.00204235
0.00185489
0.00171769
0.00157272
0.00144594
0.0013422
0.00124344
0.00115527
0.00107486
0.000992986
0.000934628
0.000847326
0.000787715
0.000740283
0.000676772
0.000634019
0.000572116
0.00083008
0.00136929
0.00184665
0.00216412
0.0031879
0.00412399
0.00467204
0.00498355
0.00513549
0.00516129
0.00504453
0.00485787
0.00460158
0.00430364
0.00403318
0.00372223
0.00346445
0.00314634
0.00292586
0.00261196
0.00244542
0.00221706
0.00199199
0.00180303
0.00162924
0.00147153
0.001274
0.00111783
0.000992649
0.000896916
0.000810219
0.000731164
0.000660128
0.000598043
0.000531706
0.000484637
0.000435582
0.000395786
0.000350351
0.000367173
0.00085863
0.00155041
0.00177021
0.00240556
0.00382046
0.00453172
0.00500147
0.00523788
0.0052618
0.00515716
0.00497408
0.00470219
0.00435338
0.00402323
0.00363199
0.0033028
0.0030301
0.00263867
0.00245048
0.00215106
0.00190877
0.00160125
0.0013383
0.00119306
0.00106378
0.000905198
0.000744996
0.000640495
0.000551861
0.000480856
0.000432688
0.000386896
0.000353034
0.000318308
0.000279433
0.000259976
0.000245532
0.000237515
0.000236254
0.000257502
0.00116486
0.00135118
0.00178672
0.00294931
0.00419358
0.00476635
0.00510758
0.00516774
0.00507546
0.00488533
0.00453936
0.0041804
0.00369112
0.0033061
0.00284456
0.00255256
0.00228571
0.0018941
0.00160007
0.00137847
0.00115359
0.000943703
0.000732496
0.000642895
0.000541759
0.000438674
0.000354319
0.000279418
0.000239946
0.000214652
0.000206677
0.000200518
0.000201616
0.000209273
0.000220281
0.000226441
0.00024897
0.000287565
0.00031562
0.000344187
0.000920662
0.00123609
0.00211102
0.00379542
0.00442961
0.00486805
0.00497007
0.00495803
0.00468216
0.00430782
0.00387705
0.00333245
0.00274191
0.00238724
0.0020092
0.00162681
0.00132734
0.00105733
0.000864631
0.000698666
0.000579935
0.000456554
0.000366362
0.000285296
0.000221644
0.00018392
0.0001676
0.00016315
0.000159305
0.000172564
0.000195942
0.000223186
0.000256658
0.000293055
0.000327654
0.000364667
0.000393196
0.000444014
0.000468547
0.000516858
0.000831628
0.00144738
0.00318798
0.00430982
0.00461586
0.00474291
0.00474566
0.00448012
0.00396713
0.00357352
0.00293279
0.00228003
0.00185748
0.00140493
0.00107269
0.00081376
0.000602572
0.000453724
0.000321178
0.000255771
0.000195087
0.000161218
0.000142511
0.000131413
0.000140945
0.000167753
0.000193103
0.000221079
0.000245694
0.000269914
0.000304594
0.000331484
0.000364301
0.000398193
0.000421409
0.000451347
0.000495849
0.00052727
0.000572907
0.00060495
0.00088641
0.00228151
0.00428266
0.00460793
0.00455336
0.00453545
0.00420985
0.00375219
0.00309296
0.002608
0.00184068
0.00132194
0.00091042
0.00062018
0.000404914
0.000253792
0.000170437
0.000123902
9.81514e-05
8.93519e-05
9.91143e-05
0.000119309
0.00014647
0.000172822
0.000204651
0.000232913
0.000248472
0.000274727
0.000306708
0.000330218
0.000353731
0.000381945
0.000414
0.000435279
0.000458311
0.000485644
0.000511243
0.000540598
0.00058186
0.000615325
0.00126188
0.00401022
0.00466155
0.00454409
0.00436571
0.00397751
0.00343657
0.00284262
0.00201648
0.0015946
0.000823593
0.000496323
0.000266272
0.000153487
9.10536e-05
5.70526e-05
5.32378e-05
6.40621e-05
8.92821e-05
0.000104552
0.000144784
0.000164686
0.000174677
0.000190418
0.000205098
0.000219376
0.000225293
0.000238908
0.000256181
0.000274243
0.00029521
0.000320711
0.000354954
0.000384319
0.000417719
0.000453404
0.000490103
0.00051842
0.000543314
0.000571735
0.0026797
0.00460001
0.00448775
0.00432016
0.00378048
0.00312527
0.00247927
0.00170773
0.000964588
0.00048423
0.000199013
0.000100587
5.39307e-05
3.38426e-05
3.48198e-05
5.77007e-05
7.22973e-05
0.000101811
0.000113944
0.000126253
0.000140546
0.000132414
0.000123179
0.000130379
0.000161613
0.000199989
0.000234508
0.000272298
0.000306586
0.000339904
0.000375474
0.000415093
0.000458525
0.000499802
0.000539674
0.00057485
0.000602207
0.000625645
0.000631484
0.000627529
0.00392263
0.00405376
0.00413249
0.00361436
0.00294677
0.00199567
0.00131824
0.000559019
0.000180634
7.22952e-05
3.53661e-05
2.24224e-05
2.33305e-05
4.47457e-05
5.95297e-05
8.16632e-05
8.93521e-05
9.70246e-05
8.32855e-05
7.56286e-05
8.92041e-05
0.000140315
0.000202652
0.000277118
0.000350229
0.000413681
0.000474379
0.000527025
0.000572201
0.000614093
0.000655786
0.000696951
0.000733653
0.00076461
0.000789856
0.000807417
0.000815923
0.000816256
0.000802159
0.000775559
0.00335784
0.00348279
0.00318313
0.00265687
0.00183652
0.000852925
0.00021795
5.95527e-05
2.74854e-05
1.39002e-05
1.35551e-05
2.87822e-05
4.20111e-05
6.22062e-05
6.86395e-05
5.7179e-05
5.25759e-05
5.72444e-05
9.35358e-05
0.000151093
0.00022455
0.000329134
0.000440814
0.000546403
0.000639205
0.000714301
0.000772749
0.000824802
0.00086677
0.000903638
0.000937382
0.000968498
0.000996033
0.00101561
0.00102657
0.00102937
0.00102498
0.00101134
0.000987494
0.000957458
0.00246402
0.00235008
0.00196802
0.00137905
0.000486774
9.93752e-05
2.51572e-05
1.04155e-05
7.34251e-06
1.46207e-05
2.77117e-05
4.75199e-05
5.20919e-05
4.42566e-05
3.8583e-05
4.17322e-05
7.77068e-05
0.000136291
0.000209803
0.000357907
0.000532695
0.000667656
0.000768259
0.000849508
0.000919418
0.000977239
0.00102669
0.00106418
0.00109694
0.00112579
0.00115064
0.00117125
0.00118643
0.0011949
0.00119816
0.00119443
0.00118245
0.00116386
0.00114033
0.00111856
0.00143838
0.000989705
0.000586126
0.000194895
3.8221e-05
1.23322e-05
5.31531e-06
5.77952e-06
1.51728e-05
3.12785e-05
3.83229e-05
3.83038e-05
2.82159e-05
2.94518e-05
4.93941e-05
9.0266e-05
0.000149777
0.000295866
0.000499336
0.000641228
0.000762294
0.000865256
0.000952041
0.0010262
0.00108959
0.00114227
0.00119006
0.00122421
0.00124985
0.0012713
0.00128838
0.00130182
0.00131217
0.00131693
0.00131584
0.00130864
0.00129579
0.00127858
0.00126004
0.00124689
0.000551127
0.000168137
5.5202e-05
1.63366e-05
5.30569e-06
3.41166e-06
5.86652e-06
1.71486e-05
3.032e-05
3.46913e-05
2.81331e-05
2.26279e-05
2.81013e-05
5.24073e-05
8.93647e-05
0.000171881
0.000369769
0.000554412
0.000697416
0.000822982
0.000935846
0.00102401
0.00110217
0.00116618
0.0012277
0.00127094
0.00130519
0.00132902
0.00134857
0.00136517
0.00138094
0.0013927
0.00139973
0.00140178
0.00139906
0.00139188
0.00138112
0.00136849
0.00135726
0.00135278
0.00010171
2.53655e-05
7.95636e-06
2.96877e-06
3.27834e-06
7.92873e-06
1.58124e-05
2.64144e-05
3.03482e-05
2.2586e-05
1.81693e-05
2.78918e-05
5.48485e-05
8.9356e-05
0.000184697
0.000401222
0.000579903
0.000735794
0.000871697
0.000980781
0.00108089
0.00115712
0.00123014
0.00127674
0.00132302
0.00135488
0.00137944
0.00140115
0.00141948
0.00143404
0.00144934
0.00145805
0.00146261
0.0014637
0.00146155
0.00145668
0.00145031
0.00144434
0.00144172
0.00144612
1.38792e-05
3.34708e-06
2.1904e-06
3.25894e-06
1.01176e-05
1.94169e-05
2.40332e-05
2.58558e-05
1.80832e-05
1.68796e-05
3.04218e-05
5.54276e-05
8.99578e-05
0.00019744
0.000423253
0.000594999
0.000759468
0.000900653
0.00101697
0.00111884
0.00120254
0.00126086
0.00131547
0.00135155
0.00138565
0.00141489
0.00143873
0.00145783
0.00147327
0.0014855
0.00149804
0.0015067
0.00151072
0.00151262
0.00151293
0.00151232
0.00151204
0.001514
0.00152058
0.00153395
1.26793e-05
3.9792e-06
5.1616e-06
1.21309e-05
2.51866e-05
3.10909e-05
2.05609e-05
1.32334e-05
1.59365e-05
3.31096e-05
5.7807e-05
9.55369e-05
0.000213792
0.000440251
0.000598902
0.000766301
0.000915798
0.00103946
0.0011455
0.00122176
0.0012847
0.00133304
0.00137426
0.00140917
0.0014387
0.00146337
0.00148375
0.00150057
0.00151454
0.00152621
0.00153643
0.00154548
0.00155132
0.001556
0.0015604
0.00156555
0.00157277
0.00158334
0.00159915
0.00162119
9.49009e-06
1.36828e-05
4.2643e-05
5.21326e-05
4.70774e-05
2.32347e-05
1.60459e-05
1.97005e-05
3.90878e-05
6.51853e-05
0.000112255
0.000235928
0.000451152
0.00059114
0.00075826
0.000913053
0.00105534
0.00115167
0.00123238
0.00129312
0.00134492
0.00138872
0.00142456
0.00145445
0.00147991
0.00150155
0.00151984
0.00153545
0.00154895
0.00156057
0.00157186
0.00158218
0.00159063
0.00159944
0.00160923
0.00162068
0.00163642
0.00165594
0.00168062
0.00171088
2.37883e-05
7.61365e-06
1.29061e-05
1.43072e-05
1.56103e-05
2.04495e-05
3.67039e-05
6.9167e-05
0.000104007
0.000178645
0.000288203
0.000461508
0.000577431
0.000736161
0.00090451
0.00105041
0.00115238
0.00122444
0.00129213
0.00135025
0.00139598
0.00143343
0.00146464
0.00149116
0.00151418
0.00153425
0.0015518
0.0015674
0.00158151
0.0015946
0.00160768
0.00162057
0.00163349
0.00164757
0.00166383
0.00168323
0.00170601
0.00173398
0.00176697
0.00180437
0.000295404
5.25583e-05
3.17205e-05
4.26974e-05
6.02212e-05
0.000101079
0.000139166
0.000203237
0.00030957
0.00036605
0.000464381
0.000565684
0.000708766
0.000886704
0.00103664
0.00113403
0.00120796
0.0012873
0.00135061
0.00139855
0.00143817
0.00147102
0.00149923
0.00152398
0.00154598
0.00156574
0.00158372
0.00160042
0.00161639
0.0016321
0.001648
0.00166461
0.00168257
0.0017027
0.00172585
0.00175268
0.00178373
0.00181938
0.00185973
0.00190426
0.000593434
0.000310458
0.000198518
0.000225461
0.000273266
0.000298728
0.000317763
0.000337287
0.000411322
0.000471275
0.000559737
0.000690926
0.000862229
0.00100738
0.00110047
0.00118886
0.00127883
0.00134947
0.00140104
0.00144153
0.00147606
0.0015058
0.00153239
0.00155669
0.00157896
0.00159959
0.00161905
0.00163794
0.00165703
0.00167573
0.00169545
0.00171669
0.0017402
0.00176662
0.00179657
0.00183045
0.00186858
0.00191108
0.00195775
0.00200789
0.00062216
0.000546105
0.000486657
0.000509704
0.000515071
0.000422427
0.000356879
0.000380909
0.000485104
0.000572538
0.000686868
0.000825182
0.000958629
0.00105727
0.00116066
0.00126175
0.00134246
0.00140142
0.00144694
0.00148317
0.00151294
0.00154102
0.00156739
0.00159238
0.00161608
0.00163863
0.00166042
0.00168249
0.00170499
0.00172741
0.00175156
0.00177791
0.0018071
0.00183961
0.00187587
0.00191611
0.00196042
0.00200871
0.0020606
0.00211539
0.00064753
0.000573141
0.000440812
0.000418638
0.000477416
0.000440329
0.00041255
0.000491699
0.000591353
0.000681202
0.000787891
0.00089416
0.00100463
0.00111773
0.00122766
0.00132173
0.00139156
0.00144468
0.0014864
0.00152074
0.00155081
0.00157925
0.0016068
0.00163348
0.00165934
0.00168443
0.00170946
0.00173549
0.001761
0.0017878
0.00181666
0.00184814
0.00188275
0.00192085
0.00196271
0.00200841
0.00205786
0.00211085
0.0021669
0.0022254
0.000553441
0.000358474
0.000252124
0.000412817
0.000573608
0.00056377
0.000531315
0.000598009
0.000669418
0.000738808
0.000832997
0.000942853
0.00106954
0.00118901
0.00129669
0.00138108
0.00144365
0.00149127
0.00152947
0.00156235
0.00159294
0.00162268
0.00165212
0.00168111
0.00170965
0.00173782
0.00176686
0.00179634
0.00182548
0.00185654
0.00188998
0.00192625
0.00196576
0.00200875
0.00205534
0.00210551
0.00215909
0.00221574
0.00227501
0.00233634
0.000593032
0.000233612
0.000331287
0.000598607
0.000679051
0.000614539
0.000591084
0.000643467
0.00069564
0.00077014
0.000865877
0.0010077
0.00114686
0.00126735
0.00136791
0.00144447
0.00149947
0.00154183
0.00157705
0.00160894
0.00164061
0.0016721
0.00170384
0.00173557
0.00176712
0.00179915
0.00183181
0.00186391
0.0018971
0.00193226
0.00196991
0.00201045
0.00205418
0.00210122
0.00215163
0.00220531
0.00226204
0.00232144
0.00238308
0.00244646
0.000149525
0.000200845
0.000497158
0.000671795
0.00068129
0.000622152
0.000598789
0.000640937
0.000686728
0.000781306
0.000927692
0.00109069
0.00123699
0.00135409
0.00144347
0.00151136
0.00155874
0.0015963
0.00162936
0.00166124
0.00169387
0.00172735
0.00176163
0.00179617
0.00183111
0.00186719
0.00190188
0.00193734
0.00197414
0.00201296
0.0020543
0.00209847
0.00214566
0.00219595
0.00224933
0.00230564
0.00236465
0.00242599
0.00248926
0.00255401
0.000124491
0.000230451
0.000529656
0.000622456
0.000584622
0.000532866
0.000547622
0.000592237
0.000683962
0.000835172
0.00102164
0.00119731
0.0013397
0.00144569
0.00152227
0.00157975
0.00162023
0.00165383
0.00168546
0.00171825
0.00175178
0.00178741
0.00182424
0.00186161
0.00190024
0.00193884
0.00197605
0.00201444
0.00205435
0.00209632
0.00214075
0.00218785
0.00223778
0.00229058
0.00234617
0.00240439
0.00246497
0.00252759
0.00259187
0.0026574
0.000228846
0.000212789
0.000412992
0.000446539
0.000408183
0.000416221
0.000474429
0.00057053
0.000739862
0.000949007
0.0011501
0.00131994
0.00144681
0.00153638
0.00160013
0.00164746
0.0016821
0.00171271
0.00174348
0.00177684
0.00181254
0.00185052
0.00188987
0.00193067
0.00197201
0.00201178
0.00205179
0.0020928
0.00213534
0.00217991
0.00222681
0.00227622
0.00232825
0.0023829
0.00244008
0.0024996
0.00256121
0.00262461
0.00268946
0.0027554
0.000419771
0.000219691
0.000260201
0.000272183
0.000279123
0.000337783
0.000465048
0.00065574
0.000882657
0.00110569
0.00129394
0.00144141
0.00154972
0.00162182
0.00167313
0.00171208
0.00174224
0.00177102
0.00180187
0.00183645
0.00187426
0.00191453
0.00195674
0.00200094
0.00204284
0.00208468
0.00212689
0.00217006
0.00221476
0.00226139
0.00231022
0.00236138
0.00241497
0.00247094
0.0025292
0.00258955
0.00265178
0.0027156
0.00278074
0.00284687
0.000555245
0.000376925
0.00031542
0.000326733
0.000332552
0.000442
0.000634499
0.000852581
0.00106954
0.00126765
0.00142939
0.00155216
0.00164033
0.00169785
0.00173881
0.00177132
0.00179856
0.00182672
0.00185878
0.00189479
0.00193477
0.00197741
0.00202283
0.00206857
0.00211171
0.00215518
0.00219913
0.00224404
0.00229042
0.00233866
0.00238894
0.00244141
0.0024961
0.00255298
0.00261192
0.00267276
0.00273531
0.00279933
0.00286458
0.00293079
0.000563804
0.000516977
0.000492254
0.000528057
0.000543695
0.000691124
0.000878265
0.00105951
0.00123734
0.00140283
0.0015398
0.00164332
0.00171631
0.00176182
0.00179562
0.00182356
0.00184932
0.00187785
0.00191131
0.00194965
0.00199191
0.0020375
0.00208585
0.00213141
0.00217629
0.00222117
0.00226648
0.00231275
0.00236044
0.00240987
0.00246124
0.00251464
0.00257009
0.00262755
0.00268689
0.00274798
0.00281064
0.00287469
0.00293994
0.0030062
0.000553955
0.000554809
0.000590473
0.000695394
0.000748163
0.000942789
0.00110219
0.00123901
0.00137727
0.00151227
0.00162701
0.00171482
0.00177648
0.00181393
0.00184286
0.00186795
0.00189337
0.00192306
0.00195855
0.0019993
0.00204403
0.00209283
0.00214244
0.00218877
0.00223484
0.00228083
0.00232721
0.00237451
0.00242319
0.00247351
0.00252565
0.00257969
0.00263565
0.00269344
0.00275299
0.00281415
0.00287679
0.00294075
0.0030059
0.00307211
0.0005479
0.000558332
0.000623376
0.000788082
0.000885351
0.00112546
0.00126815
0.00137689
0.00148681
0.00159837
0.00169544
0.00177061
0.00182336
0.00185486
0.00188064
0.00190421
0.00193007
0.00196142
0.00199917
0.00204227
0.00208978
0.00214195
0.00219099
0.00223874
0.00228581
0.00233267
0.00237986
0.00242794
0.00247733
0.00252829
0.00258097
0.00263545
0.00269171
0.00274969
0.0028093
0.00287043
0.00293296
0.00299677
0.00306174
0.00312784
0.000545059
0.000556659
0.000632155
0.00082496
0.000967716
0.00124577
0.00138443
0.00147781
0.00156911
0.00166391
0.00174767
0.00181299
0.0018589
0.0018857
0.00190957
0.00193246
0.00195918
0.00199236
0.00203233
0.00207765
0.00212787
0.002182
0.00223151
0.00228014
0.00232795
0.00237546
0.00242326
0.0024719
0.0025218
0.0025732
0.00262625
0.002681
0.00273743
0.00279548
0.00285508
0.00291612
0.00297851
0.00304214
0.00310692
0.00317285
0.000543925
0.000555105
0.000632602
0.000829024
0.00101385
0.00132086
0.00146092
0.00154741
0.00162768
0.00171138
0.00178572
0.00184357
0.00188431
0.00190784
0.00193043
0.00195307
0.00198072
0.00201558
0.00205745
0.00210464
0.00215713
0.00221256
0.00226271
0.00231194
0.00236027
0.00240824
0.00245646
0.00250549
0.00255573
0.00260742
0.0026607
0.00271561
0.00277212
0.00283019
0.00288974
0.00295067
0.00301292
0.00307637
0.00314099
0.0032067
0.000543544
0.000554224
0.000630821
0.000822429
0.00103809
0.00136414
0.00150702
0.00159065
0.00166481
0.0017418
0.00181026
0.00186344
0.00190062
0.00192187
0.00194372
0.00196641
0.00199481
0.00203085
0.0020741
0.0021227
0.00217676
0.00223303
0.00228367
0.00233329
0.00238196
0.00243022
0.00247871
0.00252798
0.00257843
0.0026303
0.00268371
0.0027387
0.00279525
0.0028533
0.00291279
0.00297363
0.00303575
0.00309907
0.00316357
0.00322906
0.000543255
0.00055435
0.000630787
0.00082078
0.00105057
0.00138339
0.00152849
0.00161103
0.00168245
0.00175638
0.00182209
0.00187303
0.00190853
0.00192868
0.00195005
0.00197268
0.0020014
0.00203799
0.00208187
0.00213114
0.00218593
0.00224256
0.00229343
0.00234324
0.00239206
0.00244046
0.00248907
0.00253845
0.00258899
0.00264092
0.00269436
0.00274936
0.00280589
0.0028639
0.00292332
0.00298409
0.00304613
0.00310936
0.00317381
0.00323908
9.67221e-05
0.000426103
0.000935519
0.00147407
0.00199306
0.00248014
0.00293368
0.00335545
0.00374823
0.00411494
0.00445829
0.00478068
0.00508421
0.00537065
0.00564149
0.00589798
0.00614117
0.00637191
0.0065909
0.00679871
0.00699579
0.0071825
0.0073591
0.00752581
0.00768276
0.00783005
0.00796772
0.00809581
0.0082143
0.00832317
0.00842238
0.00851188
0.00859161
0.00866152
0.00872154
0.00877162
0.00881169
0.00884171
0.00886156
0.00887076
9.67295e-05
0.000428557
0.000938236
0.00147706
0.0019963
0.00248353
0.00293713
0.0033589
0.00375167
0.00411836
0.0044617
0.00478413
0.00508772
0.00537425
0.00564522
0.00590188
0.00614525
0.00637622
0.00659545
0.00680353
0.00700089
0.0071879
0.0073648
0.00753182
0.00768908
0.00783668
0.00797466
0.00810305
0.00822182
0.00833096
0.00843042
0.00852015
0.0086001
0.0086702
0.00873038
0.0087806
0.00882079
0.00885088
0.00887079
0.00888002
9.67961e-05
0.000430303
0.000942892
0.00148346
0.00200376
0.00249166
0.0029457
0.00336777
0.00376074
0.00412759
0.00447109
0.00479367
0.00509742
0.00538415
0.00565534
0.00591225
0.00615593
0.00638721
0.0066068
0.00681525
0.00701301
0.00720043
0.00737777
0.00754522
0.00770292
0.00785096
0.00798937
0.00811817
0.00823735
0.00834688
0.0084467
0.00853677
0.00861702
0.00868739
0.00874781
0.00879823
0.00883858
0.0088688
0.00888879
0.00889805
9.68518e-05
0.000432694
0.000947105
0.00148953
0.00201149
0.00250073
0.00295582
0.00337871
0.00377235
0.00413976
0.00448374
0.00480676
0.00511094
0.0053981
0.00566972
0.00592707
0.00617121
0.00640297
0.00662306
0.00683203
0.00703032
0.00721827
0.00739616
0.00756416
0.00772241
0.00787099
0.00800993
0.00813924
0.00825891
0.0083689
0.00846917
0.00855964
0.00864026
0.00871095
0.00877167
0.00882233
0.00886287
0.00889324
0.00891333
0.00892263
9.69387e-05
0.000435052
0.000952006
0.00149631
0.00201981
0.00251039
0.00296664
0.00339053
0.00378505
0.00415324
0.00449793
0.00482162
0.00512644
0.00541421
0.00568645
0.00594443
0.00618918
0.00642158
0.0066423
0.00685192
0.00705087
0.00723948
0.00741802
0.00758668
0.00774557
0.00789478
0.00803433
0.00816424
0.00828448
0.00839501
0.00849577
0.0085867
0.00866774
0.00873881
0.00879985
0.00885078
0.00889155
0.00892209
0.00894228
0.00895163
9.70169e-05
0.00043759
0.000956973
0.00150328
0.00202845
0.00252042
0.00297787
0.00340283
0.0037983
0.00416737
0.00451289
0.00483736
0.00514294
0.00543145
0.00570443
0.00596314
0.00620863
0.00644177
0.00666324
0.00687361
0.00707331
0.00726267
0.00744196
0.00761135
0.00777097
0.00792089
0.00806113
0.00819169
0.00831256
0.00842367
0.00852499
0.00861643
0.00869792
0.0087694
0.0088308
0.00888203
0.00892304
0.00895376
0.00897407
0.00898348
9.71171e-05
0.000440169
0.000962225
0.00151059
0.0020374
0.00253077
0.00298942
0.00341545
0.0038119
0.00418188
0.00452827
0.00485357
0.00515997
0.00544929
0.00572307
0.00598259
0.00622889
0.00646284
0.00668513
0.00689632
0.00709684
0.00728702
0.00746712
0.00763731
0.00779771
0.00794839
0.00808937
0.00822064
0.00834217
0.00845392
0.00855583
0.00864781
0.0087298
0.00880171
0.00886349
0.00891504
0.00895631
0.00898722
0.00900766
0.00901713
9.72127e-05
0.000442857
0.000967608
0.00151809
0.00204659
0.00254137
0.00300123
0.00342831
0.00382576
0.00419666
0.00454391
0.00487008
0.00517731
0.00546747
0.00574209
0.00600245
0.00624961
0.00648442
0.00670757
0.00691962
0.00712101
0.00731205
0.007493
0.00766403
0.00782526
0.00797674
0.00811849
0.0082505
0.00837274
0.00848516
0.00858768
0.00868023
0.00876273
0.00883511
0.00889728
0.00894917
0.00899071
0.00902182
0.0090424
0.00905193
9.73222e-05
0.000445594
0.000973152
0.0015258
0.00205602
0.00255219
0.00301325
0.00344142
0.00383982
0.00421163
0.00455977
0.00488678
0.00519487
0.00548588
0.00576135
0.00602258
0.00627061
0.00650629
0.00673034
0.00694329
0.00714556
0.0073375
0.00751933
0.00769123
0.00785331
0.00800562
0.00814818
0.00828096
0.00840393
0.00851703
0.00862019
0.00871333
0.00879637
0.00886921
0.00893179
0.00898403
0.00902585
0.00905717
0.00907789
0.00908748
9.74292e-05
0.000448407
0.000978822
0.00153368
0.00206563
0.00256322
0.00302548
0.00345472
0.00385406
0.00422677
0.00457577
0.00490364
0.00521258
0.00550444
0.00578078
0.00604287
0.00629179
0.00652837
0.00675332
0.00696718
0.00717037
0.00736322
0.00754596
0.00771875
0.00788171
0.00803487
0.00817824
0.00831181
0.00843553
0.00854934
0.00865315
0.0087469
0.00883048
0.00890381
0.00896681
0.0090194
0.00906151
0.00909305
0.0091139
0.00912356
9.75479e-05
0.000451261
0.000984618
0.00154172
0.00207541
0.00257441
0.00303785
0.00346811
0.00386843
0.00424204
0.0045919
0.00492062
0.00523041
0.00552312
0.00580032
0.0060633
0.0063131
0.0065506
0.00677647
0.00699124
0.00719537
0.00738914
0.00757279
0.0077465
0.00791035
0.00806437
0.00820859
0.00834296
0.00846744
0.00858197
0.00868646
0.00878081
0.00886495
0.00893878
0.00900221
0.00905516
0.00909756
0.00912931
0.00915032
0.00916004
9.76639e-05
0.000454193
0.000990511
0.00154989
0.00208535
0.00258575
0.00305037
0.00348168
0.00388292
0.00425742
0.00460814
0.0049377
0.00524833
0.0055419
0.00581996
0.00608382
0.00633453
0.00657293
0.00679973
0.00701545
0.0072205
0.00741522
0.00759981
0.00777443
0.00793918
0.00809409
0.00823916
0.00837435
0.00849961
0.00861487
0.00872003
0.00881501
0.00889972
0.00897405
0.00903792
0.00909123
0.00913393
0.00916591
0.00918706
0.00919685
9.77885e-05
0.000457152
0.000996512
0.0015582
0.00209541
0.00259723
0.00306303
0.00349535
0.00389753
0.0042729
0.00462447
0.00495486
0.00526633
0.00556075
0.00583968
0.00610442
0.00635603
0.00659536
0.00682309
0.00703975
0.00724576
0.00744142
0.00762696
0.00780252
0.00796819
0.00812399
0.00826992
0.00840594
0.00853199
0.00864799
0.00875385
0.00884946
0.00893474
0.00900958
0.00907389
0.00912758
0.00917058
0.00920279
0.00922409
0.00923395
9.79139e-05
0.000460176
0.00100261
0.00156662
0.0021056
0.00260883
0.0030758
0.00350913
0.00391223
0.00428846
0.00464086
0.00497209
0.00528439
0.00557966
0.00585946
0.00612509
0.00637761
0.00661786
0.00684653
0.00706415
0.00727112
0.00746775
0.00765424
0.00783075
0.00799735
0.00815406
0.00830087
0.00843773
0.00856457
0.00868133
0.00878788
0.00888414
0.00897
0.00904536
0.00911012
0.00916419
0.00920749
0.00923992
0.00926138
0.00927131
9.80438e-05
0.000463245
0.00100878
0.00157515
0.00211592
0.00262053
0.00308866
0.003523
0.00392701
0.00430409
0.00465733
0.00498937
0.00530251
0.00559862
0.00587929
0.00614581
0.00639924
0.00664043
0.00687005
0.00708864
0.00729658
0.00749418
0.00768164
0.00785911
0.00802665
0.00818428
0.00833197
0.00846969
0.00859735
0.00871486
0.00882213
0.00891904
0.00900549
0.00908137
0.00914659
0.00920104
0.00924465
0.00927732
0.00929892
0.00930893
9.81753e-05
0.000466358
0.00101504
0.00158378
0.00212632
0.00263234
0.00310162
0.00353695
0.00394185
0.00431978
0.00467383
0.0050067
0.00532066
0.00561762
0.00589916
0.00616658
0.00642093
0.00666306
0.00689364
0.0071132
0.00732212
0.00752071
0.00770916
0.00788759
0.00805609
0.00821465
0.00836325
0.00850183
0.00863031
0.00874859
0.00885658
0.00895415
0.0090412
0.00911761
0.00918329
0.00923813
0.00928205
0.00931496
0.00933672
0.00934679
9.8312e-05
0.000469512
0.00102139
0.0015925
0.00213682
0.00264424
0.00311465
0.00355095
0.00395675
0.00433551
0.00469037
0.00502406
0.00533884
0.00563665
0.00591906
0.00618738
0.00644265
0.00668573
0.00691729
0.00713782
0.00734775
0.00754734
0.00773678
0.0079162
0.00808567
0.00824517
0.00839469
0.00853414
0.00866345
0.00878252
0.00889124
0.00898948
0.00907713
0.00915409
0.00922023
0.00927546
0.0093197
0.00935284
0.00937476
0.00938491
9.84489e-05
0.000472723
0.0010278
0.0016013
0.00214741
0.0026562
0.00312775
0.00356503
0.00397168
0.00435127
0.00470695
0.00504144
0.00535704
0.0056557
0.00593898
0.0062082
0.00646442
0.00670845
0.00694099
0.00716253
0.00737346
0.00757406
0.00776451
0.00794493
0.00811539
0.00827585
0.00842628
0.00856663
0.00869679
0.00881665
0.0089261
0.00902502
0.00911329
0.00919079
0.0092574
0.00931304
0.00935759
0.00939098
0.00941306
0.00942328
9.859e-05
0.000475962
0.00103429
0.00161019
0.00215807
0.00266824
0.0031409
0.00357914
0.00398666
0.00436707
0.00472354
0.00505883
0.00537526
0.00567476
0.00595892
0.00622905
0.00648621
0.00673121
0.00696474
0.00718729
0.00739925
0.00760087
0.00779235
0.00797379
0.00814524
0.00830667
0.00845805
0.00859929
0.00873031
0.00885098
0.00896118
0.00906079
0.00914968
0.00922772
0.00929482
0.00935086
0.00939574
0.00942936
0.00945161
0.0094619
9.87336e-05
0.00047925
0.00104084
0.00161915
0.0021688
0.00268034
0.00315411
0.00359329
0.00400169
0.00438288
0.00474013
0.00507623
0.00539347
0.00569382
0.00597887
0.00624992
0.00650802
0.00675401
0.00698855
0.00721212
0.00742511
0.00762778
0.00782029
0.00800276
0.00817522
0.00833764
0.00848998
0.00863214
0.00876402
0.0088855
0.00899647
0.00909677
0.00918629
0.0092649
0.00933248
0.00938892
0.00943413
0.00946801
0.00949041
0.00950078
9.88789e-05
0.000482584
0.00104746
0.00162818
0.00217961
0.00269249
0.00316734
0.00360746
0.00401668
0.00439868
0.00475673
0.00509361
0.00541168
0.00571289
0.00599883
0.0062708
0.00652987
0.00677684
0.00701239
0.00723701
0.00745105
0.00765478
0.00784835
0.00803186
0.00820535
0.00836877
0.00852207
0.00866516
0.00879792
0.00892024
0.00903197
0.00913298
0.00922314
0.00930231
0.00937039
0.00942724
0.00947279
0.00950691
0.00952948
0.00953993
9.90269e-05
0.000485951
0.00105414
0.00163728
0.00219046
0.00270468
0.00318061
0.00362165
0.00403169
0.00441449
0.00477332
0.00511099
0.00542989
0.00573195
0.00601878
0.00629169
0.00655173
0.00679971
0.00703629
0.00726196
0.00747707
0.00768187
0.00787651
0.00806109
0.00823562
0.00840006
0.00855434
0.00869837
0.00883203
0.00895518
0.0090677
0.00916942
0.00926023
0.00933998
0.00940855
0.00946582
0.0095117
0.00954608
0.00956882
0.00957934
9.91782e-05
0.000489359
0.00106089
0.00164644
0.00220136
0.00271692
0.00319391
0.00363584
0.00404671
0.00443029
0.00478988
0.00512836
0.00544808
0.00575099
0.00603873
0.00631259
0.0065736
0.00682261
0.00706024
0.00728697
0.00750317
0.00770906
0.00790479
0.00809044
0.00826604
0.0084315
0.00858679
0.00873177
0.00886634
0.00899035
0.00910365
0.0092061
0.00929756
0.00937789
0.00944697
0.00950467
0.00955088
0.00958552
0.00960843
0.00961903
9.93301e-05
0.000492817
0.00106768
0.00165565
0.00221233
0.00272919
0.00320722
0.00365005
0.00406172
0.00444606
0.00480644
0.0051457
0.00546624
0.00577003
0.00605868
0.00633349
0.0065955
0.00684554
0.00708423
0.00731206
0.00752935
0.00773635
0.00793318
0.00811993
0.0082966
0.00846312
0.00861941
0.00876537
0.00890086
0.00902573
0.00913983
0.00924302
0.00933515
0.00941607
0.00948565
0.00954378
0.00959034
0.00962524
0.00964832
0.009659
9.94852e-05
0.000496302
0.00107455
0.00166492
0.00222333
0.00274148
0.00322055
0.00366425
0.00407672
0.00446183
0.00482297
0.00516303
0.00548439
0.00578905
0.00607862
0.00635439
0.00661742
0.0068685
0.00710827
0.0073372
0.00755561
0.00776374
0.0079617
0.00814956
0.00832732
0.00849491
0.00865223
0.00879917
0.00893559
0.00906134
0.00917626
0.00928019
0.00937299
0.0094545
0.0095246
0.00958316
0.00963008
0.00966523
0.00968849
0.00969925
9.96429e-05
0.00049983
0.00108146
0.00167425
0.00223436
0.00275381
0.00323389