/*--------------------------------*- C++ -*----------------------------------*\
| =========                 |                                                 |
| \\      /  F ield         | OpenFOAM: The Open Source CFD Toolbox           |
|  \\    /   O peration     | Version:  2.3.0                                 |
|   \\  /    A nd           | Web:      www.OpenFOAM.org                      |
|    \\/     M anipulation  |                                                 |
\*---------------------------------------------------------------------------*/
FoamFile
{
    version     2.0;
    format      ascii;
    class       volScalarField;
    location    "20";
    object      N2;
}
// * * * * * * * * * * * * * * * * * * * * * * * * * * * * * * * * * * * * * //

dimensions      [0 0 0 0 0 0 0];

internalField   nonuniform List<scalar> 
26600
(
0.766
0.766
0.766
0.766
0.766
0.766
0.766
0.766
0.765999
0.765998
0.765996
0.765992
0.765986
0.765976
0.765965
0.765949
0.765932
0.765914
0.765895
0.765872
0.765847
0.765819
0.76579
0.76576
0.765728
0.765697
0.765663
0.76563
0.765596
0.765562
0.765523
0.765484
0.765436
0.765393
0.76534
0.765286
0.765243
0.765177
0.765128
0.765012
0.766
0.766
0.766
0.766
0.766
0.766
0.765999
0.765997
0.765994
0.765989
0.765979
0.765961
0.76594
0.765902
0.765869
0.765812
0.765769
0.765695
0.765638
0.765544
0.765473
0.765377
0.765281
0.765176
0.765066
0.764977
0.764827
0.764733
0.764587
0.764504
0.764311
0.764192
0.764094
0.763959
0.763894
0.763782
0.763702
0.763574
0.763492
0.763297
0.766
0.766
0.766
0.766
0.766
0.765999
0.765996
0.76599
0.76598
0.76596
0.765928
0.765883
0.765825
0.765744
0.765662
0.765541
0.765438
0.765288
0.765168
0.76497
0.764833
0.764615
0.764396
0.764187
0.763837
0.763654
0.763478
0.763291
0.763062
0.762845
0.762552
0.762317
0.762011
0.761803
0.761465
0.76121
0.760836
0.760651
0.760272
0.759773
0.766
0.766
0.766
0.766
0.765999
0.765996
0.765989
0.765975
0.765949
0.765907
0.765843
0.765761
0.76565
0.765505
0.765349
0.765133
0.764951
0.764681
0.764466
0.764097
0.763846
0.763362
0.763005
0.762707
0.762197
0.761891
0.761408
0.761087
0.760756
0.76021
0.759514
0.758983
0.758454
0.7581
0.7574
0.756907
0.756343
0.755735
0.755056
0.754182
0.766
0.766
0.766
0.765999
0.765997
0.765989
0.765975
0.765945
0.765892
0.765813
0.765696
0.765553
0.76535
0.765101
0.764823
0.764454
0.764157
0.763674
0.763309
0.762566
0.762132
0.761738
0.760465
0.759418
0.758773
0.758354
0.757495
0.756766
0.755655
0.754093
0.752341
0.750798
0.749593
0.748417
0.747441
0.745899
0.744022
0.742384
0.738207
0.740688
0.766
0.766
0.766
0.765998
0.765991
0.765975
0.765946
0.765888
0.765784
0.765643
0.765436
0.765188
0.764817
0.7644
0.763889
0.763284
0.762806
0.761857
0.761281
0.760151
0.759111
0.757985
0.75247
0.751045
0.750259
0.749365
0.748014
0.746161
0.743255
0.738975
0.733922
0.729748
0.726447
0.722477
0.718202
0.713182
0.70435
0.699016
0.688183
0.703117
0.766
0.766
0.765999
0.765993
0.765979
0.765948
0.765893
0.765784
0.765588
0.765345
0.764983
0.764539
0.763846
0.763151
0.762122
0.761228
0.76036
0.759009
0.756966
0.754852
0.752605
0.75032
0.724543
0.727284
0.72814
0.726446
0.721855
0.712156
0.70507
0.697666
0.690188
0.681567
0.6711
0.663033
0.649551
0.639554
0.619451
0.610318
0.590066
0.588899
0.766
0.765999
0.765996
0.765983
0.765956
0.765898
0.765792
0.765598
0.765236
0.764832
0.764191
0.763331
0.761975
0.760831
0.759398
0.757539
0.755309
0.752678
0.748633
0.742682
0.736385
0.730866
0.720266
0.708443
0.691738
0.671966
0.656303
0.636463
0.622238
0.610186
0.60103
0.588254
0.572631
0.558584
0.541319
0.519774
0.50884
0.484175
0.468384
0.454446
0.766
0.765998
0.765988
0.765964
0.765912
0.765805
0.765608
0.76527
0.7646
0.763947
0.762738
0.760827
0.759195
0.756717
0.753595
0.749335
0.742967
0.734268
0.722626
0.710345
0.691976
0.672462
0.655392
0.626848
0.598348
0.575705
0.54334
0.513457
0.50054
0.490813
0.473829
0.461111
0.448878
0.432893
0.414341
0.392564
0.365027
0.344999
0.328646
0.326461
0.765999
0.765992
0.765972
0.765927
0.76583
0.765634
0.765274
0.764684
0.763415
0.762366
0.759641
0.756949
0.75325
0.747434
0.737054
0.72324
0.699219
0.674116
0.650629
0.636878
0.599825
0.579832
0.544286
0.517878
0.458426
0.42315
0.396008
0.369213
0.348815
0.331708
0.316516
0.300543
0.28499
0.272703
0.260269
0.252376
0.249133
0.247365
0.249223
0.255347
0.765997
0.765981
0.765944
0.765858
0.765676
0.765307
0.764652
0.763595
0.761304
0.759378
0.754051
0.747862
0.735951
0.714289
0.673875
0.649051
0.612435
0.59035
0.55895
0.538992
0.482639
0.438557
0.392633
0.316209
0.246656
0.211217
0.201463
0.196267
0.193435
0.191032
0.190318
0.189905
0.188097
0.188349
0.18993
0.194875
0.201785
0.207857
0.218566
0.232921
0.765992
0.765961
0.765891
0.765729
0.765379
0.76463
0.763496
0.761328
0.757667
0.751842
0.740195
0.716585
0.663292
0.639661
0.589741
0.567031
0.530056
0.481764
0.433435
0.352863
0.267488
0.192735
0.169164
0.155164
0.136794
0.127568
0.12306
0.123732
0.12584
0.130506
0.136007
0.142378
0.150601
0.158042
0.168288
0.180696
0.193708
0.207697
0.222827
0.244833
0.765982
0.765924
0.765789
0.765476
0.764767
0.763108
0.761266
0.757483
0.749532
0.730356
0.674551
0.643149
0.585805
0.560523
0.507918
0.460308
0.366227
0.268663
0.182448
0.155193
0.131459
0.101634
0.0874191
0.0775714
0.0784129
0.0834221
0.0886579
0.0977831
0.106489
0.115835
0.12645
0.137863
0.149723
0.162233
0.176117
0.191221
0.206555
0.223497
0.241927
0.264312
0.76596
0.765845
0.765576
0.764944
0.763353
0.761375
0.756845
0.746688
0.718312
0.646971
0.594778
0.566104
0.515105
0.464434
0.360031
0.239278
0.157465
0.136884
0.0991209
0.0739147
0.0540465
0.0509876
0.0546227
0.0592217
0.0679776
0.0781476
0.0886304
0.100108
0.111041
0.122983
0.135786
0.149218
0.163168
0.17787
0.193626
0.210546
0.229504
0.249426
0.271082
0.296013
0.7659
0.765665
0.765062
0.763649
0.761683
0.756728
0.745019
0.709153
0.634334
0.565007
0.540274
0.477271
0.378827
0.253745
0.161821
0.134687
0.0978232
0.0536173
0.0384965
0.0358124
0.0380618
0.0429225
0.0514909
0.0620871
0.0742107
0.0869598
0.0999593
0.113248
0.127623
0.141616
0.155756
0.17033
0.185522
0.201564
0.218662
0.236986
0.256841
0.278269
0.301644
0.32782
0.765756
0.765176
0.763478
0.761957
0.75711
0.743782
0.704497
0.62834
0.544653
0.500017
0.411193
0.313432
0.187567
0.132339
0.110381
0.0566969
0.0338625
0.0257131
0.0261589
0.029975
0.0364344
0.047737
0.0607036
0.0766058
0.0919013
0.10676
0.121421
0.13597
0.150782
0.165438
0.180139
0.195372
0.211352
0.22826
0.246266
0.265537
0.286247
0.30853
0.332594
0.358797
0.765093
0.763495
0.761582
0.757384
0.742632
0.696965
0.629692
0.525551
0.472426
0.358037
0.246784
0.159889
0.126717
0.0884651
0.0399718
0.0226794
0.0182301
0.0199651
0.0239765
0.0329155
0.0471274
0.0638323
0.0806181
0.098904
0.115246
0.131059
0.146832
0.162276
0.177735
0.19275
0.20744
0.223034
0.239534
0.257005
0.275588
0.295413
0.316571
0.339112
0.36307
0.388459
0.763575
0.760428
0.756554
0.744788
0.682781
0.618125
0.51863
0.438814
0.316672
0.188549
0.157922
0.115623
0.0548399
0.0268116
0.0146394
0.0128619
0.0147452
0.0196843
0.0307416
0.0471658
0.0652069
0.0857984
0.104478
0.125794
0.141676
0.157916
0.175058
0.191144
0.207089
0.222683
0.236284
0.2522
0.269145
0.286959
0.305815
0.325804
0.346947
0.369187
0.392404
0.416401
0.758763
0.752006
0.741321
0.693966
0.569782
0.496021
0.357298
0.24675
0.160235
0.134904
0.0730226
0.0376198
0.0186555
0.00971911
0.00874629
0.0105231
0.0155822
0.0280499
0.0451049
0.0668196
0.087587
0.112229
0.13053
0.152088
0.171225
0.188716
0.205446
0.221463
0.237254
0.253003
0.267148
0.28231
0.299464
0.317356
0.336164
0.355938
0.376624
0.398072
0.420067
0.442306
0.737004
0.729581
0.700963
0.547996
0.41666
0.259488
0.196457
0.146491
0.099261
0.0482741
0.024391
0.0120942
0.00609712
0.00566522
0.0069956
0.0120557
0.0234638
0.0431222
0.0640523
0.090994
0.112292
0.137662
0.160893
0.182601
0.202167
0.219932
0.23649
0.252284
0.267741
0.283047
0.298125
0.312962
0.329821
0.347467
0.3659
0.385096
0.404936
0.425213
0.44566
0.465949
0.00926847
0.18938
0.196323
0.183603
0.163839
0.124144
0.0743104
0.0418938
0.0242846
0.0130749
0.00690722
0.0034102
0.0031982
0.0043829
0.00863874
0.0197094
0.0361258
0.0625634
0.0857132
0.113488
0.141586
0.168062
0.192143
0.213921
0.233437
0.25108
0.267395
0.282897
0.298023
0.313137
0.327832
0.342981
0.359438
0.376567
0.394331
0.41264
0.43132
0.450149
0.468864
0.48716
0.000621472
0.0124194
0.0236934
0.0236425
0.0201315
0.0134519
0.00787531
0.00461587
0.0026098
0.00157376
0.0010898
0.00131629
0.00230756
0.00590853
0.0140986
0.0321279
0.0519051
0.07979
0.111577
0.142766
0.172139
0.199163
0.223445
0.245039
0.264243
0.281553
0.297525
0.312672
0.327388
0.342014
0.356583
0.371684
0.387555
0.40397
0.420841
0.438043
0.455384
0.472646
0.489592
0.505968
8.7372e-05
0.000729214
0.00185873
0.00194625
0.00184733
0.00140732
0.000958296
0.000700333
0.000444493
0.000379117
0.000492597
0.00124048
0.00345551
0.0108111
0.0228583
0.0422348
0.0720446
0.104846
0.139254
0.172366
0.202615
0.22992
0.254042
0.275228
0.293951
0.310797
0.326338
0.341069
0.35526
0.369388
0.383775
0.398516
0.413702
0.429259
0.445087
0.46105
0.476967
0.492639
0.507869
0.52246
2.01568e-05
7.70664e-05
0.000214443
0.000301375
0.000312571
0.000292068
0.000213307
0.000168241
0.000146573
0.000193001
0.000544161
0.00227831
0.00630881
0.0148954
0.0332982
0.0606109
0.0940113
0.129832
0.166378
0.201282
0.232284
0.259645
0.283329
0.303917
0.322051
0.338364
0.353422
0.36763
0.381107
0.395015
0.408981
0.423146
0.437552
0.452154
0.466862
0.481543
0.496041
0.510188
0.523826
0.536808
5.68362e-06
1.55674e-05
3.8288e-05
7.36574e-05
8.49988e-05
8.1944e-05
6.29112e-05
5.70159e-05
7.47289e-05
0.000227807
0.00114006
0.00350205
0.00945877
0.023101
0.0481335
0.080918
0.118177
0.156911
0.194112
0.228943
0.260886
0.287869
0.310856
0.330712
0.348185
0.363917
0.378446
0.391911
0.40493
0.418466
0.431899
0.44538
0.458943
0.472552
0.486126
0.499552
0.5127
0.525439
0.537645
0.549211
1.69479e-06
4.10732e-06
8.95143e-06
1.87867e-05
2.53377e-05
2.58314e-05
2.3584e-05
2.85343e-05
8.36911e-05
0.000492648
0.00180367
0.00543276
0.0156634
0.0387262
0.0708993
0.108326
0.148085
0.187692
0.224676
0.258443
0.288487
0.314257
0.336289
0.355325
0.3721
0.387242
0.401062
0.413655
0.426719
0.439629
0.452421
0.465155
0.477851
0.490474
0.502957
0.515206
0.527118
0.538594
0.549541
0.559882
4.76545e-07
1.03638e-06
1.9814e-06
4.38696e-06
7.3223e-06
7.66203e-06
9.38903e-06
2.78814e-05
0.000175462
0.000788345
0.00276417
0.00965034
0.0275069
0.0570025
0.0939089
0.13459
0.176024
0.215926
0.25253
0.285291
0.313834
0.338358
0.359378
0.377584
0.393664
0.408183
0.421082
0.433352
0.446084
0.458418
0.470542
0.482521
0.494367
0.506052
0.517521
0.5287
0.539511
0.549879
0.559737
0.56903
1.58021e-07
3.00052e-07
5.27988e-07
1.18481e-06
2.04206e-06
2.67597e-06
7.32667e-06
5.01231e-05
0.000278644
0.00131322
0.0057229
0.017764
0.0420518
0.0761729
0.116502
0.159345
0.201728
0.241576
0.277582
0.309442
0.336587
0.359958
0.380023
0.397437
0.412835
0.426376
0.438677
0.451119
0.463183
0.474903
0.486364
0.497612
0.508658
0.519479
0.530032
0.540262
0.55011
0.559522
0.568448
0.576853
7.57676e-08
1.1835e-07
2.01854e-07
4.37958e-07
7.57758e-07
1.54442e-06
9.72445e-06
8.24771e-05
0.000521823
0.00276305
0.0102394
0.0278959
0.0571346
0.0949089
0.137737
0.182014
0.224888
0.264469
0.299716
0.330421
0.356615
0.379022
0.398239
0.414945
0.429484
0.441973
0.4546
0.466573
0.478079
0.489213
0.500046
0.510615
0.520929
0.530974
0.540718
0.55012
0.559139
0.567734
0.575872
0.583528
1.70927e-08
3.75279e-08
9.26452e-08
1.91353e-07
3.82446e-07
2.14845e-06
2.19015e-05
0.000172395
0.00112861
0.00506024
0.016145
0.0386813
0.0715961
0.112203
0.156934
0.202225
0.245346
0.284569
0.319029
0.348397
0.374051
0.39565
0.414128
0.430129
0.443619
0.455921
0.46836
0.479918
0.490928
0.501526
0.511784
0.521738
0.5314
0.540763
0.549803
0.558494
0.566805
0.574709
0.582183
0.589211
3.95199e-09
1.16276e-08
3.97002e-08
8.39368e-08
3.93129e-07
4.69994e-06
4.91405e-05
0.000380722
0.00209519
0.00802208
0.0226029
0.0486625
0.0845583
0.127486
0.173768
0.219853
0.263112
0.301981
0.335858
0.364595
0.389195
0.410019
0.427809
0.442727
0.45569
0.468384
0.48025
0.491367
0.501923
0.512038
0.521782
0.531193
0.540285
0.549056
0.557493
0.565579
0.573292
0.580614
0.587532
0.594035
1.11221e-09
3.56774e-09
1.29562e-08
6.49944e-08
8.32681e-07
1.07717e-05
0.000101236
0.000706094
0.00328504
0.0110538
0.0284995
0.0572825
0.0956693
0.140582
0.188201
0.234964
0.278315
0.316848
0.350148
0.378298
0.402152
0.422337
0.439242
0.453071
0.466593
0.478936
0.490385
0.501106
0.511256
0.520945
0.530239
0.539177
0.547777
0.556044
0.563969
0.571544
0.578756
0.585592
0.592046
0.598112
4.39845e-10
1.70887e-09
1.33902e-08
1.73147e-07
2.25282e-06
2.4083e-05
0.000195053
0.00108695
0.00442748
0.0137091
0.0334112
0.0644153
0.104916
0.151557
0.200355
0.247712
0.291151
0.329379
0.362003
0.389822
0.413114
0.432683
0.448525
0.462253
0.475742
0.487814
0.49893
0.50931
0.519108
0.528427
0.537334
0.545868
0.55405
0.56189
0.569387
0.576535
0.583329
0.589763
0.595832
0.601536
3.70276e-10
2.76325e-09
3.68612e-08
4.77244e-07
5.17481e-06
4.60536e-05
0.000296228
0.00143807
0.00539611
0.0158745
0.0373332
0.0701647
0.112455
0.160593
0.210428
0.258317
0.301856
0.339883
0.372223
0.39948
0.422302
0.440987
0.455946
0.470393
0.483435
0.495221
0.506052
0.516142
0.525639
0.534645
0.543223
0.551417
0.55925
0.566735
0.573876
0.580672
0.587122
0.593225
0.598978
0.604385
5.35415e-10
5.3096e-09
7.75351e-08
9.40551e-07
9.23169e-06
6.92809e-05
0.00039094
0.00174028
0.00618531
0.0175933
0.0403784
0.0746975
0.118482
0.167896
0.218627
0.266991
0.310636
0.348517
0.380577
0.407437
0.429781
0.447494
0.462448
0.47696
0.489755
0.501302
0.511896
0.521744
0.53099
0.539734
0.54804
0.555954
0.563499
0.570693
0.577543
0.584053
0.590224
0.596058
0.601556
0.606721
7.95255e-10
8.43764e-09
1.2542e-07
1.46861e-06
1.32936e-05
9.08223e-05
0.00047332
0.00199008
0.00681114
0.0189236
0.0426902
0.0781867
0.123187
0.173661
0.225149
0.273921
0.31767
0.355443
0.387279
0.413877
0.435607
0.452271
0.468125
0.482262
0.494834
0.506183
0.516583
0.526234
0.535276
0.543808
0.551895
0.559582
0.566897
0.573858
0.580476
0.586758
0.592707
0.598327
0.603622
0.608596
1.05809e-09
1.13499e-08
1.69038e-07
1.94537e-06
1.69084e-05
0.000109191
0.000540888
0.00218769
0.00729008
0.0199169
0.0443967
0.0807865
0.126736
0.178057
0.230158
0.279267
0.323107
0.360793
0.392466
0.418853
0.43996
0.45629
0.472361
0.486351
0.498766
0.509963
0.520212
0.529708
0.538591
0.546957
0.554874
0.562385
0.569521
0.576303
0.582743
0.588848
0.594627
0.600083
0.605222
0.610049
1.27095e-09
1.35866e-08
2.02145e-07
2.31814e-06
1.97705e-05
0.000123418
0.000592007
0.00233376
0.00763581
0.0206196
0.045594
0.0826225
0.12927
0.181224
0.233789
0.283156
0.327068
0.364681
0.396252
0.422479
0.443089
0.459302
0.475409
0.489321
0.50163
0.512718
0.522857
0.53224
0.541006
0.549251
0.557042
0.564425
0.571432
0.578082
0.584392
0.590371
0.596025
0.601363
0.606389
0.611109
1.41493e-09
1.50123e-08
2.22974e-07
2.56432e-06
2.17042e-05
0.000132935
0.000625776
0.0024289
0.00785766
0.0210648
0.0463495
0.0837861
0.130887
0.18326
0.236135
0.285675
0.32964
0.367235
0.398728
0.424815
0.445094
0.46127
0.477372
0.491238
0.503482
0.514501
0.524568
0.533878
0.542567
0.550734
0.558444
0.565744
0.572666
0.579232
0.585458
0.591355
0.59693
0.60219
0.607144
0.611796
1.47933e-09
1.56508e-08
2.32376e-07
2.67798e-06
2.25921e-05
0.000137271
0.0006411
0.00247175
0.00795678
0.0212626
0.0466849
0.0843047
0.131612
0.184174
0.237191
0.28681
0.3308
0.368386
0.399852
0.425861
0.445991
0.462158
0.478254
0.492099
0.504315
0.515303
0.525338
0.534614
0.54327
0.551401
0.559074
0.566337
0.573221
0.57975
0.585938
0.591797
0.597336
0.602563
0.607483
0.612105
0.675272
0.675267
0.675264
0.675261
0.675259
0.675257
0.675255
0.675253
0.675251
0.675249
0.675247
0.675245
0.675243
0.675241
0.67524
0.675238
0.675236
0.675235
0.675233
0.675232
0.67523
0.675229
0.675228
0.675226
0.675225
0.675224
0.675223
0.675222
0.675221
0.67522
0.67522
0.675219
0.675218
0.675218
0.675217
0.675217
0.675217
0.675216
0.675216
0.675216
0.675271
0.675267
0.675264
0.675261
0.675259
0.675257
0.675254
0.675252
0.67525
0.675248
0.675247
0.675245
0.675243
0.675241
0.675239
0.675238
0.675236
0.675234
0.675233
0.675231
0.67523
0.675229
0.675227
0.675226
0.675225
0.675224
0.675223
0.675222
0.675221
0.67522
0.675219
0.675219
0.675218
0.675217
0.675217
0.675217
0.675216
0.675216
0.675216
0.675216
0.675271
0.675267
0.675263
0.675261
0.675258
0.675256
0.675254
0.675252
0.67525
0.675248
0.675246
0.675244
0.675243
0.675241
0.675239
0.675237
0.675236
0.675234
0.675233
0.675231
0.67523
0.675228
0.675227
0.675226
0.675225
0.675223
0.675222
0.675221
0.67522
0.67522
0.675219
0.675218
0.675217
0.675217
0.675216
0.675216
0.675216
0.675216
0.675215
0.675215
0.675271
0.675266
0.675263
0.675261
0.675258
0.675256
0.675254
0.675252
0.67525
0.675248
0.675246
0.675244
0.675242
0.67524
0.675239
0.675237
0.675235
0.675234
0.675232
0.675231
0.675229
0.675228
0.675227
0.675225
0.675224
0.675223
0.675222
0.675221
0.67522
0.675219
0.675218
0.675218
0.675217
0.675216
0.675216
0.675216
0.675215
0.675215
0.675215
0.675215
0.67527
0.675266
0.675263
0.67526
0.675258
0.675256
0.675253
0.675251
0.675249
0.675247
0.675245
0.675244
0.675242
0.67524
0.675238
0.675236
0.675235
0.675233
0.675232
0.67523
0.675229
0.675227
0.675226
0.675225
0.675223
0.675222
0.675221
0.67522
0.675219
0.675218
0.675218
0.675217
0.675216
0.675216
0.675215
0.675215
0.675215
0.675214
0.675214
0.675214
0.67527
0.675266
0.675263
0.67526
0.675258
0.675255
0.675253
0.675251
0.675249
0.675247
0.675245
0.675243
0.675241
0.67524
0.675238
0.675236
0.675234
0.675233
0.675231
0.67523
0.675228
0.675227
0.675225
0.675224
0.675223
0.675222
0.675221
0.67522
0.675219
0.675218
0.675217
0.675216
0.675216
0.675215
0.675215
0.675214
0.675214
0.675214
0.675214
0.675214
0.67527
0.675266
0.675262
0.67526
0.675257
0.675255
0.675253
0.675251
0.675249
0.675247
0.675245
0.675243
0.675241
0.675239
0.675237
0.675236
0.675234
0.675232
0.675231
0.675229
0.675228
0.675226
0.675225
0.675224
0.675222
0.675221
0.67522
0.675219
0.675218
0.675217
0.675216
0.675216
0.675215
0.675215
0.675214
0.675214
0.675213
0.675213
0.675213
0.675213
0.67527
0.675265
0.675262
0.675259
0.675257
0.675255
0.675253
0.67525
0.675248
0.675246
0.675244
0.675242
0.675241
0.675239
0.675237
0.675235
0.675233
0.675232
0.67523
0.675229
0.675227
0.675226
0.675224
0.675223
0.675222
0.675221
0.67522
0.675218
0.675218
0.675217
0.675216
0.675215
0.675214
0.675214
0.675213
0.675213
0.675213
0.675212
0.675212
0.675212
0.675269
0.675265
0.675262
0.675259
0.675257
0.675254
0.675252
0.67525
0.675248
0.675246
0.675244
0.675242
0.67524
0.675238
0.675236
0.675235
0.675233
0.675231
0.67523
0.675228
0.675227
0.675225
0.675224
0.675222
0.675221
0.67522
0.675219
0.675218
0.675217
0.675216
0.675215
0.675215
0.675214
0.675213
0.675213
0.675212
0.675212
0.675212
0.675212
0.675212
0.675269
0.675265
0.675262
0.675259
0.675256
0.675254
0.675252
0.67525
0.675248
0.675246
0.675244
0.675242
0.67524
0.675238
0.675236
0.675234
0.675232
0.675231
0.675229
0.675228
0.675226
0.675225
0.675223
0.675222
0.675221
0.675219
0.675218
0.675217
0.675216
0.675215
0.675215
0.675214
0.675213
0.675213
0.675212
0.675212
0.675211
0.675211
0.675211
0.675211
0.675269
0.675265
0.675261
0.675259
0.675256
0.675254
0.675252
0.675249
0.675247
0.675245
0.675243
0.675241
0.675239
0.675237
0.675236
0.675234
0.675232
0.67523
0.675229
0.675227
0.675226
0.675224
0.675223
0.675221
0.67522
0.675219
0.675218
0.675217
0.675216
0.675215
0.675214
0.675213
0.675213
0.675212
0.675211
0.675211
0.675211
0.675211
0.67521
0.67521
0.675269
0.675264
0.675261
0.675258
0.675256
0.675253
0.675251
0.675249
0.675247
0.675245
0.675243
0.675241
0.675239
0.675237
0.675235
0.675233
0.675231
0.67523
0.675228
0.675227
0.675225
0.675224
0.675222
0.675221
0.675219
0.675218
0.675217
0.675216
0.675215
0.675214
0.675213
0.675213
0.675212
0.675211
0.675211
0.67521
0.67521
0.67521
0.67521
0.67521
0.675268
0.675264
0.675261
0.675258
0.675255
0.675253
0.675251
0.675249
0.675247
0.675244
0.675242
0.67524
0.675238
0.675237
0.675235
0.675233
0.675231
0.675229
0.675228
0.675226
0.675224
0.675223
0.675222
0.67522
0.675219
0.675218
0.675217
0.675215
0.675214
0.675214
0.675213
0.675212
0.675211
0.675211
0.67521
0.67521
0.675209
0.675209
0.675209
0.675209
0.675268
0.675264
0.67526
0.675258
0.675255
0.675253
0.675251
0.675248
0.675246
0.675244
0.675242
0.67524
0.675238
0.675236
0.675234
0.675232
0.675231
0.675229
0.675227
0.675225
0.675224
0.675222
0.675221
0.67522
0.675218
0.675217
0.675216
0.675215
0.675214
0.675213
0.675212
0.675211
0.675211
0.67521
0.67521
0.675209
0.675209
0.675208
0.675208
0.675208
0.675268
0.675263
0.67526
0.675257
0.675255
0.675253
0.67525
0.675248
0.675246
0.675244
0.675242
0.67524
0.675238
0.675236
0.675234
0.675232
0.67523
0.675228
0.675227
0.675225
0.675223
0.675222
0.67522
0.675219
0.675218
0.675216
0.675215
0.675214
0.675213
0.675212
0.675211
0.675211
0.67521
0.675209
0.675209
0.675208
0.675208
0.675208
0.675208
0.675208
0.675268
0.675263
0.67526
0.675257
0.675255
0.675252
0.67525
0.675248
0.675246
0.675243
0.675241
0.675239
0.675237
0.675235
0.675233
0.675231
0.67523
0.675228
0.675226
0.675224
0.675223
0.675221
0.67522
0.675218
0.675217
0.675216
0.675215
0.675214
0.675213
0.675212
0.675211
0.67521
0.675209
0.675209
0.675208
0.675208
0.675207
0.675207
0.675207
0.675207
0.675267
0.675263
0.67526
0.675257
0.675254
0.675252
0.67525
0.675247
0.675245
0.675243
0.675241
0.675239
0.675237
0.675235
0.675233
0.675231
0.675229
0.675227
0.675226
0.675224
0.675222
0.675221
0.675219
0.675218
0.675217
0.675215
0.675214
0.675213
0.675212
0.675211
0.67521
0.675209
0.675209
0.675208
0.675207
0.675207
0.675207
0.675206
0.675206
0.675206
0.675267
0.675263
0.675259
0.675257
0.675254
0.675252
0.675249
0.675247
0.675245
0.675243
0.675241
0.675238
0.675236
0.675234
0.675232
0.67523
0.675229
0.675227
0.675225
0.675223
0.675222
0.67522
0.675219
0.675217
0.675216
0.675215
0.675213
0.675212
0.675211
0.67521
0.675209
0.675209
0.675208
0.675207
0.675207
0.675206
0.675206
0.675206
0.675206
0.675206
0.675267
0.675262
0.675259
0.675256
0.675254
0.675251
0.675249
0.675247
0.675245
0.675242
0.67524
0.675238
0.675236
0.675234
0.675232
0.67523
0.675228
0.675226
0.675225
0.675223
0.675221
0.67522
0.675218
0.675217
0.675215
0.675214
0.675213
0.675212
0.675211
0.67521
0.675209
0.675208
0.675207
0.675207
0.675206
0.675206
0.675205
0.675205
0.675205
0.675205
0.675267
0.675262
0.675259
0.675256
0.675254
0.675251
0.675249
0.675246
0.675244
0.675242
0.67524
0.675238
0.675236
0.675234
0.675232
0.67523
0.675228
0.675226
0.675224
0.675222
0.675221
0.675219
0.675218
0.675216
0.675215
0.675213
0.675212
0.675211
0.67521
0.675209
0.675208
0.675207
0.675207
0.675206
0.675205
0.675205
0.675205
0.675204
0.675204
0.675204
0.675266
0.675262
0.675259
0.675256
0.675253
0.675251
0.675248
0.675246
0.675244
0.675242
0.675239
0.675237
0.675235
0.675233
0.675231
0.675229
0.675227
0.675225
0.675224
0.675222
0.67522
0.675219
0.675217
0.675216
0.675214
0.675213
0.675212
0.67521
0.675209
0.675208
0.675207
0.675207
0.675206
0.675205
0.675205
0.675204
0.675204
0.675204
0.675204
0.675203
0.675266
0.675262
0.675258
0.675256
0.675253
0.675251
0.675248
0.675246
0.675244
0.675241
0.675239
0.675237
0.675235
0.675233
0.675231
0.675229
0.675227
0.675225
0.675223
0.675221
0.67522
0.675218
0.675216
0.675215
0.675214
0.675212
0.675211
0.67521
0.675209
0.675208
0.675207
0.675206
0.675205
0.675205
0.675204
0.675204
0.675203
0.675203
0.675203
0.675203
0.675266
0.675262
0.675258
0.675255
0.675253
0.67525
0.675248
0.675245
0.675243
0.675241
0.675239
0.675236
0.675234
0.675232
0.67523
0.675228
0.675226
0.675224
0.675222
0.675221
0.675219
0.675217
0.675216
0.675214
0.675213
0.675212
0.67521
0.675209
0.675208
0.675207
0.675206
0.675205
0.675205
0.675204
0.675203
0.675203
0.675203
0.675202
0.675202
0.675202
0.675266
0.675261
0.675258
0.675255
0.675252
0.67525
0.675248
0.675245
0.675243
0.675241
0.675238
0.675236
0.675234
0.675232
0.67523
0.675228
0.675226
0.675224
0.675222
0.67522
0.675218
0.675217
0.675215
0.675214
0.675212
0.675211
0.67521
0.675209
0.675207
0.675206
0.675205
0.675205
0.675204
0.675203
0.675203
0.675202
0.675202
0.675202
0.675201
0.675201
0.675266
0.675261
0.675258
0.675255
0.675252
0.67525
0.675247
0.675245
0.675243
0.67524
0.675238
0.675236
0.675234
0.675231
0.675229
0.675227
0.675225
0.675223
0.675221
0.67522
0.675218
0.675216
0.675215
0.675213
0.675212
0.67521
0.675209
0.675208
0.675207
0.675206
0.675205
0.675204
0.675203
0.675203
0.675202
0.675202
0.675201
0.675201
0.675201
0.675201
0.675265
0.675261
0.675257
0.675255
0.675252
0.675249
0.675247
0.675245
0.675242
0.67524
0.675238
0.675235
0.675233
0.675231
0.675229
0.675227
0.675225
0.675223
0.675221
0.675219
0.675217
0.675216
0.675214
0.675213
0.675211
0.67521
0.675208
0.675207
0.675206
0.675205
0.675204
0.675203
0.675203
0.675202
0.675201
0.675201
0.6752
0.6752
0.6752
0.6752
0.675265
0.675261
0.675257
0.675254
0.675252
0.675249
0.675247
0.675244
0.675242
0.67524
0.675237
0.675235
0.675233
0.675231
0.675228
0.675226
0.675224
0.675222
0.67522
0.675219
0.675217
0.675215
0.675214
0.675212
0.675211
0.675209
0.675208
0.675207
0.675205
0.675204
0.675203
0.675203
0.675202
0.675201
0.675201
0.6752
0.6752
0.675199
0.675199
0.675199
0.675265
0.67526
0.675257
0.675254
0.675251
0.675249
0.675246
0.675244
0.675242
0.675239
0.675237
0.675235
0.675232
0.67523
0.675228
0.675226
0.675224
0.675222
0.67522
0.675218
0.675216
0.675215
0.675213
0.675211
0.67521
0.675208
0.675207
0.675206
0.675205
0.675204
0.675203
0.675202
0.675201
0.675201
0.6752
0.675199
0.675199
0.675199
0.675199
0.675199
0.675265
0.67526
0.675257
0.675254
0.675251
0.675249
0.675246
0.675244
0.675241
0.675239
0.675237
0.675234
0.675232
0.67523
0.675227
0.675225
0.675223
0.675221
0.675219
0.675217
0.675216
0.675214
0.675212
0.675211
0.675209
0.675208
0.675207
0.675205
0.675204
0.675203
0.675202
0.675201
0.6752
0.6752
0.675199
0.675199
0.675198
0.675198
0.675198
0.675198
0.675265
0.67526
0.675257
0.675254
0.675251
0.675248
0.675246
0.675243
0.675241
0.675239
0.675236
0.675234
0.675232
0.675229
0.675227
0.675225
0.675223
0.675221
0.675219
0.675217
0.675215
0.675213
0.675212
0.67521
0.675209
0.675207
0.675206
0.675205
0.675203
0.675202
0.675201
0.675201
0.6752
0.675199
0.675199
0.675198
0.675198
0.675197
0.675197
0.675197
0.675264
0.67526
0.675256
0.675253
0.675251
0.675248
0.675246
0.675243
0.675241
0.675238
0.675236
0.675233
0.675231
0.675229
0.675227
0.675224
0.675222
0.67522
0.675218
0.675216
0.675215
0.675213
0.675211
0.67521
0.675208
0.675207
0.675205
0.675204
0.675203
0.675202
0.675201
0.6752
0.675199
0.675198
0.675198
0.675197
0.675197
0.675197
0.675196
0.675196
0.675264
0.67526
0.675256
0.675253
0.67525
0.675248
0.675245
0.675243
0.67524
0.675238
0.675235
0.675233
0.675231
0.675228
0.675226
0.675224
0.675222
0.67522
0.675218
0.675216
0.675214
0.675212
0.675211
0.675209
0.675207
0.675206
0.675205
0.675203
0.675202
0.675201
0.6752
0.675199
0.675198
0.675198
0.675197
0.675197
0.675196
0.675196
0.675196
0.675196
0.675264
0.675259
0.675256
0.675253
0.67525
0.675248
0.675245
0.675242
0.67524
0.675237
0.675235
0.675233
0.67523
0.675228
0.675226
0.675224
0.675221
0.675219
0.675217
0.675215
0.675213
0.675212
0.67521
0.675208
0.675207
0.675205
0.675204
0.675203
0.675201
0.6752
0.675199
0.675198
0.675198
0.675197
0.675196
0.675196
0.675195
0.675195
0.675195
0.675195
0.675264
0.675259
0.675256
0.675253
0.67525
0.675247
0.675245
0.675242
0.67524
0.675237
0.675235
0.675232
0.67523
0.675228
0.675225
0.675223
0.675221
0.675219
0.675217
0.675215
0.675213
0.675211
0.675209
0.675208
0.675206
0.675205
0.675203
0.675202
0.675201
0.6752
0.675199
0.675198
0.675197
0.675196
0.675196
0.675195
0.675195
0.675194
0.675194
0.675194
0.675264
0.675259
0.675256
0.675253
0.67525
0.675247
0.675244
0.675242
0.675239
0.675237
0.675234
0.675232
0.67523
0.675227
0.675225
0.675223
0.67522
0.675218
0.675216
0.675214
0.675212
0.675211
0.675209
0.675207
0.675206
0.675204
0.675203
0.675201
0.6752
0.675199
0.675198
0.675197
0.675196
0.675196
0.675195
0.675194
0.675194
0.675194
0.675193
0.675193
0.675264
0.675259
0.675255
0.675252
0.67525
0.675247
0.675244
0.675242
0.675239
0.675237
0.675234
0.675232
0.675229
0.675227
0.675224
0.675222
0.67522
0.675218
0.675216
0.675214
0.675212
0.67521
0.675208
0.675207
0.675205
0.675203
0.675202
0.675201
0.675199
0.675198
0.675197
0.675196
0.675196
0.675195
0.675194
0.675194
0.675193
0.675193
0.675193
0.675193
0.675263
0.675259
0.675255
0.675252
0.675249
0.675247
0.675244
0.675241
0.675239
0.675236
0.675234
0.675231
0.675229
0.675226
0.675224
0.675222
0.675219
0.675217
0.675215
0.675213
0.675211
0.675209
0.675208
0.675206
0.675204
0.675203
0.675201
0.6752
0.675199
0.675198
0.675197
0.675196
0.675195
0.675194
0.675193
0.675193
0.675193
0.675192
0.675192
0.675192
0.675263
0.675259
0.675255
0.675252
0.675249
0.675246
0.675244
0.675241
0.675238
0.675236
0.675233
0.675231
0.675228
0.675226
0.675224
0.675221
0.675219
0.675217
0.675215
0.675213
0.675211
0.675209
0.675207
0.675205
0.675204
0.675202
0.675201
0.675199
0.675198
0.675197
0.675196
0.675195
0.675194
0.675193
0.675193
0.675192
0.675192
0.675191
0.675191
0.675191
0.675263
0.675258
0.675255
0.675252
0.675249
0.675246
0.675243
0.675241
0.675238
0.675236
0.675233
0.67523
0.675228
0.675226
0.675223
0.675221
0.675218
0.675216
0.675214
0.675212
0.67521
0.675208
0.675206
0.675205
0.675203
0.675201
0.6752
0.675199
0.675197
0.675196
0.675195
0.675194
0.675193
0.675193
0.675192
0.675191
0.675191
0.675191
0.67519
0.67519
0.675263
0.675258
0.675255
0.675252
0.675249
0.675246
0.675243
0.675241
0.675238
0.675235
0.675233
0.67523
0.675228
0.675225
0.675223
0.67522
0.675218
0.675216
0.675214
0.675212
0.67521
0.675208
0.675206
0.675204
0.675202
0.675201
0.675199
0.675198
0.675197
0.675196
0.675194
0.675193
0.675193
0.675192
0.675191
0.675191
0.67519
0.67519
0.67519
0.67519
0.675263
0.675258
0.675254
0.675251
0.675249
0.675246
0.675243
0.67524