/*--------------------------------*- C++ -*----------------------------------*\
| =========                 |                                                 |
| \\      /  F ield         | OpenFOAM: The Open Source CFD Toolbox           |
|  \\    /   O peration     | Version:  2.3.0                                 |
|   \\  /    A nd           | Web:      www.OpenFOAM.org                      |
|    \\/     M anipulation  |                                                 |
\*---------------------------------------------------------------------------*/
FoamFile
{
    version     2.0;
    format      ascii;
    class       volScalarField;
    location    "20";
    object      O2;
}
// * * * * * * * * * * * * * * * * * * * * * * * * * * * * * * * * * * * * * //

dimensions      [0 0 0 0 0 0 0];

internalField   nonuniform List<scalar> 
26600
(
0.234
0.234
0.234
0.234
0.234
0.234
0.234
0.233999
0.233998
0.233994
0.233986
0.233971
0.233946
0.233905
0.233853
0.233781
0.233698
0.233615
0.23352
0.233404
0.233278
0.233137
0.232985
0.232829
0.232666
0.2325
0.232323
0.232145
0.231961
0.231776
0.231575
0.231365
0.231136
0.230901
0.230632
0.23039
0.230099
0.22985
0.2295
0.228962
0.234
0.234
0.234
0.234
0.234
0.234
0.233998
0.233994
0.233983
0.233965
0.233928
0.233851
0.233761
0.233578
0.233427
0.233139
0.232927
0.232544
0.232261
0.231768
0.231399
0.230889
0.230376
0.229829
0.229231
0.228762
0.227955
0.227418
0.226606
0.22613
0.22517
0.224578
0.224093
0.223447
0.223096
0.222538
0.222168
0.221489
0.220844
0.220066
0.234
0.234
0.234
0.234
0.234
0.233998
0.233991
0.233975
0.233937
0.233859
0.233719
0.233512
0.233242
0.232834
0.232425
0.231798
0.231266
0.230462
0.229846
0.228791
0.228079
0.226852
0.225695
0.224674
0.222793
0.221757
0.220832
0.219654
0.218278
0.217207
0.21599
0.214931
0.213368
0.212434
0.210617
0.209149
0.207534
0.205887
0.204284
0.202734
0.234
0.234
0.234
0.234
0.233998
0.233992
0.233973
0.233927
0.233823
0.233644
0.233346
0.232951
0.232401
0.231654
0.230851
0.229702
0.228739
0.227264
0.226164
0.224211
0.222905
0.22008
0.218506
0.217334
0.21477
0.212759
0.210043
0.207659
0.20558
0.2035
0.201064
0.198938
0.19609
0.194139
0.190002
0.187242
0.184136
0.180735
0.177489
0.176828
0.234
0.234
0.234
0.233999
0.233994
0.233977
0.233931
0.233826
0.233594
0.233233
0.232665
0.231951
0.23091
0.229604
0.228127
0.226133
0.224547
0.221856
0.220057
0.216249
0.214007
0.210963
0.207249
0.203493
0.199813
0.196117
0.189821
0.184939
0.179358
0.173875
0.168295
0.162503
0.156682
0.150428
0.144599
0.137951
0.132353
0.123294
0.117121
0.121124
0.234
0.234
0.234
0.233997
0.233984
0.233943
0.233841
0.233619
0.233132
0.232459
0.231418
0.230136
0.228185
0.225956
0.223194
0.219881
0.217293
0.212029
0.209355
0.204025
0.199162
0.190716
0.182063
0.175949
0.168753
0.159268
0.149895
0.142057
0.132012
0.125502
0.120266
0.114307
0.106291
0.0989031
0.0892818
0.0795801
0.0701641
0.0587742
0.0503123
0.0580149
0.234
0.234
0.233999
0.23399
0.233959
0.233869
0.233652
0.233206
0.232233
0.231043
0.229168
0.226808
0.223095
0.219323
0.213709
0.208773
0.204051
0.196156
0.187052
0.177968
0.167776
0.155365
0.144878
0.137956
0.127262
0.116997
0.10507
0.0903387
0.0762774
0.065908
0.0579606
0.0499681
0.0427768
0.0364845
0.0283694
0.0126028
0.00234784
0.00111713
0.000831758
0.000928736
0.234
0.234
0.233995
0.233974
0.233904
0.233714
0.233268
0.232411
0.230536
0.228515
0.225118
0.220444
0.213103
0.206801
0.199032
0.188782
0.176953
0.163881
0.152651
0.140594
0.129927
0.114728
0.104312
0.0874859
0.0692263
0.0507959
0.0396552
0.0269813
0.00510908
0.00161286
0.000985392
0.000797286
0.000731323
0.000693526
0.000642482
0.000467881
0.000245864
0.000201673
0.000202309
0.000225501
0.234
0.233998
0.233985
0.233937
0.233788
0.233395
0.232502
0.230916
0.227341
0.224021
0.217505
0.206967
0.198131
0.184557
0.169515
0.154493
0.140617
0.124112
0.107721
0.088512
0.0710359
0.0500464
0.0396739
0.0109946
0.00260428
0.00109538
0.000782756
0.000703069
0.000380999
0.000243227
0.000204236
0.000206609
0.000220345
0.000247132
0.000293394
0.000338762
0.00038235
0.000421445
0.000455288
0.000457985
0.234
0.233993
0.233964
0.233859
0.233543
0.232737
0.231
0.228085
0.221224
0.215811
0.200885
0.185977
0.168403
0.150668
0.132682
0.109567
0.0820839
0.054958
0.0399599
0.0168953
0.002758
0.00105506
0.000789425
0.000437739
0.000364706
0.000378622
0.000410882
0.000467378
0.000487778
0.000510128
0.00053276
0.00057018
0.000606722
0.00063296
0.000653212
0.0006565
0.000654163
0.000647023
0.000633655
0.000612407
0.233998
0.233983
0.233919
0.233693
0.233024
0.23135
0.228034
0.222559
0.210029
0.20028
0.172041
0.151967
0.132113
0.0988973
0.0596318
0.0402111
0.00500471
0.00130373
0.000702441
0.000430043
0.000319303
0.000360956
0.000474644
0.000741923
0.000970369
0.00101048
0.000999449
0.00097115
0.000933224
0.000900819
0.000871792
0.000849394
0.000818352
0.000800392
0.000782028
0.000753917
0.000726065
0.000706536
0.000675746
0.000640824
0.233996
0.233964
0.233825
0.233338
0.231897
0.228196
0.222218
0.210476
0.19042
0.164304
0.14129
0.101707
0.0553727
0.0285811
0.00296458
0.000862407
0.00028633
0.000283237
0.000398739
0.00067536
0.00119108
0.00140663
0.00140773
0.0013749
0.00130723
0.0012096
0.00113238
0.00107078
0.00102171
0.000967677
0.000926645
0.000887442
0.00084278
0.000811049
0.000774958
0.00073798
0.000705074
0.000672635
0.000641079
0.000599732
0.233991
0.233925
0.233615
0.232542
0.229292
0.220545
0.210346
0.189911
0.15793
0.124426
0.0696739
0.0344966
0.00297601
0.000737578
0.000292207
0.000364234
0.000776401
0.00162639
0.00198992
0.00194841
0.0018386
0.00167504
0.00152033
0.00136178
0.00125915
0.00115276
0.00109002
0.00101032
0.000952555
0.000905216
0.000860826
0.000819546
0.000781429
0.000747286
0.000714504
0.000682627
0.000653835
0.000623393
0.000591928
0.000555123
0.233982
0.233836
0.233102
0.230599
0.222567
0.211599
0.186217
0.150733
0.108476
0.051374
0.00480326
0.000962845
0.000309918
0.000376582
0.00100167
0.00246269
0.00282105
0.00266326
0.00236109
0.00200395
0.00167343
0.00143107
0.00131118
0.00122198
0.00110564
0.00101086
0.000945021
0.000887392
0.000848526
0.000810885
0.000775043
0.000741641
0.000710742
0.000681782
0.000653474
0.000625162
0.000594306
0.000563666
0.000531239
0.000494293
0.23396
0.233605
0.231594
0.225035
0.214323
0.18594
0.147069
0.101108
0.0428816
0.00331945
0.000634248
0.000382005
0.000999741
0.00285414
0.00370596
0.00355698
0.00314718
0.00238759
0.00191969
0.00151601
0.00135206
0.00122414
0.00109876
0.00100789
0.000924827
0.000858451
0.000809102
0.000769748
0.00073185
0.000703598
0.000678991
0.000655936
0.000633511
0.000610969
0.00058762
0.00056292
0.00053605
0.000506975
0.000474994
0.000438695
0.233915
0.232786
0.225699
0.217099
0.189878
0.147419
0.0961803
0.0401769
0.00297759
0.000717278
0.000871344
0.00220989
0.00460832
0.00464388
0.00418288
0.00328843
0.00239756
0.00165698
0.00141424
0.0012344
0.00110228
0.000971008
0.000872015
0.000779376
0.000722522
0.000685932
0.0006614
0.000642954
0.000626035
0.000610915
0.000596334
0.000581317
0.000565226
0.000547551
0.00052788
0.000505847
0.000481103
0.000453442
0.000422558
0.000387918
0.233727
0.228625
0.217661
0.191311
0.147171
0.0947699
0.0395743
0.00297343
0.000918226
0.00192601
0.00497146
0.00588937
0.00560458
0.004757
0.00309555
0.00214761
0.00146843
0.0012402
0.00109629
0.000940556
0.000771555
0.0006765
0.000622148
0.000586209
0.000564991
0.000553303
0.00054715
0.000542993
0.000538438
0.00053278
0.000525606
0.000516375
0.000504738
0.000490435
0.000473264
0.000453079
0.000429806
0.000403445
0.000374037
0.000341642
0.233291
0.218272
0.188571
0.146854
0.0903751
0.0349726
0.00290195
0.00153991
0.00376081
0.00729753
0.0071255
0.00639856
0.00483492
0.00311527
0.00180408
0.00129993
0.00106837
0.00091886
0.00070466
0.000583397
0.000511966
0.000473665
0.000456167
0.00045033
0.000451196
0.000455026
0.000460537
0.000465267
0.000468019
0.000468123
0.000465744
0.000460113
0.000451151
0.000438869
0.000423238
0.000404307
0.000382207
0.000357177
0.000329542
0.000299737
0.231675
0.174218
0.141485
0.0978823
0.0166281
0.00311363
0.00418296
0.00915841
0.00936264
0.00865316
0.00702164
0.00486731
0.00293505
0.00148166
0.00108438
0.000860208
0.000714669
0.000527527
0.000420925
0.000370373
0.000348707
0.000344141
0.000348533
0.000358742
0.000371518
0.000384272
0.000395943
0.000405412
0.000411928
0.000415085
0.000414778
0.0004111
0.000403428
0.000392161
0.000377406
0.000359369
0.000338353
0.00031478
0.00028916
0.000262124
0.225
0.149984
0.114994
0.0253266
0.00735073
0.0139115
0.0136086
0.0121928
0.00952547
0.00645742
0.00405673
0.00229522
0.00108749
0.000796456
0.000642082
0.000511336
0.000354457
0.000283315
0.000253507
0.000246725
0.000251508
0.000263887
0.000280656
0.000298873
0.000316964
0.000333549
0.000347795
0.000359036
0.000366816
0.000370894
0.000371169
0.000367913
0.000360639
0.000349749
0.000335505
0.000318228
0.000298341
0.000276376
0.000252938
0.000228722
0.0027674
0.0398386
0.0403775
0.0349875
0.0295256
0.0207676
0.0137051
0.00869966
0.00536866
0.00301691
0.00163955
0.00072094
0.000502751
0.000404348
0.000261578
0.000207959
0.000175156
0.000163934
0.000167095
0.000178662
0.000196697
0.000217192
0.000238728
0.000259858
0.000279507
0.000296823
0.000311225
0.00032228
0.000329701
0.000333357
0.000333237
0.000329552
0.000322096
0.000311273
0.000297411
0.000280916
0.000262287
0.000242083
0.000220917
0.000199456
0.000182456
0.0026782
0.00499474
0.0049569
0.00421972
0.0028758
0.00171932
0.00102175
0.000576953
0.000354641
0.000219075
0.000197795
0.00018316
0.000132484
0.000103573
9.64273e-05
9.95164e-05
0.000109352
0.000125701
0.000145447
0.000167609
0.000190546
0.000213043
0.000234151
0.000253118
0.000269364
0.00028248
0.000292181
0.000298292
0.000300776
0.000299722
0.000295237
0.000287398
0.000276566
0.000263121
0.000247503
0.00023023
0.00021185
0.000192935
0.000174066
2.49475e-05
0.000164216
0.000402567
0.000419024
0.00039753
0.000304012
0.000207671
0.000152943
9.55506e-05
7.49062e-05
6.94619e-05
6.70774e-05
5.33133e-05
4.73281e-05
4.85162e-05
5.59681e-05
7.02191e-05
8.78232e-05
0.000108278
0.000130311
0.000153084
0.00017563
0.000197032
0.000216543
0.000233606
0.000247811
0.000258886
0.000266649
0.000270988
0.000272008
0.000269794
0.000264467
0.000256244
0.000245472
0.000232548
0.000217916
0.000202068
0.000185515
0.000168754
0.000152263
5.63473e-06
1.85726e-05
4.82366e-05
6.65321e-05
6.86649e-05
6.42161e-05
4.69998e-05
3.6701e-05
2.94812e-05
2.72597e-05
2.02948e-05
1.85537e-05
1.89094e-05
2.23018e-05
3.08407e-05
4.42651e-05
6.16124e-05
8.14129e-05
0.000102716
0.000124578
0.000146299
0.000167169
0.000186467
0.000203615
0.000218206
0.00022996
0.000238707
0.000244326
0.000246804
0.000246351
0.000242998
0.000236943
0.000228456
0.000217878
0.000205592
0.000192024
0.00017762
0.000162822
0.000148051
0.000133687
1.56912e-06
3.97734e-06
9.06189e-06
1.67176e-05
1.90671e-05
1.83763e-05
1.40164e-05
1.19046e-05
1.14818e-05
8.76398e-06
7.16779e-06
7.45425e-06
1.00498e-05
1.65791e-05
2.76445e-05
4.28214e-05
6.11516e-05
8.13646e-05
0.000102393
0.000123305
0.000143319
0.000161977
0.000178768
0.000193282
0.000205238
0.000214469
0.000220885
0.000224394
0.000225197
0.000223388
0.000219068
0.000212473
0.000203887
0.000193637
0.000182085
0.000169614
0.00015661
0.000143446
0.000130465
0.00011796
4.64626e-07
1.08827e-06
2.23375e-06
4.41206e-06
5.81818e-06
5.89103e-06
5.17706e-06
4.73848e-06
3.89357e-06
3.2745e-06
3.33713e-06
4.74077e-06
8.78246e-06
1.7188e-05
3.02332e-05
4.65903e-05
6.51809e-05
8.49133e-05
0.000104805
0.000124044
0.000142001
0.000158255
0.000172453
0.000184334
0.000193736
0.000200587
0.000204811
0.000206485
0.000205835
0.000202888
0.000197826
0.000190894
0.00018237
0.00017256
0.000161792
0.000150399
0.000138709
0.000127024
0.000115616
0.000104711
1.30241e-07
2.79846e-07
5.1628e-07
1.06899e-06
1.72464e-06
1.75537e-06
1.72511e-06
1.73529e-06
1.48324e-06
1.5404e-06
2.29479e-06
4.72329e-06
1.08087e-05
2.14557e-05
3.57161e-05
5.25473e-05
7.08696e-05
8.9675e-05
0.00010809
0.000125428
0.000141184
0.000155028
0.000166728
0.000176147
0.000183219
0.000187928
0.000190223
0.000190417
0.00018853
0.000184696
0.000179117
0.000172031
0.000163699
0.000154402
0.000144426
0.000134054
0.000123558
0.000113182
0.000103134
9.35848e-05
4.31228e-08
8.16672e-08
1.41302e-07
2.98126e-07
5.01608e-07
5.75113e-07
6.28061e-07
6.06182e-07
6.60572e-07
1.06653e-06
2.45991e-06
6.50461e-06
1.48238e-05
2.69454e-05
4.2014e-05
5.89623e-05
7.67407e-05
9.44261e-05
0.000111256
0.000126669
0.000140266
0.000151834
0.000161249
0.000168464
0.000173488
0.000176297
0.000177091
0.000176023
0.000173163
0.00016868
0.000162777
0.000155681
0.000147633
0.00013888
0.000129668
0.000120235
0.000110801
0.000101559
9.2671e-05
8.42623e-05
2.06618e-08
3.23432e-08
5.45772e-08
1.14631e-07
1.81008e-07
2.08442e-07
2.15616e-07
2.52814e-07
4.43555e-07
1.16002e-06
3.60229e-06
9.47483e-06
1.93941e-05
3.25915e-05
4.81548e-05
6.49942e-05
8.20911e-05
9.85983e-05
0.000113857
0.000127413
0.000139012
0.000148522
0.000155913
0.000161218
0.000164449
0.000165733
0.000165312
0.000163226
0.00015963
0.000154697
0.000148624
0.000141624
0.00013391
0.000125698
0.000117199
0.000108607
0.0001001
9.18299e-05
8.39193e-05
7.6462e-05
4.66374e-09
1.02711e-08
2.53231e-08
4.94813e-08
6.69901e-08
7.12213e-08
8.54494e-08
1.59441e-07
4.71729e-07
1.75023e-06
5.3717e-06
1.28155e-05
2.38686e-05
3.78256e-05
5.36673e-05
7.02674e-05
8.66317e-05
0.00010198
0.000115752
0.000127606
0.000137405
0.000145101
0.000150746
0.000154408
0.000156136
0.00015626
0.000154819
0.00015195
0.000147816
0.000142591
0.000136463
0.000129624
0.000122263
0.000114568
0.000106713
9.8861e-05
9.11517e-05
8.3704e-05
7.66115e-05
6.99437e-05
1.07827e-09
3.1851e-09
1.0789e-08
1.79326e-08
2.11052e-08
2.54161e-08
4.76706e-08
1.61699e-07
7.19365e-07
2.64034e-06
7.38369e-06
1.59337e-05
2.78629e-05
4.23787e-05
5.83678e-05
7.46661e-05
9.03003e-05
0.000104555
0.00011697
0.000127309
0.000135524
0.000141657
0.000145817
0.000148061
0.00014867
0.000147811
0.000145569
0.000142109
0.000137596
0.000132198
0.000126092
0.00011945
0.000112439
0.000105218
9.79356e-05
9.07223e-05
8.36909e-05
7.69338e-05
7.05219e-05
6.4506e-05
2.97972e-10
9.5328e-10
2.90701e-09
4.71383e-09
6.05146e-09
1.17217e-08
4.55706e-08
2.42386e-07
1.0752e-06
3.58273e-06
9.23166e-06
1.86111e-05
3.12348e-05
4.61791e-05
6.22395e-05
7.82173e-05
9.31574e-05
0.000106412
0.000117614
0.00012663
0.000133486
0.0001383
0.000141174
0.000142312
0.000142023
0.000140367
0.000137507
0.000133611
0.000128838
0.000123353
0.000117317
0.000110884
0.000104203
9.74077e-05
9.06225e-05
8.39544e-05
7.74934e-05
7.13115e-05
6.54624e-05
5.99831e-05
9.50312e-11
2.6982e-10
6.43574e-10
1.12777e-09
2.4422e-09
1.07578e-08
6.7038e-08
3.54945e-07
1.42892e-06
4.41354e-06
1.07639e-05
2.07989e-05
3.39813e-05
4.9262e-05
6.53477e-05
8.10082e-05
9.53136e-05
0.000107679
0.000117823
0.000125704
0.000131412
0.000135107
0.000136914
0.000137227
0.000136177
0.0001339
0.000130571
0.000126356
0.000121413
0.000115897
0.000109957
0.000103732
9.73495e-05
9.0927e-05
8.45674e-05
7.83585e-05
7.23725e-05
6.66658e-05
6.1279e-05
5.62391e-05
3.36113e-11
9.12148e-11
2.07363e-10
5.13764e-10
2.32698e-09
1.58851e-08
9.67247e-08
4.63203e-07
1.73143e-06
5.08963e-06
1.19759e-05
2.25339e-05
3.61655e-05
5.17097e-05
6.77924e-05
8.31563e-05
9.68976e-05
0.000108492
0.000117736
0.000124657
0.000129412
0.000132144
0.000133152
0.000132786
0.00013113
0.000128373
0.00012469
0.000120247
0.000115198
0.000109687
0.000103854
9.78208e-05
9.17025e-05
8.55991e-05
7.95975e-05
7.37701e-05
6.81753e-05
6.28573e-05
5.78471e-05
5.31641e-05
1.18376e-11
3.51905e-11
1.01608e-10
4.60223e-10
3.24915e-09
2.26919e-08
1.25889e-07
5.57527e-07
1.97811e-06
5.62345e-06
1.29059e-05
2.38767e-05
3.78657e-05
5.36146e-05
6.96781e-05
8.47769e-05
9.80314e-05
0.000108973
0.000117464
0.000123594
0.000127555
0.000129506
0.000129922
0.000128992
0.000126867
0.000123743
0.000119798
0.000115194
0.000110081
0.000104597
9.88676e-05
9.30065e-05
8.71141e-05
8.12778e-05
7.55716e-05
7.00558e-05
6.47782e-05
5.97739e-05
5.50666e-05
5.067e-05
4.34627e-12
1.56596e-11
7.3514e-11
5.45272e-10
4.39889e-09
2.92972e-08
1.51601e-07
6.35752e-07
2.17331e-06
6.03383e-06
1.36029e-05
2.48909e-05
3.91577e-05
5.50632e-05
7.11008e-05
8.59726e-05
9.88209e-05
0.000109225
0.000117105
0.000122606
0.000125904
0.000127267
0.000127222
0.000125849
0.000123365
0.000119966
0.000115829
0.000111115
0.000105967
0.000100518
9.48842e-05
8.91693e-05
8.34639e-05
7.78449e-05
7.23763e-05
6.71093e-05
6.20835e-05
5.73272e-05
5.28587e-05
4.86875e-05
1.82375e-12
8.85252e-12
6.93781e-11
6.60188e-10
5.48227e-09
3.50118e-08
1.72786e-07
6.9765e-07
2.32225e-06
6.33812e-06
1.4111e-05
2.56327e-05
4.0108e-05
5.61303e-05
7.21414e-05
8.68287e-05
9.93533e-05
0.000109333
0.000116734
0.000121743
0.000124519
0.000125476
0.000125054
0.000123354
0.000120604
0.000117003
0.00011273
0.000107941
0.000102777
9.73636e-05
9.18105e-05
8.6214e-05
8.06567e-05
7.52076e-05
6.99232e-05
6.4848e-05
6.00154e-05
5.54488e-05
5.11624e-05
4.71631e-05
9.83587e-13
6.58213e-12
7.20106e-11
7.61262e-10
6.35869e-09
3.94627e-08
1.88836e-07
7.43372e-07
2.42944e-06
6.55205e-06
1.44636e-05
2.61483e-05
4.07718e-05
5.68768e-05
7.28656e-05
8.74134e-05
9.96964e-05
0.000109362
0.000116412
0.000121057
0.000123456
0.000124132
0.000123433
0.000121499
0.000118562
0.000114822
0.000110456
0.00010562
0.000100449
9.50662e-05
8.95757e-05
8.40684e-05
7.86207e-05
7.32963e-05
6.81463e-05
6.32103e-05
5.85176e-05
5.40879e-05
4.9933e-05
4.60573e-05
7.04444e-13
5.88144e-12
7.52438e-11
8.31328e-10
6.95642e-09
4.24474e-08
1.99444e-07
7.73127e-07
2.49806e-06
6.68694e-06
1.46843e-05
2.64712e-05
4.11889e-05
5.73468e-05
7.33197e-05
8.77749e-05
9.98988e-05
0.000109359
0.000116182
0.000120585
0.000122744
0.000123244
0.000122367
0.000120284
0.000117229
0.000113402
0.000108979
0.000104114
9.89421e-05
9.35811e-05
8.81328e-05
8.26843e-05
7.73084e-05
7.2065e-05
6.70019e-05
6.21557e-05
5.75529e-05
5.32113e-05
4.91407e-05
4.53444e-05
6.27843e-13
5.70975e-12
7.7055e-11
8.64419e-10
7.23199e-09
4.38087e-08
2.04258e-07
7.86521e-07
2.52868e-06
6.74672e-06
1.47818e-05
2.66143e-05
4.13742e-05
5.75558e-05
7.35212e-05
8.79341e-05
9.99856e-05
0.000109353
0.000116074
0.000120366
0.000122419
0.00012284
0.000121882
0.000119734
0.000116626
0.000112761
0.000108313
0.000103436
9.82638e-05
9.29131e-05
8.74843e-05
8.20625e-05
7.6719e-05
7.15122e-05
6.64882e-05
6.16824e-05
5.712e-05
5.28178e-05
4.8785e-05
4.50242e-05
4.99833e-07
4.9977e-07
4.99719e-07
4.99676e-07
4.99636e-07
4.99598e-07
4.99561e-07
4.99525e-07
4.9949e-07
4.99454e-07
4.99419e-07
4.99385e-07
4.99351e-07
4.99317e-07
4.99284e-07
4.99252e-07
4.9922e-07
4.9919e-07
4.9916e-07
4.99131e-07
4.99103e-07
4.99076e-07
4.9905e-07
4.99025e-07
4.99002e-07
4.9898e-07
4.98959e-07
4.98939e-07
4.98921e-07
4.98904e-07
4.98889e-07
4.98875e-07
4.98862e-07
4.98852e-07
4.98842e-07
4.98834e-07
4.98828e-07
4.98823e-07
4.9882e-07
4.98819e-07
4.99835e-07
4.99772e-07
4.99721e-07
4.99677e-07
4.99637e-07
4.99599e-07
4.99562e-07
4.99525e-07
4.99489e-07
4.99454e-07
4.99419e-07
4.99384e-07
4.9935e-07
4.99316e-07
4.99283e-07
4.9925e-07
4.99219e-07
4.99188e-07
4.99158e-07
4.99129e-07
4.99101e-07
4.99074e-07
4.99048e-07
4.99023e-07
4.98999e-07
4.98977e-07
4.98956e-07
4.98936e-07
4.98918e-07
4.98901e-07
4.98886e-07
4.98872e-07
4.98859e-07
4.98848e-07
4.98839e-07
4.98831e-07
4.98825e-07
4.9882e-07
4.98817e-07
4.98816e-07
4.99836e-07
4.99773e-07
4.99722e-07
4.99678e-07
4.99638e-07
4.99599e-07
4.99562e-07
4.99525e-07
4.99489e-07
4.99453e-07
4.99418e-07
4.99383e-07
4.99348e-07
4.99314e-07
4.99281e-07
4.99248e-07
4.99216e-07
4.99185e-07
4.99155e-07
4.99125e-07
4.99097e-07
4.9907e-07
4.99044e-07
4.99019e-07
4.98995e-07
4.98973e-07
4.98951e-07
4.98932e-07
4.98913e-07
4.98896e-07
4.98881e-07
4.98867e-07
4.98854e-07
4.98843e-07
4.98834e-07
4.98826e-07
4.9882e-07
4.98815e-07
4.98812e-07
4.9881e-07
4.99839e-07
4.99775e-07
4.99723e-07
4.99679e-07
4.99639e-07
4.996e-07
4.99562e-07
4.99525e-07
4.99489e-07
4.99452e-07
4.99417e-07
4.99381e-07
4.99347e-07
4.99312e-07
4.99279e-07
4.99246e-07
4.99213e-07
4.99182e-07
4.99151e-07
4.99122e-07
4.99093e-07
4.99066e-07
4.9904e-07
4.99014e-07
4.9899e-07
4.98968e-07
4.98946e-07
4.98926e-07
4.98908e-07
4.98891e-07
4.98875e-07
4.98861e-07
4.98848e-07
4.98837e-07
4.98828e-07
4.9882e-07
4.98813e-07
4.98809e-07
4.98806e-07
4.98804e-07
4.9984e-07
4.99776e-07
4.99724e-07
4.9968e-07
4.99639e-07
4.996e-07
4.99562e-07
4.99525e-07
4.99488e-07
4.99452e-07
4.99416e-07
4.9938e-07
4.99345e-07
4.9931e-07
4.99276e-07
4.99243e-07
4.9921e-07
4.99179e-07
4.99148e-07
4.99118e-07
4.99089e-07
4.99061e-07
4.99035e-07
4.99009e-07
4.98985e-07
4.98962e-07
4.98941e-07
4.98921e-07
4.98902e-07
4.98885e-07
4.98869e-07
4.98855e-07
4.98842e-07
4.98831e-07
4.98821e-07
4.98813e-07
4.98807e-07
4.98802e-07
4.98799e-07
4.98797e-07
4.99842e-07
4.99778e-07
4.99726e-07
4.99681e-07
4.9964e-07
4.99601e-07
4.99563e-07
4.99525e-07
4.99488e-07
4.99451e-07
4.99415e-07
4.99379e-07
4.99343e-07
4.99308e-07
4.99274e-07
4.9924e-07
4.99207e-07
4.99175e-07
4.99144e-07
4.99114e-07
4.99085e-07
4.99057e-07
4.9903e-07
4.99004e-07
4.9898e-07
4.98957e-07
4.98935e-07
4.98915e-07
4.98896e-07
4.98878e-07
4.98862e-07
4.98848e-07
4.98835e-07
4.98824e-07
4.98814e-07
4.98806e-07
4.98799e-07
4.98795e-07
4.98791e-07
4.9879e-07
4.99844e-07
4.99779e-07
4.99727e-07
4.99682e-07
4.99641e-07
4.99601e-07
4.99563e-07
4.99525e-07
4.99487e-07
4.9945e-07
4.99414e-07
4.99377e-07
4.99341e-07
4.99306e-07
4.99271e-07
4.99237e-07
4.99204e-07
4.99172e-07
4.9914e-07
4.9911e-07
4.9908e-07
4.99052e-07
4.99025e-07
4.98999e-07
4.98974e-07
4.98951e-07
4.98929e-07
4.98908e-07
4.98889e-07
4.98872e-07
4.98855e-07
4.98841e-07
4.98828e-07
4.98817e-07
4.98807e-07
4.98799e-07
4.98792e-07
4.98787e-07
4.98784e-07
4.98783e-07
4.99846e-07
4.99781e-07
4.99728e-07
4.99683e-07
4.99642e-07
4.99602e-07
4.99563e-07
4.99525e-07
4.99487e-07
4.99449e-07
4.99412e-07
4.99376e-07
4.9934e-07
4.99304e-07
4.99269e-07
4.99234e-07
4.99201e-07
4.99168e-07
4.99136e-07
4.99106e-07
4.99076e-07
4.99047e-07
4.9902e-07
4.98994e-07
4.98969e-07
4.98945e-07
4.98923e-07
4.98902e-07
4.98883e-07
4.98865e-07
4.98849e-07
4.98834e-07
4.98821e-07
4.98809e-07
4.98799e-07
4.98791e-07
4.98785e-07
4.9878e-07
4.98776e-07
4.98775e-07
4.99847e-07
4.99783e-07
4.9973e-07
4.99685e-07
4.99643e-07
4.99602e-07
4.99563e-07
4.99525e-07
4.99487e-07
4.99449e-07
4.99411e-07
4.99374e-07
4.99338e-07
4.99302e-07
4.99266e-07
4.99232e-07
4.99198e-07
4.99165e-07
4.99132e-07
4.99101e-07
4.99071e-07
4.99042e-07
4.99015e-07
4.98988e-07
4.98963e-07
4.98939e-07
4.98917e-07
4.98896e-07
4.98876e-07
4.98858e-07
4.98842e-07
4.98827e-07
4.98814e-07
4.98802e-07
4.98792e-07
4.98784e-07
4.98777e-07
4.98772e-07
4.98769e-07
4.98767e-07
4.9985e-07
4.99784e-07
4.99731e-07
4.99686e-07
4.99644e-07
4.99603e-07
4.99564e-07
4.99525e-07
4.99486e-07
4.99448e-07
4.9941e-07
4.99373e-07
4.99336e-07
4.993e-07
4.99264e-07
4.99229e-07
4.99194e-07
4.99161e-07
4.99129e-07
4.99097e-07
4.99067e-07
4.99038e-07
4.9901e-07
4.98983e-07
4.98957e-07
4.98933e-07
4.9891e-07
4.98889e-07
4.98869e-07
4.98851e-07
4.98835e-07
4.9882e-07
4.98806e-07
4.98794e-07
4.98784e-07
4.98776e-07
4.98769e-07
4.98764e-07
4.98761e-07
4.98759e-07
4.99852e-07
4.99786e-07
4.99733e-07
4.99687e-07
4.99645e-07
4.99604e-07
4.99564e-07
4.99525e-07
4.99486e-07
4.99447e-07
4.99409e-07
4.99372e-07
4.99334e-07
4.99297e-07
4.99261e-07
4.99226e-07
4.99191e-07
4.99157e-07
4.99125e-07
4.99093e-07
4.99062e-07
4.99033e-07
4.99004e-07
4.98977e-07
4.98951e-07
4.98927e-07
4.98904e-07
4.98883e-07
4.98863e-07
4.98844e-07
4.98828e-07
4.98812e-07
4.98799e-07
4.98787e-07
4.98777e-07
4.98768e-07
4.98761e-07
4.98756e-07
4.98753e-07
4.98751e-07
4.99854e-07
4.99788e-07
4.99734e-07
4.99688e-07
4.99646e-07
4.99605e-07
4.99564e-07
4.99525e-07
4.99486e-07
4.99447e-07
4.99408e-07
4.9937e-07
4.99332e-07
4.99295e-07
4.99259e-07
4.99223e-07
4.99188e-07
4.99154e-07
4.99121e-07
4.99088e-07
4.99057e-07
4.99028e-07
4.98999e-07
4.98972e-07
4.98946e-07
4.98921e-07
4.98898e-07
4.98876e-07
4.98856e-07
4.98837e-07
4.9882e-07
4.98805e-07
4.98791e-07
4.98779e-07
4.98769e-07
4.9876e-07
4.98754e-07
4.98748e-07
4.98745e-07
4.98743e-07
4.99856e-07
4.9979e-07
4.99736e-07
4.9969e-07
4.99647e-07
4.99605e-07
4.99565e-07
4.99525e-07
4.99485e-07
4.99446e-07
4.99407e-07
4.99369e-07
4.99331e-07
4.99293e-07
4.99256e-07
4.9922e-07
4.99185e-07
4.9915e-07
4.99117e-07
4.99084e-07
4.99053e-07
4.99023e-07
4.98994e-07
4.98966e-07
4.9894e-07
4.98915e-07
4.98891e-07
4.98869e-07
4.98849e-07
4.9883e-07
4.98813e-07
4.98798e-07
4.98784e-07
4.98772e-07
4.98761e-07
4.98753e-07
4.98746e-07
4.9874e-07
4.98737e-07
4.98735e-07
4.99858e-07
4.99792e-07
4.99738e-07
4.99691e-07
4.99648e-07
4.99606e-07
4.99565e-07
4.99525e-07
4.99485e-07
4.99446e-07
4.99406e-07
4.99367e-07
4.99329e-07
4.99291e-07
4.99254e-07
4.99217e-07
4.99181e-07
4.99147e-07
4.99113e-07
4.9908e-07
4.99048e-07
4.99018e-07
4.98988e-07
4.9896e-07
4.98934e-07
4.98909e-07
4.98885e-07
4.98863e-07
4.98842e-07
4.98823e-07
4.98806e-07
4.9879e-07
4.98776e-07
4.98764e-07
4.98753e-07
4.98745e-07
4.98738e-07
4.98732e-07
4.98729e-07
4.98727e-07
4.99861e-07
4.99794e-07
4.99739e-07
4.99693e-07
4.99649e-07
4.99607e-07
4.99566e-07
4.99525e-07
4.99485e-07
4.99445e-07
4.99405e-07
4.99366e-07
4.99327e-07
4.99289e-07
4.99251e-07
4.99214e-07
4.99178e-07
4.99143e-07
4.99109e-07
4.99075e-07
4.99043e-07
4.99013e-07
4.98983e-07
4.98955e-07
4.98928e-07
4.98902e-07
4.98878e-07
4.98856e-07
4.98835e-07
4.98816e-07
4.98798e-07
4.98783e-07
4.98768e-07
4.98756e-07
4.98745e-07
4.98737e-07
4.98729e-07
4.98724e-07
4.98721e-07
4.98719e-07
4.99863e-07
4.99796e-07
4.99741e-07
4.99694e-07
4.9965e-07
4.99608e-07
4.99566e-07
4.99525e-07
4.99485e-07
4.99444e-07
4.99404e-07
4.99365e-07
4.99325e-07
4.99287e-07
4.99249e-07
4.99211e-07
4.99175e-07
4.99139e-07
4.99105e-07
4.99071e-07
4.99039e-07
4.99007e-07
4.98978e-07
4.98949e-07
4.98922e-07
4.98896e-07
4.98872e-07
4.98849e-07
4.98828e-07
4.98809e-07
4.98791e-07
4.98775e-07
4.98761e-07
4.98748e-07
4.98737e-07
4.98728e-07
4.98721e-07
4.98716e-07
4.98712e-07
4.98711e-07
4.99866e-07
4.99798e-07
4.99743e-07
4.99696e-07
4.99652e-07
4.99609e-07
4.99567e-07
4.99526e-07
4.99485e-07
4.99444e-07
4.99403e-07
4.99363e-07
4.99324e-07
4.99285e-07
4.99246e-07
4.99208e-07
4.99171e-07
4.99135e-07
4.991e-07
4.99067e-07
4.99034e-07
4.99002e-07
4.98972e-07
4.98943e-07
4.98916e-07
4.9889e-07
4.98865e-07
4.98842e-07
4.98821e-07
4.98801e-07
4.98784e-07
4.98767e-07
4.98753e-07
4.9874e-07
4.98729e-07
4.9872e-07
4.98713e-07
4.98708e-07
4.98704e-07
4.98702e-07
4.99868e-07
4.998e-07
4.99745e-07
4.99697e-07
4.99653e-07
4.9961e-07
4.99568e-07
4.99526e-07
4.99484e-07
4.99443e-07
4.99403e-07
4.99362e-07
4.99322e-07
4.99283e-07
4.99244e-07
4.99205e-07
4.99168e-07
4.99132e-07
4.99096e-07
4.99062e-07
4.99029e-07
4.98997e-07
4.98967e-07
4.98937e-07
4.9891e-07
4.98883e-07
4.98859e-07
4.98835e-07
4.98814e-07
4.98794e-07
4.98776e-07
4.9876e-07
4.98745e-07
4.98732e-07
4.98721e-07
4.98712e-07
4.98705e-07
4.98699e-07
4.98696e-07
4.98694e-07
4.99871e-07
4.99803e-07
4.99747e-07
4.99699e-07
4.99654e-07
4.99611e-07
4.99568e-07
4.99526e-07
4.99484e-07
4.99443e-07
4.99402e-07
4.99361e-07
4.9932e-07
4.9928e-07
4.99241e-07
4.99203e-07
4.99165e-07
4.99128e-07
4.99092e-07
4.99058e-07
4.99024e-07
4.98992e-07
4.98961e-07
4.98932e-07
4.98903e-07
4.98877e-07
4.98852e-07
4.98828e-07
4.98807e-07
4.98787e-07
4.98768e-07
4.98752e-07
4.98737e-07
4.98724e-07
4.98713e-07
4.98704e-07
4.98696e-07
4.98691e-07
4.98687e-07
4.98685e-07
4.99874e-07
4.99805e-07
4.99749e-07
4.99701e-07
4.99656e-07
4.99612e-07
4.99569e-07
4.99527e-07
4.99484e-07
4.99442e-07
4.99401e-07
4.9936e-07
4.99319e-07
4.99278e-07
4.99239e-07
4.992e-07
4.99161e-07
4.99124e-07
4.99088e-07
4.99053e-07
4.99019e-07
4.98987e-07
4.98956e-07
4.98926e-07
4.98897e-07
4.9887e-07
4.98845e-07
4.98821e-07
4.98799e-07
4.98779e-07
4.98761e-07
4.98744e-07
4.98729e-07
4.98716e-07
4.98705e-07
4.98695e-07
4.98688e-07
4.98682e-07
4.98679e-07
4.98677e-07
4.99877e-07
4.99808e-07
4.99751e-07
4.99703e-07
4.99657e-07
4.99613e-07
4.9957e-07
4.99527e-07
4.99484e-07
4.99442e-07
4.994e-07
4.99358e-07
4.99317e-07
4.99276e-07
4.99236e-07
4.99197e-07
4.99158e-07
4.99121e-07
4.99084e-07
4.99049e-07
4.99014e-07
4.98981e-07
4.9895e-07
4.9892e-07
4.98891e-07
4.98864e-07
4.98838e-07
4.98814e-07
4.98792e-07
4.98772e-07
4.98753e-07
4.98736e-07
4.98721e-07
4.98708e-07
4.98696e-07
4.98687e-07
4.98679e-07
4.98674e-07
4.9867e-07
4.98668e-07
4.9988e-07
4.9981e-07
4.99754e-07
4.99705e-07
4.99659e-07
4.99614e-07
4.99571e-07
4.99528e-07
4.99485e-07
4.99442e-07
4.99399e-07
4.99357e-07
4.99315e-07
4.99274e-07
4.99234e-07
4.99194e-07
4.99155e-07
4.99117e-07
4.9908e-07
4.99044e-07
4.99009e-07
4.98976e-07
4.98944e-07
4.98914e-07
4.98885e-07
4.98857e-07
4.98831e-07
4.98807e-07
4.98785e-07
4.98764e-07
4.98745e-07
4.98728e-07
4.98713e-07
4.98699e-07
4.98688e-07
4.98678e-07
4.98671e-07
4.98665e-07
4.98661e-07
4.98659e-07
4.99883e-07
4.99813e-07
4.99756e-07
4.99707e-07
4.99661e-07
4.99616e-07
4.99572e-07
4.99528e-07
4.99485e-07
4.99441e-07
4.99399e-07
4.99356e-07
4.99314e-07
4.99272e-07
4.99231e-07
4.99191e-07
4.99151e-07
4.99113e-07
4.99076e-07
4.99039e-07
4.99004e-07
4.98971e-07
4.98939e-07
4.98908e-07
4.98878e-07
4.98851e-07
4.98824e-07
4.988e-07
4.98777e-07
4.98756e-07
4.98737e-07
4.9872e-07
4.98705e-07
4.98691e-07
4.98679e-07
4.9867e-07
4.98662e-07
4.98656e-07
4.98652e-07
4.98651e-07
4.99886e-07
4.99815e-07
4.99758e-07
4.99709e-07
4.99662e-07
4.99617e-07
4.99573e-07
4.99529e-07
4.99485e-07
4.99441e-07
4.99398e-07
4.99355e-07
4.99312e-07
4.9927e-07
4.99229e-07
4.99188e-07
4.99148e-07
4.99109e-07
4.99071e-07
4.99035e-07
4.98999e-07
4.98965e-07
4.98933e-07
4.98902e-07
4.98872e-07
4.98844e-07
4.98817e-07
4.98793e-07
4.9877e-07
4.98749e-07
4.98729e-07
4.98712e-07
4.98696e-07
4.98683e-07
4.98671e-07
4.98661e-07
4.98653e-07
4.98647e-07
4.98643e-07
4.98642e-07
4.99889e-07
4.99818e-07
4.99761e-07
4.99711e-07
4.99664e-07
4.99619e-07
4.99574e-07
4.99529e-07
4.99485e-07
4.99441e-07
4.99397e-07
4.99354e-07
4.99311e-07
4.99268e-07