/*--------------------------------*- C++ -*----------------------------------*\
| =========                 |                                                 |
| \\      /  F ield         | OpenFOAM: The Open Source CFD Toolbox           |
|  \\    /   O peration     | Version:  2.3.0                                 |
|   \\  /    A nd           | Web:      www.OpenFOAM.org                      |
|    \\/     M anipulation  |                                                 |
\*---------------------------------------------------------------------------*/
FoamFile
{
    version     2.0;
    format      ascii;
    class       surfaceScalarField;
    location    "20";
    object      phi;
}
// * * * * * * * * * * * * * * * * * * * * * * * * * * * * * * * * * * * * * //

dimensions      [1 0 -1 0 0 0 0];

internalField   nonuniform List<scalar> 
52739
(
4.48076e-05
8.13337e-07
4.55322e-05
-6.05975e-07
4.72046e-05
-1.54869e-06
4.94184e-05
-2.08685e-06
5.20947e-05
-2.54573e-06
5.53215e-05
-3.0933e-06
5.90245e-05
-3.56775e-06
6.31514e-05
-3.99056e-06
6.75852e-05
-4.29586e-06
7.22677e-05
-4.5422e-06
7.71446e-05
-4.73348e-06
8.20796e-05
-4.78744e-06
8.70207e-05
-4.78956e-06
9.18611e-05
-4.68011e-06
9.66773e-05
-4.64497e-06
0.000101339
-4.47271e-06
0.000105946
-4.39736e-06
0.000110504
-4.32054e-06
0.000115039
-4.27205e-06
0.000119553
-4.22277e-06
0.000124116
-4.24073e-06
0.000128716
-4.25849e-06
0.00013309
-4.02494e-06
0.000137187
-3.75934e-06
0.00014142
-3.90972e-06
0.000145728
-4.00444e-06
0.000149928
-3.92469e-06
0.000153916
-3.73406e-06
0.000157702
-3.54577e-06
0.000161333
-3.39635e-06
0.000164755
-3.20088e-06
0.000168044
-3.08548e-06
0.0001713
-3.07814e-06
0.000174439
-2.99494e-06
0.000177507
-2.9682e-06
0.000180239
-2.69075e-06
0.000182645
-2.49075e-06
0.000184774
-2.26162e-06
0.000187961
-3.45149e-06
-1.91e-06
0.000189639
4.48729e-05
4.05664e-07
4.63338e-05
-1.94824e-06
4.86534e-05
-3.74419e-06
5.15937e-05
-4.89935e-06
5.49731e-05
-5.79357e-06
5.87744e-05
-6.7595e-06
6.29309e-05
-7.58702e-06
6.74063e-05
-8.32723e-06
7.20384e-05
-8.78791e-06
7.67706e-05
-9.13467e-06
8.15454e-05
-9.36488e-06
8.62928e-05
-9.38921e-06
9.09316e-05
-9.29559e-06
9.54037e-05
-9.01642e-06
9.976e-05
-8.86673e-06
0.000103894
-8.4425e-06
0.00010791
-8.24089e-06
0.000111835
-8.00219e-06
0.000115573
-7.79747e-06
0.000119175
-7.59142e-06
0.0001228
-7.54647e-06
0.000126251
-7.42617e-06
0.000129397
-6.82988e-06
0.000132141
-6.3082e-06
0.000135037
-6.23285e-06
0.000137381
-5.9971e-06
0.000139475
-5.74798e-06
0.000141672
-5.5165e-06
0.0001439
-5.34574e-06
0.000146013
-5.03836e-06
0.000147919
-4.7246e-06
0.000150037
-4.87892e-06
0.000152229
-5.03726e-06
0.000154507
-5.02244e-06
0.000156894
-5.12768e-06
0.00015891
-4.49318e-06
0.000160629
-4.07196e-06
0.000161221
-2.98375e-06
0.000159984
-2.41047e-06
-1.3991e-06
0.000159472
4.42871e-05
-5.70658e-07
4.57159e-05
-3.26219e-06
4.77936e-05
-5.70143e-06
5.04963e-05
-7.47774e-06
5.38576e-05
-9.02704e-06
5.77108e-05
-1.0482e-05
6.18636e-05
-1.16069e-05
6.62208e-05
-1.255e-05
7.06321e-05
-1.30636e-05
7.50571e-05
-1.34207e-05
7.94199e-05
-1.35881e-05
8.3659e-05
-1.34961e-05
8.76406e-05
-1.31663e-05
9.13432e-05
-1.26089e-05
9.47756e-05
-1.21948e-05
9.78476e-05
-1.13925e-05
0.0001007
-1.09517e-05
0.000103372
-1.04713e-05
0.000105688
-9.95887e-06
0.000107796
-9.50854e-06
0.000109887
-9.30943e-06
0.000111502
-8.82495e-06
0.000112751
-7.73015e-06
0.000113167
-6.81318e-06
0.000114232
-6.4944e-06
0.000115885
-6.88672e-06
0.000117005
-6.91754e-06
0.000117668
-6.54183e-06
0.000118655
-6.04045e-06
0.000119727
-5.53535e-06
0.000120589
-5.25355e-06
0.000121187
-5.15334e-06
0.000121632
-5.1227e-06
0.000121998
-5.03802e-06
0.000121957
-4.7992e-06
0.00012179
-4.05909e-06
0.000121437
-3.6762e-06
0.000120785
-2.64964e-06
0.000119361
-1.24717e-06
1.80308e-06
0.000115818
4.33022e-05
-1.7186e-06
4.48826e-05
-4.72786e-06
4.69648e-05
-7.6678e-06
4.96724e-05
-1.00653e-05
5.29457e-05
-1.21762e-05
5.65348e-05
-1.39442e-05
6.03506e-05
-1.52942e-05
6.43462e-05
-1.64166e-05
6.83345e-05
-1.6922e-05
7.22585e-05
-1.72102e-05
7.60341e-05
-1.72254e-05
7.95658e-05
-1.69017e-05
8.26727e-05
-1.61761e-05
8.53645e-05
-1.52231e-05
8.76472e-05
-1.44014e-05
8.94546e-05
-1.31297e-05
9.10039e-05
-1.24058e-05
9.23092e-05
-1.16235e-05
9.31297e-05
-1.06978e-05
9.35996e-05
-9.84893e-06
9.37057e-05
-9.16151e-06
9.39739e-05
-9.07242e-06
9.45688e-05
-7.89701e-06
9.43838e-05
-6.56877e-06
9.40645e-05
-6.12758e-06
9.40365e-05
-6.26047e-06
9.36349e-05
-6.35458e-06
9.34515e-05
-5.90903e-06
9.33316e-05
-5.57309e-06
9.28471e-05
-5.01104e-06
9.22934e-05
-4.56734e-06
9.17669e-05
-4.30674e-06
9.11616e-05
-4.10388e-06
9.04826e-05
-3.90591e-06
8.96587e-05
-3.62068e-06
8.88946e-05
-3.14276e-06
8.79544e-05
-2.79833e-06
8.69594e-05
-1.88171e-06
8.56068e-05
-4.91549e-07
2.25054e-06
8.48079e-05
4.20695e-05
-2.79141e-06
4.37427e-05
-6.29368e-06
4.58861e-05
-9.69589e-06
4.85205e-05
-1.25841e-05
5.15604e-05
-1.50966e-05
5.48763e-05
-1.71379e-05
5.83729e-05
-1.8668e-05
6.19934e-05
-1.99159e-05
6.54682e-05
-2.02763e-05
6.87529e-05
-2.03674e-05
7.17588e-05
-2.00946e-05
7.43446e-05
-1.93602e-05
7.6294e-05
-1.80376e-05
7.76951e-05
-1.65865e-05
7.85985e-05
-1.52359e-05
7.89882e-05
-1.35114e-05
7.91212e-05
-1.25285e-05
7.90367e-05
-1.14245e-05
7.81279e-05
-9.82069e-06
7.71716e-05
-8.87401e-06
7.68261e-05
-8.64456e-06
7.66137e-05
-8.20398e-06
7.45655e-05
-4.82817e-06
7.25166e-05
-4.9856e-06
7.16599e-05
-5.11087e-06
7.03623e-05
-4.92974e-06
6.88539e-05
-4.51056e-06
6.73969e-05
-4.0442e-06
6.56604e-05
-3.62909e-06
6.39021e-05
-3.14733e-06
6.23387e-05
-2.87599e-06
6.10796e-05
-2.78779e-06
5.97832e-05
-2.76268e-06
5.8909e-05
-2.59011e-06
5.82519e-05
-2.51871e-06
5.7517e-05
-2.24008e-06
5.66744e-05
-2.07086e-06
5.6023e-05
-1.51532e-06
5.58938e-05
-6.89781e-07
6.73197e-07
5.7054e-05
4.0945e-05
-3.89673e-06
4.25038e-05
-7.74951e-06
4.45044e-05
-1.15879e-05
4.70941e-05
-1.50589e-05
4.99374e-05
-1.78252e-05
5.29858e-05
-2.00697e-05
5.61486e-05
-2.17166e-05
5.9316e-05
-2.29749e-05
6.21036e-05
-2.29594e-05
6.453e-05
-2.2677e-05
6.64849e-05
-2.19263e-05
6.77817e-05
-2.05192e-05
6.82339e-05
-1.83993e-05
6.80469e-05
-1.64225e-05
6.74724e-05
-1.4498e-05
6.64661e-05
-1.25865e-05
6.50268e-05
-1.12682e-05
6.40168e-05
-1.02463e-05
6.23638e-05
-8.53795e-06
6.04224e-05
-7.11681e-06
5.78896e-05
-6.37629e-06
5.62158e-05
-5.08034e-06
5.15346e-05
-2.44227e-06
4.98849e-05
-2.41873e-06
4.88602e-05
-3.72598e-06
4.77278e-05
-3.9672e-06
4.72348e-05
-3.66279e-06
4.6452e-05
-3.5192e-06
4.54618e-05
-3.13668e-06
4.47959e-05
-2.82767e-06
4.43237e-05
-2.66761e-06
4.39433e-05
-2.50524e-06
4.35919e-05
-2.36482e-06
4.34198e-05
-2.253e-06
4.32675e-05
-2.24902e-06
4.29423e-05
-1.92983e-06
4.27289e-05
-1.94343e-06
4.28244e-05
-1.72952e-06
4.32131e-05
-1.14707e-06
-7.43031e-07
4.45016e-05
3.97637e-05
-4.978e-06
4.13278e-05
-9.21501e-06
4.3366e-05
-1.35223e-05
4.56437e-05
-1.72283e-05
4.82435e-05
-2.031e-05
5.10267e-05
-2.27396e-05
5.37511e-05
-2.43391e-05
5.62835e-05
-2.54199e-05
5.8106e-05
-2.47052e-05
5.93837e-05
-2.38519e-05
5.99005e-05
-2.23809e-05
5.94888e-05
-1.99596e-05
5.8225e-05
-1.70101e-05
5.61595e-05
-1.4459e-05
5.43967e-05
-1.23114e-05
5.25843e-05
-1.09661e-05
5.03165e-05
-9.37489e-06
4.82951e-05
-7.11792e-06
4.50332e-05
-6.62303e-06
4.2728e-05
-5.41536e-06
4.05724e-05
-4.66722e-06
4.01188e-05
-4.61822e-06
3.38302e-05
-4.92742e-06
3.50134e-05
-4.00536e-06
3.58974e-05
-4.36372e-06
3.61078e-05
-4.17324e-06
3.62118e-05
-3.66702e-06
3.60586e-05
-3.48324e-06
3.57901e-05
-2.96679e-06
3.54937e-05
-2.57761e-06
3.52425e-05
-2.43906e-06
3.51247e-05
-2.38941e-06
3.50893e-05
-2.33627e-06
3.50289e-05
-2.192e-06
3.49106e-05
-2.12437e-06
3.48041e-05
-1.99018e-06
3.51786e-05
-2.1589e-06
3.5935e-05
-2.36701e-06
3.69916e-05
-2.16623e-06
-2.03141e-06
3.82836e-05
3.85404e-05
-5.99312e-06
4.01005e-05
-1.06811e-05
4.20326e-05
-1.53549e-05
4.41542e-05
-1.92453e-05
4.64872e-05
-2.25334e-05
4.88874e-05
-2.50317e-05
5.10849e-05
-2.64438e-05
5.27135e-05
-2.6988e-05
5.31966e-05
-2.51541e-05
5.30208e-05
-2.36e-05
5.16459e-05
-2.10956e-05
4.90539e-05
-1.72172e-05
4.64209e-05
-1.41095e-05
4.38688e-05
-1.19915e-05
4.1429e-05
-9.66166e-06
3.83974e-05
-8.12791e-06
3.57895e-05
-6.87161e-06
3.43135e-05
-5.86555e-06
3.27271e-05
-5.2538e-06
3.16429e-05
-4.89546e-06
3.12196e-05
-4.63973e-06
3.11073e-05
-4.69747e-06
2.98883e-05
-3.89681e-06
2.93567e-05
-3.76186e-06
2.91312e-05
-4.22861e-06
2.91912e-05
-4.21603e-06
2.94286e-05
-3.81735e-06
2.93999e-05
-3.46167e-06
2.92744e-05
-3.03774e-06
2.94425e-05
-2.82499e-06
2.96644e-05
-2.74568e-06
2.98067e-05
-2.7406e-06
2.99463e-05
-2.64904e-06
3.01453e-05
-2.50728e-06
3.06233e-05
-2.49544e-06
3.11514e-05
-2.40101e-06
3.16651e-05
-2.55657e-06
3.21715e-05
-2.71702e-06
3.28192e-05
-2.6948e-06
-2.68024e-06
3.35093e-05
3.73402e-05
-6.96528e-06
3.89222e-05
-1.21737e-05
4.06755e-05
-1.70127e-05
4.26196e-05
-2.10871e-05
4.47139e-05
-2.45181e-05
4.66165e-05
-2.68235e-05
4.78702e-05
-2.76202e-05
4.82491e-05
-2.73287e-05
4.70531e-05
-2.39664e-05
4.51726e-05
-2.17141e-05
4.14951e-05
-1.76509e-05
3.79942e-05
-1.34601e-05
3.5213e-05
-1.07261e-05
3.18394e-05
-8.95956e-06
2.95161e-05
-7.49303e-06
2.79265e-05
-6.64445e-06
2.68169e-05
-5.78123e-06
2.60454e-05
-5.10155e-06
2.53294e-05
-4.58302e-06
2.46935e-05
-4.30057e-06
2.42278e-05
-4.23979e-06
2.38811e-05
-4.39928e-06
2.37921e-05
-3.81591e-06
2.37713e-05
-3.68682e-06
2.40055e-05
-4.19618e-06
2.45416e-05
-4.34854e-06
2.51522e-05
-4.17825e-06
2.54802e-05
-3.78034e-06
2.56013e-05
-3.19764e-06
2.55426e-05
-2.87664e-06
2.52773e-05
-2.74193e-06
2.50067e-05
-2.62003e-06
2.48341e-05
-2.53059e-06
2.48737e-05
-2.484e-06
2.51057e-05
-2.58953e-06
2.57179e-05
-2.64138e-06
2.63421e-05
-2.81782e-06
2.68257e-05
-2.92788e-06
2.72466e-05
-2.99062e-06
-2.97062e-06
2.75486e-05
3.62025e-05
-7.95709e-06
3.76866e-05
-1.35729e-05
3.93112e-05
-1.85454e-05
4.10787e-05
-2.27537e-05
4.27737e-05
-2.60991e-05
4.39432e-05
-2.78636e-05
4.39298e-05
-2.75458e-05
4.24921e-05
-2.58442e-05
3.93345e-05
-2.09472e-05
3.55968e-05
-1.79976e-05
3.12033e-05
-1.32682e-05
2.77849e-05
-1.00405e-05
2.53429e-05
-8.33634e-06
2.36202e-05
-7.29527e-06
2.23314e-05
-6.24024e-06
2.12905e-05
-5.60744e-06
2.04337e-05
-4.91942e-06
1.99523e-05
-4.58165e-06
1.96467e-05
-4.25739e-06
1.92585e-05
-3.9702e-06
1.92282e-05
-4.03912e-06
1.91251e-05
-4.14028e-06
1.93414e-05
-3.71473e-06
1.96572e-05
-3.61111e-06
1.97268e-05
-3.88724e-06
1.96419e-05
-3.95435e-06
1.95053e-05
-3.93957e-06
1.95248e-05
-3.86642e-06
1.95104e-05
-3.63028e-06
1.95536e-05
-3.31273e-06
1.95862e-05
-3.0456e-06
1.96996e-05
-2.80545e-06
1.98593e-05
-2.6374e-06
2.00609e-05
-2.51684e-06
2.0356e-05
-2.53077e-06
2.04794e-05
-2.57868e-06
2.05687e-05
-2.73893e-06
2.06143e-05
-2.881e-06
2.06614e-05
-3.03799e-06
-2.97473e-06
2.05797e-05
3.50341e-05
-8.9383e-06
3.64496e-05
-1.49086e-05
3.79732e-05
-1.99812e-05
3.9476e-05
-2.41575e-05
4.04922e-05
-2.69977e-05
4.04528e-05
-2.76282e-05
3.86551e-05
-2.58069e-05
3.55173e-05
-2.23757e-05
3.08678e-05
-1.66891e-05
2.6075e-05
-1.3391e-05
2.2341e-05
-9.53676e-06
2.04666e-05
-8.22589e-06
1.90639e-05
-7.00872e-06
1.76836e-05
-5.9362e-06
1.6902e-05
-5.45345e-06
1.6328e-05
-4.99701e-06
1.58081e-05
-4.41161e-06
1.56461e-05
-4.34112e-06
1.53512e-05
-3.90104e-06
1.49196e-05
-3.47526e-06
1.44843e-05
-3.39483e-06
1.40138e-05
-3.38005e-06
1.40986e-05
-3.333e-06
1.48535e-05
-3.46145e-06
1.54307e-05
-3.8007e-06
1.55233e-05
-3.94844e-06
1.54493e-05
-3.9203e-06
1.52505e-05
-3.89255e-06
1.50496e-05
-3.71383e-06
1.49328e-05
-3.4149e-06
1.48322e-05
-3.12605e-06
1.48484e-05
-2.87207e-06
1.49587e-05
-2.66004e-06
1.50528e-05
-2.48007e-06
1.51113e-05
-2.42086e-06
1.51051e-05
-2.45521e-06
1.50215e-05
-2.60271e-06
1.48523e-05
-2.76763e-06
1.46545e-05
-2.91703e-06
-2.85312e-06
1.43829e-05
3.38632e-05
-9.90697e-06
3.52741e-05
-1.62453e-05
3.66395e-05
-2.1265e-05
3.76658e-05
-2.50931e-05
3.73963e-05
-2.66262e-05
3.57047e-05
-2.54607e-05
3.16303e-05
-2.2217e-05
2.74636e-05
-1.64618e-05
2.21693e-05
-1.28085e-05
1.87471e-05
-1.01971e-05
1.6971e-05
-7.8471e-06
1.52072e-05
-6.52327e-06
1.41782e-05
-6.00686e-06
1.36234e-05
-5.36738e-06
1.31053e-05
-4.90804e-06
1.23782e-05
-4.20301e-06
1.1451e-05
-3.61583e-06
1.05952e-05
-3.29604e-06
1.01463e-05
-3.25342e-06
1.03101e-05
-3.43742e-06
1.09614e-05
-3.57049e-06
1.16278e-05
-3.57047e-06
1.21273e-05
-3.43164e-06
1.26883e-05
-3.52448e-06
1.30248e-05
-3.82827e-06
1.31091e-05
-4.00002e-06
1.30062e-05
-3.98337e-06
1.28771e-05
-3.83234e-06
1.26788e-05
-3.58511e-06
1.24789e-05
-3.2686e-06
1.22816e-05
-2.96396e-06
1.21213e-05
-2.70294e-06
1.19803e-05
-2.49561e-06
1.1866e-05
-2.32886e-06
1.17231e-05
-2.26271e-06
1.1522e-05
-2.27945e-06
1.12486e-05
-2.38528e-06
1.09428e-05
-2.49202e-06
1.05423e-05
-2.64743e-06
-2.60092e-06
1.01407e-05
3.27459e-05
-1.09163e-05
3.41484e-05
-1.7581e-05
3.5198e-05
-2.22477e-05
3.5311e-05
-2.51318e-05
3.25501e-05
-2.38443e-05
2.91329e-05
-2.08546e-05
2.44133e-05
-1.70919e-05
1.98892e-05
-1.20708e-05
1.63678e-05
-9.33223e-06
1.41691e-05
-8.03456e-06
1.2938e-05
-6.65908e-06
1.19869e-05
-5.58088e-06
1.09583e-05
-4.95147e-06
9.83066e-06
-4.17433e-06
8.4918e-06
-3.50987e-06
7.58122e-06
-3.20912e-06
7.51703e-06
-3.4188e-06
7.95189e-06
-3.6336e-06
8.61219e-06
-3.75514e-06
9.3017e-06
-3.90943e-06
1.02301e-05
-4.18374e-06
1.1249e-05
-4.27945e-06
1.21831e-05
-4.06941e-06
1.26773e-05
-3.90931e-06
1.27495e-05
-3.82516e-06
1.25391e-05
-3.75516e-06
1.21711e-05
-3.64128e-06
1.17774e-05
-3.45e-06
1.13874e-05
-3.2022e-06
1.1021e-05
-2.91844e-06
1.06781e-05
-2.64405e-06
1.03642e-05
-2.40916e-06
1.00847e-05
-2.22356e-06
9.80354e-06
-2.08913e-06
9.50257e-06
-2.02347e-06
9.16776e-06
-2.02171e-06
8.78371e-06
-2.0871e-06
8.36044e-06
-2.16923e-06
7.8755e-06
-2.27172e-06
-2.25403e-06
7.41962e-06
3.16331e-05
-1.19702e-05
3.29986e-05
-1.88887e-05
3.3295e-05
-2.2514e-05
3.16464e-05
-2.33038e-05
2.72393e-05
-2.00149e-05
2.26197e-05
-1.50862e-05
1.72862e-05
-1.13697e-05
1.40313e-05
-8.95885e-06
1.23406e-05
-7.66018e-06
1.09726e-05
-6.69311e-06
9.87964e-06
-5.58098e-06
8.80111e-06
-4.46512e-06
7.35767e-06
-3.45154e-06
6.10506e-06
-2.8309e-06
5.78839e-06
-3.0138e-06
6.14017e-06
-3.41885e-06
6.74662e-06
-3.94841e-06
7.82248e-06
-4.57156e-06
9.143e-06
-4.99747e-06
1.0499e-05
-4.99716e-06
1.15113e-05
-4.87991e-06
1.19657e-05
-4.58366e-06
1.21502e-05
-4.16228e-06
1.21111e-05
-3.83163e-06
1.18885e-05
-3.57704e-06
1.15206e-05
-3.36722e-06
1.10576e-05
-3.17355e-06
1.05674e-05
-2.96293e-06
1.00836e-05
-2.72734e-06
9.62974e-06
-2.48371e-06
9.20975e-06
-2.25434e-06
8.82148e-06
-2.05849e-06
8.45698e-06
-1.90366e-06
8.1038e-06
-1.79506e-06
7.74571e-06
-1.73677e-06
7.37024e-06
-1.72691e-06
6.96047e-06
-1.76693e-06
6.52209e-06
-1.82409e-06
6.04927e-06
-1.89211e-06
-1.88391e-06
5.58924e-06
3.0477e-05
-1.30253e-05
3.1587e-05
-1.99538e-05
2.99798e-05
-2.09391e-05
2.72614e-05
-1.93928e-05
2.11923e-05
-1.59548e-05
1.5616e-05
-1.12181e-05
1.25625e-05
-8.42958e-06
1.08723e-05
-7.2961e-06
9.6614e-06
-6.44504e-06
8.31298e-06
-5.34648e-06
6.79007e-06
-4.03676e-06
5.44559e-06
-3.07107e-06
4.92109e-06
-2.76524e-06
5.07443e-06
-2.78985e-06
5.59332e-06
-3.40927e-06
6.62539e-06
-4.34674e-06
8.14128e-06
-5.34158e-06
9.64384e-06
-5.94694e-06
1.06143e-05
-5.86861e-06
1.12205e-05
-5.48826e-06
1.14452e-05
-5.00171e-06
1.14015e-05
-4.46639e-06
1.12217e-05
-3.94338e-06
1.09257e-05
-3.51247e-06
1.05458e-05
-3.17966e-06
1.0101e-05
-2.91239e-06
9.61434e-06
-2.68569e-06
9.1171e-06
-2.473e-06
8.63265e-06
-2.26128e-06
8.17566e-06
-2.05598e-06
7.74858e-06
-1.86678e-06
7.34888e-06
-1.70655e-06
6.97113e-06
-1.58142e-06
6.60756e-06
-1.49524e-06
6.2435e-06
-1.44351e-06
5.86967e-06
-1.42904e-06
5.47648e-06
-1.45311e-06
5.06532e-06
-1.49331e-06
4.63288e-06
-1.53908e-06
-1.53741e-06
4.20983e-06
2.92634e-05
-1.40233e-05
2.88026e-05
-1.94628e-05
2.52753e-05
-1.73482e-05
2.09435e-05
-1.26555e-05
1.49407e-05
-9.79846e-06
1.13908e-05
-7.92364e-06
9.69585e-06
-6.79788e-06
8.50812e-06
-6.0825e-06
7.06013e-06
-4.98629e-06
5.5191e-06
-3.79059e-06
4.49367e-06
-2.95858e-06
4.20445e-06
-2.6579e-06
4.59939e-06
-2.84673e-06
5.44732e-06
-3.67845e-06
7.01933e-06
-4.95142e-06
8.83408e-06
-5.9859e-06
1.00452e-05
-6.45688e-06
1.057e-05
-6.39867e-06
1.0714e-05
-5.94376e-06
1.06536e-05
-5.36296e-06
1.04511e-05
-4.74295e-06
1.01529e-05
-4.1292e-06
9.80186e-06
-3.56868e-06
9.40768e-06
-3.10364e-06
8.97356e-06
-2.7378e-06
8.51764e-06
-2.45599e-06
8.05287e-06
-2.22681e-06
7.59163e-06
-2.0246e-06
7.14581e-06
-1.8366e-06
6.7275e-06
-1.66601e-06
6.33315e-06
-1.51016e-06
5.96429e-06
-1.38361e-06
5.61338e-06
-1.28362e-06
5.2668e-06
-1.20824e-06
4.92323e-06
-1.1648e-06
4.58016e-06
-1.15463e-06
4.22097e-06
-1.16485e-06
3.84986e-06
-1.19373e-06
3.46857e-06
-1.22856e-06
-1.24119e-06
3.10357e-06
2.75893e-05
-1.45069e-05
2.51464e-05
-1.69366e-05
1.93742e-05
-1.1796e-05
1.39364e-05
-7.67433e-06
1.06955e-05
-6.47248e-06
8.87561e-06
-6.06332e-06
7.59031e-06
-5.47766e-06
6.08574e-06
-4.55425e-06
4.66656e-06
-3.55003e-06
4.02479e-06
-3.09722e-06
3.9208e-06
-2.80799e-06
4.33625e-06
-2.99135e-06
5.59214e-06
-3.97523e-06
7.44425e-06
-5.40923e-06
9.08316e-06
-6.47043e-06
9.98345e-06
-6.81543e-06
1.0305e-05
-6.72225e-06
1.02485e-05
-6.28756e-06
9.99263e-06
-5.63731e-06
9.59581e-06
-4.92025e-06
9.12634e-06
-4.23981e-06
8.65033e-06
-3.63173e-06
8.19575e-06
-3.10218e-06
7.76303e-06
-2.66479e-06
7.34708e-06
-2.31983e-06
6.93304e-06
-2.0477e-06
6.52264e-06
-1.82687e-06
6.11933e-06
-1.63738e-06
5.73047e-06
-1.47252e-06
5.36903e-06
-1.32976e-06
5.02791e-06
-1.20431e-06
4.70067e-06
-1.09978e-06
4.38239e-06
-1.01485e-06
4.0747e-06
-9.55318e-07
3.76908e-06
-9.1824e-07
3.45909e-06
-9.06768e-07
3.14778e-06
-9.17571e-07
2.83132e-06
-9.41995e-07
2.51175e-06
-9.73407e-07
-9.94783e-07
2.2021e-06
2.51265e-05
-1.36807e-05
1.90095e-05
-1.09904e-05
1.27866e-05
-6.13776e-06
9.80142e-06
-4.85461e-06
8.34412e-06
-5.0447e-06
6.98487e-06
-4.65443e-06
5.4711e-06
-3.9327e-06
4.27656e-06
-3.32726e-06
3.95411e-06
-3.16514e-06
3.95723e-06
-3.06378e-06
4.53635e-06
-3.33727e-06
6.06556e-06
-4.41751e-06
7.98671e-06
-5.78179e-06
9.26517e-06
-6.59831e-06
9.79866e-06
-6.95271e-06
9.92641e-06
-6.8655e-06
9.70137e-06
-6.45374e-06
9.26712e-06
-5.81037e-06
8.74276e-06
-5.07414e-06
8.18538e-06
-4.33328e-06
7.64248e-06
-3.67682e-06
7.12957e-06
-3.1068e-06
6.66034e-06
-2.62778e-06
6.23909e-06
-2.23509e-06
5.85305e-06
-1.93448e-06
5.47747e-06
-1.68883e-06
5.12168e-06
-1.48451e-06
4.78137e-06
-1.31569e-06
4.45016e-06
-1.17189e-06
4.15572e-06
-1.0496e-06
3.86297e-06
-9.47787e-07
3.57856e-06
-8.57239e-07
3.30467e-06
-7.87136e-07
3.03786e-06
-7.38853e-07
2.77685e-06
-7.11193e-07
2.51555e-06
-7.021e-07
2.2515e-06
-7.11889e-07
1.98512e-06
-7.34761e-07
1.71979e-06
-7.67246e-07
-7.93312e-07
1.45977e-06
1.94494e-05
-8.325e-06
1.20472e-05
-3.67557e-06
9.11788e-06
-3.25765e-06
7.78063e-06
-3.55791e-06
6.43553e-06
-3.70279e-06
5.22689e-06
-3.41135e-06
4.41499e-06
-3.03383e-06
4.29245e-06
-3.11322e-06
4.46846e-06
-3.31324e-06
5.28423e-06
-3.85387e-06
6.85596e-06
-4.86484e-06
8.35568e-06
-5.85631e-06
9.20098e-06
-6.56116e-06
9.5419e-06
-6.8825e-06
9.49536e-06
-6.85384e-06
9.15608e-06
-6.48018e-06
8.61208e-06
-5.87067e-06
7.97326e-06
-5.13921e-06
7.32526e-06
-4.39907e-06
6.71742e-06
-3.70585e-06
6.1672e-06
-3.11407e-06
5.68439e-06
-2.61006e-06
5.25644e-06
-2.20239e-06
4.87634e-06
-1.86011e-06
4.52779e-06
-1.59195e-06
4.20474e-06
-1.37651e-06
3.90454e-06
-1.19807e-06
3.62023e-06
-1.04967e-06
3.34915e-06
-9.25957e-07
3.10012e-06
-8.21013e-07
2.85539e-06
-7.3541e-07
2.61891e-06
-6.62483e-07
2.3917e-06
-6.03024e-07
2.16868e-06
-5.62414e-07
1.94585e-06
-5.38041e-07
1.72193e-06
-5.30182e-07
1.49554e-06
-5.38994e-07
1.269e-06
-5.62453e-07
1.04075e-06
-5.93375e-07
-6.26676e-07
8.20163e-07
1.61111e-05
-7.94519e-07
9.91662e-06
2.47212e-06
7.29724e-06
-7.70835e-07
5.9897e-06
-2.3623e-06
5.13252e-06
-2.82241e-06
4.77666e-06
-2.9415e-06
4.88678e-06
-3.25104e-06
5.38826e-06
-3.5628e-06
6.32451e-06
-4.23794e-06
7.57877e-06
-5.08416e-06
8.53005e-06
-5.78431e-06
9.05793e-06
-6.33947e-06
9.2165e-06
-6.67192e-06
9.0782e-06
-6.69747e-06
8.65851e-06
-6.38999e-06
8.04179e-06
-5.82482e-06
7.332e-06
-5.1299e-06
6.61242e-06
-4.39405e-06
5.9464e-06
-3.71288e-06
5.36304e-06
-3.10212e-06
4.8518e-06
-2.5989e-06
4.40982e-06
-2.16776e-06
4.02461e-06
-1.81814e-06
3.69199e-06
-1.53233e-06
3.39387e-06
-1.30153e-06
3.12375e-06
-1.11726e-06
2.876e-06
-9.64484e-07
2.64178e-06
-8.33657e-07
2.41962e-06
-7.26686e-07
2.20897e-06
-6.36972e-07
2.01188e-06
-5.65363e-07
1.81569e-06
-5.05457e-07
1.6208e-06
-4.48663e-07
1.42462e-06
-4.09605e-07
1.2297e-06
-3.89057e-07
1.0359e-06
-3.84212e-07
8.3923e-07
-3.91207e-07
6.57784e-07
-4.30639e-07
5.0399e-07
-4.89464e-07
-5.27623e-07
3.55308e-07
8.28153e-06
1.0945e-06
9.29332e-06
1.43475e-06
8.41015e-06
1.27838e-07
7.40965e-06
-1.329e-06
6.88108e-06
-2.22186e-06
6.96826e-06
-2.91309e-06
7.59841e-06
-3.43533e-06
8.09939e-06
-3.97593e-06
8.50144e-06
-4.60161e-06
8.77442e-06
-5.32006e-06
8.91541e-06
-5.88425e-06
8.90796e-06
-6.28775e-06
8.69467e-06
-6.41504e-06
8.22742e-06
-6.18868e-06
7.56479e-06
-5.68967e-06
6.80341e-06
-5.03261e-06
6.03624e-06
-4.33872e-06
5.33256e-06
-3.66356e-06
4.709e-06
-3.07573e-06
4.17016e-06
-2.55915e-06
3.70766e-06
-2.13229e-06
3.32046e-06
-1.78007e-06
2.99045e-06
-1.49049e-06
2.70808e-06
-1.25526e-06
2.45598e-06
-1.05766e-06
2.23095e-06
-9.03341e-07
2.0273e-06
-7.7512e-07
1.83301e-06
-6.57565e-07
1.64212e-06
-5.58155e-07
1.46032e-06
-4.77597e-07
1.28333e-06
-4.18284e-07
1.10553e-06
-3.63616e-07
9.4322e-07
-3.23394e-07
7.93195e-07
-2.99587e-07
6.52771e-07
-2.90969e-07
5.28521e-07
-3.04338e-07
4.1462e-07
-3.22787e-07
2.7562e-07
-3.38336e-07
1.12677e-07
-3.74017e-07
-4.28913e-07
-3.35113e-08
9.06809e-06
1.67613e-06
9.29149e-06
1.23394e-06
9.15633e-06
2.92964e-07
8.94673e-06
-1.08653e-06
8.76857e-06
-1.98848e-06
8.60896e-06
-2.68961e-06
8.58258e-06
-3.35416e-06
8.65966e-06
-4.00748e-06
8.7398e-06
-4.63842e-06
8.72238e-06
-5.25952e-06
8.6213e-06
-5.74002e-06
8.36373e-06
-5.98794e-06
7.85661e-06
-5.86719e-06
7.15378e-06
-5.44928e-06
6.36217e-06
-4.86658e-06
5.57797e-06
-4.21708e-06
4.84135e-06
-3.58533e-06
4.18741e-06
-2.99629e-06
3.61958e-06
-2.49734e-06
3.14692e-06
-2.08074e-06
2.75267e-06
-1.73558e-06
2.42453e-06
-1.45237e-06
2.14552e-06
-1.21452e-06
1.9097e-06
-1.02498e-06
1.69304e-06
-8.49543e-07
1.48989e-06
-7.11468e-07
1.30777e-06
-6.07052e-07
1.14345e-06
-5.10949e-07
9.9323e-07
-4.29799e-07
8.61128e-07
-3.67605e-07
7.25364e-07
-3.11505e-07
6.00541e-07
-2.70866e-07
4.89568e-07
-2.47283e-07
3.83987e-07
-2.31791e-07
2.79426e-07
-2.26479e-07
1.61113e-07
-2.28043e-07
4.21108e-08
-2.47326e-07
-6.97428e-08
-2.71031e-07
-1.80109e-07
-3.08779e-07
-3.54642e-07
-2.9968e-07
8.88623e-06
1.91865e-06
9.0248e-06
1.12825e-06
8.92645e-06
4.25305e-07
8.82761e-06
-9.5209e-07
8.59552e-06
-1.71765e-06
8.46795e-06
-2.52046e-06
8.48807e-06
-3.33239e-06
8.5262e-06
-4.00389e-06
8.49478e-06
-4.56503e-06
8.35453e-06
-5.07741e-06
8.06052e-06
-5.40484e-06
7.51847e-06
-5.40581e-06
6.79059e-06
-5.10216e-06
5.99201e-06
-4.61623e-06
5.19702e-06
-4.04382e-06
4.44368e-06
-3.44537e-06
3.76031e-06
-2.88713e-06
3.18546e-06
-2.4065e-06
2.70495e-06
-2.00859e-06
2.30821e-06
-1.67968e-06
1.97774e-06
-1.4038e-06
1.70354e-06
-1.17919e-06
1.45611e-06
-9.70631e-07
1.2472e-06
-8.21592e-07
1.07403e-06
-6.84736e-07
9.28497e-07
-5.77117e-07
7.80875e-07
-4.7348e-07
6.53974e-07
-4.02301e-07
5.49004e-07
-3.46851e-07
4.46849e-07
-2.87325e-07
3.46399e-07
-2.38991e-07
2.49556e-07
-2.04658e-07
1.53497e-07
-1.84681e-07
5.94621e-08
-1.73611e-07
-3.31158e-08
-1.71763e-07
-1.22234e-07
-1.78458e-07
-2.15029e-07
-1.95332e-07
-3.08604e-07
-2.19171e-07
-4.0592e-07
-2.53737e-07
-2.93665e-07
-5.09301e-07
8.45898e-06
2.06751e-06
8.50156e-06
1.11796e-06
8.6444e-06
3.16014e-07
8.58017e-06
-8.53095e-07
8.49943e-06
-1.59985e-06
8.41205e-06
-2.39458e-06
8.33621e-06
-3.21739e-06
8.22476e-06
-3.85271e-06
8.05748e-06
-4.35794e-06
7.72796e-06
-4.70838e-06
7.17213e-06
-4.81036e-06
6.44705e-06
-4.64286e-06
5.65475e-06
-4.27674e-06
4.86055e-06
-3.7951e-06
4.10051e-06
-3.26066e-06
3.41833e-06
-2.74669e-06
2.83842e-06
-2.29555e-06
2.35931e-06
-1.9148e-06
1.9622e-06
-1.60558e-06
1.63592e-06
-1.35059e-06
1.35189e-06
-1.11941e-06
1.11913e-06
-9.47726e-07
9.36703e-07
-7.91904e-07
7.66279e-07
-6.57027e-07
6.30772e-07
-5.578e-07
5.11271e-07
-4.69038e-07
4.05898e-07
-3.82947e-07
3.0495e-07
-3.21198e-07
2.09333e-07
-2.68925e-07
1.18878e-07
-2.2015e-07
3.65767e-08
-1.82879e-07
-4.12532e-08
-1.55829e-07
-1.17646e-07
-1.39713e-07
-1.92767e-07
-1.32015e-07
-2.67125e-07
-1.32742e-07
-3.41144e-07
-1.41301e-07
-4.17251e-07
-1.57293e-07
-4.95496e-07
-1.7988e-07
-5.78681e-07
-2.10052e-07
-2.44671e-07
-6.67367e-07
8.03745e-06
2.11699e-06
8.13856e-06
1.04802e-06
8.2247e-06
2.62464e-07
8.22685e-06
-8.21355e-07
8.17865e-06
-1.51632e-06
8.08738e-06
-2.26676e-06
7.94265e-06
-3.03546e-06
7.71226e-06
-3.58473e-06
7.33003e-06
-3.93813e-06
6.775e-06
-4.11626e-06
6.07874e-06
-4.07787e-06
5.31278e-06
-3.84231e-06
4.53847e-06
-3.47359e-06
3.79417e-06
-3.02752e-06
3.12423e-06
-2.57296e-06
2.55407e-06
-2.16463e-06
2.08216e-06
-1.81688e-06
1.6908e-06
-1.52498e-06
1.36805e-06
-1.28178e-06
1.09206e-06
-1.07424e-06
8.80334e-07
-9.08067e-07
6.89784e-07
-7.58962e-07
5.40829e-07
-6.4689e-07
4.13599e-07
-5.36152e-07
2.99696e-07
-4.52586e-07
1.92184e-07
-3.72857e-07
1.03152e-07
-3.09307e-07
2.20929e-08
-2.57707e-07
-5.38733e-08
-2.10051e-07
-1.27101e-07
-1.69107e-07
-1.94833e-07
-1.39953e-07
-2.58664e-07
-1.19207e-07
-3.20583e-07
-1.07137e-07
-3.8128e-07
-1.02542e-07
-4.41953e-07
-1.04925e-07
-5.03619e-07
-1.13865e-07
-5.67283e-07
-1.28953e-07
-6.33827e-07
-1.49494e-07
-7.0503e-07
-1.7553e-07
-2.0562e-07
-7.80958e-07
7.60645e-06
2.07642e-06
7.60395e-06
1.08037e-06
7.77013e-06
1.27561e-07
7.76135e-06
-7.80068e-07
7.68772e-06
-1.40927e-06
7.54409e-06
-2.08836e-06
7.2504e-06
-2.70652e-06
6.82788e-06
-3.12672e-06
6.294e-06
-3.36896e-06
5.65035e-06
-3.43784e-06
4.93532e-06
-3.32921e-06
4.20057e-06
-3.07715e-06
3.48908e-06
-2.73726e-06
2.84478e-06
-2.36426e-06
2.2983e-06
-2.01202e-06
1.84629e-06
-1.70227e-06
1.4744e-06
-1.43815e-06
1.16348e-06
-1.21165e-06
9.07812e-07
-1.02362e-06
6.96301e-07
-8.61559e-07
5.2052e-07
-7.32681e-07
3.74746e-07
-6.15463e-07
2.44989e-07
-5.21233e-07
1.37391e-07
-4.34824e-07
4.16254e-08
-3.65347e-07
-4.14259e-08
-3.01216e-07
-1.16187e-07
-2.49416e-07
-1.83476e-07
-2.04211e-07
-2.48196e-07
-1.63784e-07
-3.06912e-07
-1.31302e-07
-3.61864e-07
-1.08243e-07
-4.13882e-07
-9.25376e-08
-4.64405e-07
-8.3863e-08
-5.14409e-07
-8.14778e-08
-5.64858e-07
-8.48887e-08
-6.16757e-07
-9.36192e-08
-6.70882e-07
-1.07476e-07
-7.28316e-07
-1.25465e-07
-7.90089e-07
-1.47648e-07
-1.73431e-07
-8.56341e-07
7.05134e-06
2.06977e-06
7.02511e-06
1.13497e-06
7.09027e-06
9.21991e-08
7.00668e-06
-6.65581e-07
6.85383e-06
-1.22483e-06
6.59798e-06
-1.79965e-06
6.20562e-06
-2.28094e-06
5.71594e-06
-2.60375e-06
5.14419e-06
-2.76425e-06
4.50355e-06
-2.76481e-06
3.83331e-06
-2.62854e-06
3.18151e-06
-2.39875e-06
2.58696e-06
-2.12226e-06
2.07713e-06
-1.83856e-06
1.6527e-06
-1.57596e-06
1.30142e-06
-1.34254e-06
1.00753e-06
-1.13825e-06
7.67584e-07
-9.67971e-07
5.65417e-07
-8.18948e-07
4.00257e-07
-6.95394e-07
2.56473e-07
-5.89462e-07
1.33903e-07
-4.95204e-07
2.89422e-08
-4.20363e-07
-6.02316e-08
-3.51746e-07
-1.39933e-07
-2.93923e-07
-2.10602e-07
-2.42518e-07
-2.72133e-07
-2.00623e-07
-3.28158e-07
-1.61358e-07
-3.81084e-07
-1.28219e-07
-4.29157e-07
-1.02783e-07
-4.74165e-07
-8.48461e-08
-5.16928e-07
-7.32546e-08
-5.58736e-07
-6.7235e-08
-6.01381e-07
-6.5534e-08
-6.44954e-07
-6.93321e-08
-6.89572e-07
-7.8126e-08
-7.36238e-07
-9.08335e-08
-7.86218e-07
-1.06187e-07
-8.40215e-07
-1.24786e-07
-1.46264e-07
-8.98661e-07
6.19367e-06
2.39947e-06
6.18209e-06
1.17331e-06
6.1199e-06
1.8251e-07
5.94191e-06
-4.58484e-07
5.74121e-06
-9.94287e-07
5.43936e-06
-1.46718e-06
5.03498e-06
-1.8455e-06
4.55605e-06
-2.09377e-06
4.012e-06
-2.18946e-06
3.43045e-06
-2.15365e-06
2.85735e-06
-2.02821e-06
2.33271e-06
-1.85187e-06
1.87555e-06
-1.64744e-06
1.48899e-06
-1.43893e-06
1.16505e-06
-1.24247e-06
8.92522e-07
-1.06303e-06
6.66756e-07
-9.07429e-07
4.7536e-07
-7.73098e-07
3.15359e-07
-6.56831e-07
1.76408e-07
-5.55372e-07
6.01745e-08
-4.73879e-07
-3.77181e-08
-3.99586e-07
-1.2437e-07
-3.37702e-07
-1.99065e-07
-2.82884e-07
-2.65559e-07
-2.36007e-07
-3.23781e-07
-1.9493e-07
-3.75454e-07
-1.59148e-07
-4.22613e-07
-1.28283e-07
-4.66048e-07
-1.00923e-07
-5.05689e-07
-8.12616e-08
-5.42866e-07
-6.76143e-08
-5.78562e-07
-5.91712e-08
-6.14962e-07
-5.39727e-08
-6.5151e-07
-5.34784e-08
-6.89205e-07
-5.73035e-08
-7.28846e-07
-6.51358e-08
-7.70637e-07
-7.64872e-08
-8.14136e-07
-9.07283e-08
-8.61634e-07
-1.05707e-07
-1.23196e-07
-9.13235e-07
4.05582e-06
9.10105e-07
4.55328e-06
7.01008e-07
4.67235e-06
8.97891e-08
4.63897e-06
-3.97899e-07
4.49347e-06
-8.20936e-07
4.23225e-06
-1.1775e-06
3.88574e-06
-1.47022e-06
3.46659e-06
-1.64588e-06
2.99542e-06
-1.69001e-06
2.51873e-06
-1.65007e-06
2.07723e-06
-1.56304e-06
1.68571e-06
-1.44135e-06
1.34657e-06
-1.29355e-06
1.05576e-06
-1.1372e-06
8.0636e-07
-9.85083e-07
5.95926e-07
-8.46717e-07
4.1657e-07
-7.23768e-07
2.63505e-07
-6.17018e-07
1.31316e-07
-5.2284e-07
2.19931e-08
-4.45444e-07
-7.39201e-08
-3.78702e-07
-1.5592e-07
-3.19815e-07
-2.2759e-07
-2.69849e-07
-2.90173e-07
-2.26151e-07
-3.45968e-07
-1.88604e-07
-3.9348e-07
-1.55038e-07
-4.37153e-07
-1.26648e-07
-4.77474e-07
-1.00983e-07
-5.13468e-07
-7.98136e-08
-5.46668e-07
-6.46971e-08
-5.77785e-07
-5.47526e-08
-6.09241e-07
-4.74607e-08
-6.40421e-07
-4.38934e-08
-6.72194e-07
-4.40104e-08
-7.05228e-07
-4.76178e-08
-7.40155e-07
-5.44318e-08
-7.77489e-07
-6.40775e-08
-8.17459e-07
-7.61929e-08
-8.59024e-07
-8.98887e-08
-1.03335e-07
-9.04714e-07
2.77631e-06
4.7747e-07
3.24141e-06
2.5933e-07
3.44684e-06
-9.11969e-08
3.4789e-06
-4.04828e-07
3.37116e-06
-6.87408e-07
3.17361e-06
-9.53684e-07
2.89489e-06
-1.16502e-06
2.54723e-06
-1.27184e-06
2.17696e-06
-1.294e-06
1.82609e-06
-1.27524e-06
1.50834e-06
-1.2251e-06
1.22284e-06
-1.13941e-06
9.69038e-07
-1.0273e-06
7.45225e-07
-9.0421e-07