/*--------------------------------*- C++ -*----------------------------------*\
| =========                 |                                                 |
| \\      /  F ield         | OpenFOAM: The Open Source CFD Toolbox           |
|  \\    /   O peration     | Version:  2.3.0                                 |
|   \\  /    A nd           | Web:      www.OpenFOAM.org                      |
|    \\/     M anipulation  |                                                 |
\*---------------------------------------------------------------------------*/
FoamFile
{
    version     2.0;
    format      ascii;
    class       volScalarField;
    location    "20";
    object      Qr;
}
// * * * * * * * * * * * * * * * * * * * * * * * * * * * * * * * * * * * * * //

dimensions      [1 0 -3 0 0 0 0];

internalField   uniform 0;

boundaryField
{
    inlet
    {
        type            calculated;
        value           nonuniform List<scalar> 
40
(
47494.7
47511.7
47528.7
47545.9
47563
47580.1
47597
47613.7
47630.2
47646.5
47662.4
47678
47693.2
47707.9
47722.2
47735.9
47749
47761.4
47773.1
47783.9
50108.8
50118.3
50127.6
50136.4
50144.9
50152.9
50160.5
50167.5
50174.1
50180.2
50185.7
50190.7
50195.2
50199.1
50202.5
50205.3
50207.6
50209.2
50210.3
50210.9
)
;
    }
    outlet
    {
        type            calculated;
        value           nonuniform List<scalar> 
40
(
1844.07
-40.2426
-845.945
-1311.07
-1635.59
-1886.94
-2094.13
-2271.89
-2428.59
-2569.4
-2697.7
-2815.8
-2925.32
-3027.48
-3123.14
-3212.99
-3297.54
-3377.21
-3452.3
-3523.09
-3589.77
-3652.53
-3711.48
-3766.75
-3818.44
-3866.61
-3911.35
-3952.71
-3990.73
-4025.46
-4056.92
-4085.16
-4110.2
-4132.05
-4150.73
-4166.26
-4178.64
-4187.88
-4193.95
-4196.71
)
;
    }
    fixedWalls
    {
        type            calculated;
        value           nonuniform List<scalar> 
482
(
17312.5
17354
17394.6
17434.6
17474
17513.1
17551.8
17590.3
17628.5
17666.5
17704.3
17742
17779.5
17816.9
17854.1
17891.3
17928.3
17965.4
18002.3
18039.3
18076.2
18113.2
18150.3
18187.4
18224.6
18262
18299.6
18337.4
18375.5
18413.9
18452.8
18492.2
18532.2
18573.1
18615
18658.3
18703.3
18750.8
18801.9
18859
3314.52
3314.99
3314.99
3314.75
3314.39
3313.98
3313.55
3313.14
3312.77
3312.45
3312.19
3312.01
3311.91
3311.9
3311.97
3312.15
3312.42
3312.8
3313.29
3313.88
3314.59
3315.41
3316.34
3317.39
3318.55
3319.83
3321.23
3322.75
3324.4
3326.16
3328.04
3330.05
3332.18
3334.44
3336.81
3339.32
3341.95
3344.7
3347.58
3350.58
3353.72
3356.97
3360.36
3363.87
3367.51
3371.28
3375.18
3379.21
3383.36
3387.64
3392.06
3396.6
3401.27
3406.08
3411.01
3416.08
3421.27
3426.6
3432.06
3437.65
3443.37
3449.23
3455.22
3461.34
3467.6
3473.99
3480.51
3487.17
3493.97
3500.9
3507.97
3515.18
3522.52
3530.01
3537.63
3545.39
3553.29
3561.33
3569.51
3577.84
3586.3
3594.92
3603.68
3612.58
3621.63
3630.83
3640.18
3649.69
3659.34
3669.15
3679.12
3689.25
3699.54
3709.99
3720.61
3731.4
3742.36
3753.5
3764.82
3776.33
3788.03
3799.93
3812.04
3824.36
3836.9
3849.68
3862.71
3876
3889.58
3903.46
3917.68
3932.27
3947.27
3962.74
3978.77
3995.46
4012.97
4031.56
4051.66
4074.1
4048.65
4051.41
4051.75
4055.17
4058.87
4062.82
4067.01
4071.44
4076.11
4081.01
4086.14
4091.52
4097.14
4103
4109.1
4115.45
4122.05
4128.92
4136.03
4143.4
4151.03
4158.89
4166.98
4175.29
4183.8
4192.47
4201.25
4210.06
4218.79
4227.28
4235.32
4060.29
4069.67
4079.57
4089.98
4100.93
4112.42
4124.57
4137.43
4150.86
4165.03
4179.95
4195.64
4212.12
4229.42
4247.7
4266.99
4287.32
4308.72
4331.21
4354.84
4379.61
4405.73
4433.23
4462.14
4492.69
4524.71
4558.43
4594.09
4631.52
4670.95
4712.44
4756.02
4801.93
4850.21
4901.12
4954.7
5011
5070.29
5132.6
5197.99
5266.62
5338.81
5414.75
5494.54
5578.27
5666.04
5757.94
5854.06
5954.5
6059.34
6169.19
6284.18
6403.32
6526.65
6654.78
6787.78
6925.15
7066.37
7211.45
7360.37
7513.12
7669.11
7828.26
7990.55
8155.3
8321.83
8490.01
8659.76
8830.35
9002.28
9175.47
9348.52
9521.31
9694.36
9867.56
10040.2
10212.1
10383.3
10553.7
10723
10891.4
11058.6
11224
11388.1
11550.9
11712.2
11872.4
12031.4
12188.1
12342.5
12495.7
12647.7
12798.3
12946.2
13091.4
13234.9
13376.7
13516.7
13654.8
13790.9
13924.9
14056.7
14186.3
14313.5
14438.3
14560.8
14680.7
14798.2
14913.3
15025.9
15136
15243.6
15349.7
15454.1
15556
15655.4
15753.2
15849.3
15943
16034.3
16124.1
16212.4
16299.1
16384.2
16467
16548.2
16627.8
16705.8
16782.3
16857.2
16930.9
17002.9
17074
17144.2
17212.6
17280.1
17346.8
17412.6
17477.4
17540.3
17602.2
17663
17722.6
17780.9
17837.9
17894.1
17948.8
18001.8
18053.7
18103.7
18151.8
18198.4
18243.2
18285.6
18325.5
18363
18398
18430.2
18459.3
18485.6
18508.7
18528.5
18545.3
18558.8
18569.2
18576.8
18581.8
18584.1
18584
18581.6
18577.1
18570.6
18562.3
18552.2
18540.3
18526.6
18511.2
18494
18475.2
18454.9
18432.9
18409.4
18384.4
18357.6
18329.4
18299.9
18269.2
18237.2
18204.1
18169.8
18134.4
18098.1
18061.3
18024.4
17987
17949.1
17911.1
17873.6
17822.7
17837.2
17829.4
17836.9
17845.2
17854.1
17863.7
17874.1
17885.1
17896.9
17909.4
17922.8
17937.1
17952.2
17968.3
17985.3
18003.5
18022.8
18043.2
18065
18088.1
18112.6
18138.6
18166.3
18195.8
18227.2
18260.7
18296.5
18334.9
18376.2
18421.1
4136.78
18983.7
4149.46
19003.9
4160.63
19020.7
4170.6
19034
4179.58
19044.5
4187.75
19052.3
4195.22
19057.5
4202.08
19060.1
4208.39
19060.2
4214.19
19057.9
4219.54
19053.2
4224.45
19046.1
4228.94
19036.6
4233.03
19024.6
4236.73
19010.3
4240.04
18993.5
4242.96
18974.3
4245.5
18952.6
4247.65
18928.7
4249.4
18902.4
4250.76
18873.8
4251.71
18843
4252.24
18810
4252.35
18774.9
4252.01
18737.7
4251.22
18698.4
4249.96
18657
4248.21
18613.5
4245.96
18567.8
4243.23
18520.2
4239.96
18470.2
)
;
    }
    frontAndBack
    {
        type            empty;
    }
    bottom
    {
        type            empty;
    }
    frontAndBack_pos
    {
        type            wedge;
    }
    frontAndBack_neg
    {
        type            wedge;
    }
}


// ************************************************************************* //
