/*--------------------------------*- C++ -*----------------------------------*\
| =========                 |                                                 |
| \\      /  F ield         | OpenFOAM: The Open Source CFD Toolbox           |
|  \\    /   O peration     | Version:  2.3.0                                 |
|   \\  /    A nd           | Web:      www.OpenFOAM.org                      |
|    \\/     M anipulation  |                                                 |
\*---------------------------------------------------------------------------*/
FoamFile
{
    version     2.0;
    format      ascii;
    class       volScalarField;
    location    "20";
    object      T;
}
// * * * * * * * * * * * * * * * * * * * * * * * * * * * * * * * * * * * * * //

dimensions      [0 0 0 1 0 0 0];

internalField   nonuniform List<scalar> 
26600
(
413.44
415.961
418.142
420.012
421.568
422.803
423.739
424.387
424.768
424.942
425.026
425.14
425.344
425.741
426.306
427.147
428.156
429.401
430.762
432.361
434.06
435.938
437.924
439.962
442.082
444.232
446.494
448.791
451.158
453.527
456.048
458.68
461.45
464.406
467.458
470.58
473.777
477.088
480.82
487.359
411.195
411.315
411.428
411.556
411.69
411.817
411.952
412.132
412.423
412.9
413.665
414.815
416.173
418.484
420.539
423.976
426.766
431.164
434.439
440.157
444.433
450.341
456.282
462.648
469.597
475.024
484.296
490.446
499.761
505.181
516.446
523.396
529.094
536.761
540.863
547.575
552.004
560.006
567.025
576.875
411.1
411.149
411.186
411.22
411.256
411.313
411.433
411.673
412.186
413.121
414.809
417.281
420.515
425.322
430.163
437.467
443.706
453.007
460.169
472.302
480.536
494.453
507.696
519.481
540.824
552.427
562.871
575.847
591.033
603.251
617.515
629.803
647.176
657.987
677.804
693.654
711.845
728.304
746.566
765.23
411.089
411.123
411.153
411.183
411.221
411.312
411.542
412.086
413.3
415.398
418.86
423.46
429.858
438.506
447.801
461.018
472.099
488.887
501.553
523.78
538.673
569.913
588.179
602.109
630.809
652.216
681.489
706.063
727.904
751.709
779.836
803.545
833.006
853.042
894.206
921.511
951.887
984.783
1016.54
1031.46
411.088
411.124
411.142
411.178
411.249
411.453
411.975
413.18
415.864
420.036
426.599
434.861
446.863
461.866
478.769
501.415
519.415
549.498
570.011
612.667
637.534
668.957
714.939
758.275
796.323
831.782
892.503
939.258
994.185
1051.17
1109.14
1165.64
1217.71
1271.56
1318.18
1372.13
1414.61
1472.6
1522.95
1523.74
411.087
411.125
411.149
411.191
411.351
411.816
412.972
415.516
421.125
428.895
440.873
455.635
477.949
503.291
534.423
571.353
600.023
657.279
687.121
745.402
797.71
879.461
1001.4
1060.29
1120.99
1196.25
1268.9
1323.93
1394.19
1450.53
1497.86
1542.15
1578.78
1620.44
1650.74
1698.33
1719.64
1739.88
1750.69
1806.49
411.086
411.124
411.157
411.26
411.603
412.624
415.08
420.21
431.413
445.113
466.578
493.517
535.397
577.481
638.994
692.074
742.032
822.706
917.799
1009.54
1106.56
1210.48
1470.99
1467.69
1480.63
1509.03
1554.2
1590.53
1639.04
1673.85
1694.49
1711.49
1708.31
1717.67
1699.75
1747.37
1698.93
1655.18
1568.86
1567.08
411.085
411.125
411.187
411.425
412.193
414.354
419.423
429.284
450.814
473.959
512.479
564.915
645.414
712.948
793.88
897.014
1011.25
1128.68
1228.75
1326.95
1401.6
1470.63
1549.49
1608.99
1638.3
1646.99
1639.79
1619.26
1674.59
1638.59
1603.72
1557.03
1503.24
1457.85
1398.09
1325.91
1286.56
1210.46
1166.05
1129.61
411.084
411.134
411.274
411.802
413.464
417.941
428.142
446.373
487.159
524.724
597.207
710.959
802.896
938.418
1079.58
1207.3
1306.72
1403.16
1484.6
1573.35
1603.59
1635.02
1621.51
1665.24
1586.89
1503.92
1389.79
1293.63
1253.97
1227.9
1186.62
1155.13
1124.69
1085.28
1037.94
982.859
918.016
872.805
834.264
831.251
411.084
411.169
411.48
412.624
416.172
425.373
445.252
478.65
555.91
615.581
774.254
924.257
1089.02
1234.64
1346.05
1470.01
1553.19
1611.42
1592.87
1669.78
1583.8
1511.12
1386.07
1306.44
1144.49
1059.34
997.966
939.695
897.182
863.202
832.967
800.679
766.759
739.77
709.796
686.261
674.656
664.198
660.144
662.955
411.089
411.253
411.918
414.399
421.967
441.131
478.968
540.914
678.135
780.075
1055.79
1224.04
1345.06
1507.54
1577.54
1583.74
1626.36
1552.27
1436.93
1368.33
1204.1
1093.4
989.996
837.713
713.009
649.109
630.287
618.116
608.718
600.012
593.659
587.58
572.963
566.439
561.673
559.145
560.31
563.73
571.299
586.215
411.102
411.415
412.873
418.277
434.662
476.885
544.403
673.072
880.217
1123
1285.05
1497.68
1553.8
1611.4
1542.35
1465.96
1342.54
1202.95
1081.65
909.185
752.056
623.7
582.317
556.676
521.516
498.898
484.683
478.65
475.711
474.991
476.661
479.163
481.742
485.408
491.419
499.656
509.538
519.555
532.118
551.145
411.122
411.75
415.055
427.072
464.1
562.564
674.066
884.672
1174.44
1382.77
1513.08
1591.87
1527.5
1443.78
1276.81
1147.79
936.788
754.682
608.993
562.307
520.29
466.09
436.583
412.237
406.866
406.519
409.375
414.466
419.759
426.183
433.907
442.269
450.508
459.652
470.594
482.933
496.39
510.777
526.582
545.578
411.147
412.53
420.535
448.749
539.498
660.242
921.107
1229.3
1449.99
1503.58
1555.1
1464.07
1298.96
1158.78
923.627
703.307
566.221
530.757
465.939
420.009
380.383
367.716
367.943
370.011
374.594
380.611
387.975
395.963
404.795
414.212
424.359
435.025
446.023
457.84
470.783
484.895
500.366
517.081
535.396
556.413
411.174
414.676
436.99
510.816
630.004
923.652
1255.15
1458.86
1500.56
1450.02
1377.82
1193.35
962.766
726.505
570.107
524.039
462.06
384.383
356.632
345.8
344.619
346.302
351.252
358.819
367.162
376.087
385.65
395.651
406.259
417.331
428.856
440.866
453.431
466.798
481.17
496.684
513.509
531.799
551.9
574.569
411.159
422.826
502.009
598.061
883.111
1245.68
1472.07
1491.34
1382
1255.02
1033.51
832.37
608.931
514.947
478.044
388.159
349.713
332.339
329.944
331.035
334.759
341.911
350.613
361.071
371.867
382.815
394.014
405.409
417.137
429.038
441.212
453.971
467.448
481.802
497.196
513.786
531.739
551.24
572.573
596.196
410.838
466.732
589.712
868.029
1239.88
1442.83
1500.16
1321.28
1179.04
917.506
704.709
555.111
499.216
436.75
357.805
330.16
320.535
320.341
322.487
327.964
336.509
347.666
359.418
372.447
384.425
396.364
408.625
420.933
433.482
445.906
458.26
471.518
485.666
500.764
516.956
534.394
553.22
573.576
595.633
619.593
410.189
577.422
892.867
1253.67
1404.28
1479.71
1299.92
1093.05
830.164
596.275
544.592
474.79
376.254
334.217
316.559
313.015
313.588
316.666
323.186
333.973
346.153
360.45
373.782
389.35
401.247
413.713
427.225
440.242
453.425
466.56
478.2
491.968
506.773
522.493
539.316
557.383
576.804
597.648
619.958
643.735
410.483
1018.64
1282.06
1401.09
1398.79
1233.48
906.74
685.661
537.858
496.927
396.998
344.913
320.012
309.334
307.868
308.765
312.101
319.988
331.251
345.977
360.365
377.814
391.093
407.088
421.663
435.352
448.807
462.021
475.34
488.874
501.22
514.62
529.952
546.152
563.425
581.895
601.616
622.578
644.717
667.888
403.864
1140.16
1298.44
1278.36
1017.4
685.385
577.942
498.872
429.473
354.991
324.132
310.707
304.997
304.532
305.385
308.742
316.162
329.262
343.446
362.036
377.047
395.306
412.448
428.902
444.146
458.38
472.013
485.348
498.69
512.153
525.628
539.078
554.572
571.046
588.561
607.183
626.901
647.636
669.236
691.466
300.879
421.622
437.778
447.075
441.884
415.868
363.449
331.405
317.05
308.648
304.417
302.264
302.235
303.104
305.914
313.298
324.271
342.118
358.023
377.469
397.597
417.065
435.264
452.197
467.813
482.337
496.139
509.584
522.995
536.653
550.159
564.302
579.923
596.487
614.028
632.544
651.957
672.135
692.889
713.946
299.73
306.6
314.917
315.447
313.469
309.107
305.283
303.071
301.714
301.005
300.67
300.837
301.548
303.979
309.449
321.461
334.761
353.779
375.895
398.142
419.669
440.048
458.908
476.191
492.026
506.715
520.641
534.178
547.623
561.249
575.069
589.649
605.269
621.768
639.13
657.301
676.166
695.556
715.26
735.014
299.642
300.004
300.76
300.955
300.927
300.67
300.401
300.25
300.122
300.105
300.216
300.765
302.293
307.216
315.238
328.202
348.388
371.065
395.449
419.589
442.324
463.5
482.812
500.316
516.266
531.038
545.038
558.638
572.032
585.638
599.763
614.527
630.064
646.354
663.354
680.982
699.098
717.523
736.049
754.435
299.629
299.676
299.769
299.864
299.907
299.902
299.888
299.886
299.902
299.969
300.253
301.472
304.2
309.935
322.196
340.575
363.47
388.63
415.044
441.094
465.037
486.907
506.494
524.089
540.075
554.881
568.92
582.493
595.656
609.524
623.747
638.489
653.831
669.769
686.255
703.187
720.423
737.788
755.087
772.114
299.626
299.65
299.681
299.718
299.761
299.773
299.793
299.817
299.861
300.011
300.683
302.312
306.314
315.396
332.137
354.414
380.326
408.046
435.552
462.228
487.615
509.887
529.553
547.124
563.08
577.869
591.897
605.217
618.383
632.374
646.575
661.159
676.19
691.662
707.518
723.657
739.941
756.211
772.297
788.025
299.626
299.645
299.671
299.688
299.723
299.749
299.775
299.808
299.888
300.222
301.157
303.625
310.452
325.817
347.538
373.368
401.587
430.634
458.757
485.434
510.115
532.119
551.633
569.079
584.945
599.686
613.501
626.394
640.071
653.907
667.939
682.247
696.869
711.789
726.948
742.247
757.563
772.759
787.688
802.209
299.626
299.644
299.672
299.686
299.718
299.75
299.779
299.829
299.982
300.452
301.83
306.457
318.337
338.111
363.334
391.886
421.917
451.916
480.547
507.245
531.478
553.136
572.401
589.668
605.406
620.03
633.364
646.348
660.142
673.83
687.611
701.562
715.708
730.028
744.461
758.92
773.296
787.473
801.331
814.755
299.627
299.647
299.677
299.692
299.726
299.764
299.8
299.874
300.084
300.841
303.846
311.873
328.065
351.146
379.082
409.681
441.061
471.774
500.734
527.498
551.294
572.617
591.621
608.687
624.256
638.338
651.457
665.048
678.555
691.998
705.466
719.011
732.648
746.351
760.067
773.717
787.21
800.449
813.335
825.778
299.64
299.662
299.686
299.708
299.749
299.783
299.828
299.93
300.287
301.861
306.884
318.626
338.224
364.036
394.117
426.295
458.71
489.965
519.089
545.636
569.294
590.372
609.141
626.023
641.176
654.549
668.41
681.893
695.173
708.34
721.464
734.583
747.705
760.806
773.837
786.733
799.417
811.808
823.83
835.408
299.646
299.673
299.699
299.735
299.77
299.809
299.869
300.026
300.743
303.434
310.827
325.835
348.043
376.075
407.917
441.388
474.649
506.34
535.542
561.621
585.431
606.33
624.894
641.525
655.973
669.498
683.532
696.912
709.976
722.86
735.634
748.33
760.954
773.486
785.883
798.092
810.048
821.689
832.95
843.773
299.648
299.678
299.717
299.754
299.792
299.838
299.919
300.209
301.43
305.429
315.127
332.535
356.916
386.834
420.195
454.786
488.779
520.859
550.244
576.404
599.83
620.503
638.84
654.735
668.95
683.251
696.98
710.174
723.014
735.617
748.049
760.342
772.502
784.511
796.335
807.929
819.244
830.226
840.826
850.998
299.65
299.688
299.728
299.767
299.809
299.863
299.98
300.458
302.249
307.454
319.054
338.347
364.579
396.15
430.862
466.459
501.103
533.52
563.016
589.213
612.454
632.958
650.779
665.831
680.975
695.195
708.739
721.747
734.366
746.701
758.813
770.734
782.471
794.01
805.325
816.381
827.137
837.55
847.582
857.196
299.651
299.692
299.732
299.773
299.819
299.884
300.061
300.729
303.02
309.219
322.327
343.176
370.997
404.028
439.95
476.45
511.684
544.394
573.826
600.218
623.368
643.648
660.673
675.892
691.291
705.471
718.878
731.716
744.13
756.217
768.038
779.625
790.985
802.112
812.984
823.574
833.85
843.778
853.326
862.466
299.652
299.694
299.735
299.776
299.825
299.906
300.137
300.971
303.667
310.654
324.944
347.081
376.259
410.563
447.558
484.866
520.64
553.66
583.31
609.611
632.69
652.384
668.717
684.988
700.133
714.21
727.493
740.178
752.407
764.273
775.837
787.13
798.164
808.935
819.428
829.623
839.493
849.011
858.153
866.896
299.652
299.695
299.736
299.779
299.831
299.926
300.204
301.174
304.19
311.791
326.978
350.168
380.484
415.879
453.805
491.824
528.079
561.386
591.181
617.473
640.4
659.331
675.873
692.447
707.517
721.505
734.678
747.229
759.296
770.971
782.313
793.356
804.113
814.585
824.761
834.626
844.159
853.339
862.145
870.561
299.652
299.695
299.737
299.781
299.836
299.942
300.262
301.341
304.603
312.67
328.522
352.549
383.794
420.097
458.809
497.433
534.101
567.655
597.577
623.921
646.483
664.486
682.211
698.55
713.531
727.438
740.518
752.957
764.888
776.403
787.56
798.396
808.925
819.152
829.07
838.667
847.927
856.834
865.371
873.523
299.652
299.696
299.738
299.782
299.839
299.956
300.308
301.473
304.919
313.325
329.662
354.326
386.298
423.327
462.674
501.79
538.796
572.545
602.577
628.957
651.074
668.865
686.99
703.31
718.239
732.084
745.089
757.436
769.258
780.645
791.656
802.327
812.677
822.711
832.427
841.814
850.862
859.556
867.883
875.83
299.653
299.696
299.738
299.782
299.842
299.967
300.343
301.57
305.146
313.789
330.463
355.582
388.089
425.661
465.487
504.978
542.238
576.124
606.256
632.657
654.397
672.173
690.457
706.794
721.697
735.498
748.448
760.727
772.467
783.758
794.66
805.209
815.427
825.319
834.885
844.119
853.011
861.549
869.723
877.521
299.653
299.696
299.738
299.783
299.844
299.974
300.366
301.633
305.292
314.082
330.968
356.379
389.234
427.165
467.31
507.05
544.483
578.487
608.675
635.053
656.538
674.346
692.702
709.056
723.945
737.72
750.633
762.868
774.554
785.782
796.612
807.082
817.212
827.012
836.481
845.615
854.406
862.843
870.918
878.619
299.653
299.696
299.738
299.783
299.845
299.977
300.376
301.661
305.357
314.212
331.192
356.734
389.747
427.841
468.132
507.986
545.498
579.555
609.776
636.131
657.499
675.328
693.713
710.076
724.96
738.723
751.62
763.834
775.496
786.695
797.493
807.926
818.017
827.775
837.201
846.29
855.035
863.427
871.456
879.114
615.43
632.615
639.6
643.561
646.303
648.417
650.154
651.642
652.95
654.124
655.192
656.173
657.081
657.927
658.718
659.459
660.155
660.811
661.427
662.007
662.553
663.066
663.547
663.997
664.418
664.81
665.173
665.508
665.816
666.098
666.352
666.58
666.782
666.959
667.11
667.235
667.335
667.409
667.458
667.48
615.519
632.644
639.618
643.577
646.319
648.434
650.172
651.66
652.969
654.144
655.213
656.195
657.105
657.951
658.743
659.486
660.183
660.839
661.457
662.038
662.585
663.099
663.58
664.032
664.453
664.845
665.209
665.545
665.854
666.136
666.391
666.619
666.822
666.999
667.15
667.275
667.375
667.45
667.499
667.521
615.603
632.691
639.645
643.599
646.34
648.454
650.193
651.683
652.994
654.171
655.242
656.226
657.137
657.986
658.78
659.524
660.224
660.882
661.501
662.084
662.632
663.148
663.631
664.084
664.507
664.9
665.265
665.602
665.912
666.195
666.45
666.68
666.883
667.06
667.212
667.338
667.438
667.513
667.562
667.584
615.698
632.739
639.677
643.625
646.363
648.477
650.217
651.709
653.022
654.2
655.273
656.26
657.174
658.025
658.821
659.568
660.27
660.931
661.552
662.137
662.688
663.205
663.691
664.145
664.57
664.965
665.331
665.67
665.981
666.265
666.522
666.752
666.956
667.134
667.286
667.413
667.514
667.589
667.638
667.661
615.798
632.796
639.713
643.653
646.388
648.502
650.243
651.735
653.05
654.231
655.306
656.296
657.212
658.066
658.865
659.615
660.32
660.983
661.607
662.194
662.747
663.267
663.755
664.211
664.638
665.035
665.403
665.744
666.056
666.341
666.6
666.831
667.036
667.215
667.368
667.495
667.597
667.672
667.722
667.744
615.903
632.855
639.751
643.683
646.415
648.528
650.269
651.763
653.08
654.263
655.341
656.332
657.252
658.109
658.911
659.663
660.37
661.036
661.663
662.254
662.809
663.331
663.822
664.281
664.709
665.108
665.479
665.821
666.135
666.422
666.681
666.914
667.12
667.3
667.454
667.582
667.684
667.76
667.81
667.832
616.011
632.917
639.792
643.715
646.443
648.555
650.297
651.792
653.11
654.295
655.375
656.37
657.292
658.152
658.956
659.712
660.422
661.091
661.721
662.314
662.872
663.397
663.89
664.351
664.782
665.184
665.556
665.9
666.216
666.504
666.765
666.999
667.207
667.388
667.543
667.671
667.774
667.85
667.9
667.923
616.121
632.981
639.834
643.748
646.472
648.583
650.324
651.822
653.14
654.327
655.41
656.407
657.332
658.195
659.003
659.761
660.475
661.147
661.779
662.375
662.936
663.464
663.959
664.423
664.856
665.26
665.634
665.98
666.298
666.588
666.851
667.086
667.295
667.477
667.633
667.762
667.865
667.942
667.993
668.016
616.233
633.047
639.877
643.782
646.502
648.611
650.352
651.849
653.17
654.36
655.446
656.446
657.373
658.239
659.05
659.811
660.528
661.203
661.838
662.437
663.001
663.531
664.029
664.496
664.931
665.337
665.714
666.062
666.381
666.673
666.937
667.174
667.384
667.568
667.724
667.854
667.958
668.035
668.086
668.109
616.347
633.114
639.921
643.816
646.532
648.639
650.379
651.874
653.201
654.394
655.482
656.484
657.415
658.283
659.097
659.862
660.581
661.259
661.898
662.5
663.066
663.6
664.1
664.569
665.007
665.415
665.794
666.144
666.466
666.759
667.025
667.263
667.475
667.659
667.817
667.948
668.052
668.13
668.181
668.204
616.462
633.181
639.966
643.851
646.563
648.668
650.41
651.908
653.233
654.427
655.518
656.523
657.456
658.328
659.145
659.912
660.635
661.316
661.958
662.563
663.132
663.668
664.171
664.643
665.084
665.494
665.875
666.227
666.551
666.846
667.113
667.353
667.566
667.751
667.91
668.042
668.147
668.225
668.277
668.3
616.578
633.249
640.01
643.886
646.593
648.697
650.439
651.938
653.265
654.461
655.554
656.562
657.498
658.373
659.193
659.963
660.689
661.373
662.018
662.626
663.198
663.737
664.243
664.717
665.161
665.573
665.957
666.311
666.636
666.933
667.203
667.444
667.658
667.845
668.004
668.137
668.243
668.321
668.373
668.397
616.695
633.317
640.055
643.92
646.623
648.726
650.468
651.968
653.297
654.495
655.59
656.601
657.54
658.418
659.241
660.015
660.743
661.431
662.079
662.69
663.265
663.807
664.316
664.792
665.238
665.653
666.039
666.395
666.723
667.022
667.293
667.535
667.751
667.939
668.099
668.233
668.339
668.418
668.471
668.494
616.813
633.386
640.1
643.955
646.654
648.755
650.496
651.998
653.329
654.529
655.626
656.64
657.582
658.463
659.289
660.066
660.798
661.488
662.14
662.754
663.332
663.877
664.388
664.868
665.316
665.734
666.122
666.48
666.81
667.111
667.383
667.628
667.844
668.033
668.195
668.329
668.436
668.516
668.569
668.593
616.93
633.454
640.145
643.99
646.684
648.783
650.525
652.028
653.36
654.562
655.663
656.679
657.624
658.508
659.337
660.118
660.853
661.547
662.201
662.818
663.4
663.947
664.462
664.944
665.395
665.815
666.205
666.566
666.898
667.2
667.474
667.721
667.939
668.129
668.292
668.427
668.535
668.615
668.668
668.692
617.049
633.522
640.189
644.024
646.714
648.812
650.553
652.057
653.391
654.596
655.699
656.718
657.666
658.553
659.386
660.17
660.908
661.605
662.263
662.883
663.468
664.018
664.536
665.021
665.474
665.897
666.289
666.652
666.986
667.291
667.567
667.814
668.034
668.225
668.389
668.525
668.634
668.715
668.768
668.792
617.167
633.59
640.233
644.058
646.743
648.84
650.581
652.087
653.423
654.63
655.735
656.757
657.708
658.599
659.435
660.222
660.964
661.664
662.325
662.948
663.536
664.089
664.61
665.098
665.554
665.979
666.374
666.739
667.075
667.382
667.659
667.909
668.129
668.322
668.487
668.624
668.733
668.815
668.869
668.893
617.286
633.659
640.277
644.091
646.772
648.867
650.609
652.116
653.455
654.663
655.771
656.796
657.75
658.644
659.483
660.274
661.019
661.723
662.387
663.014
663.605
664.161
664.685
665.175
665.634
666.062
666.46
666.827
667.165
667.473
667.753
668.004
668.226
668.42
668.586
668.724
668.834
668.916
668.97
668.995
617.405
633.726
640.321
644.125
646.801
648.894
650.636
652.143
653.483
654.695
655.806
656.834
657.792
658.689
659.532
660.326
661.075
661.782
662.449
663.079
663.674
664.233
664.76
665.253
665.715
666.146
666.545
666.915
667.255
667.566
667.847
668.1
668.324
668.519
668.686
668.825
668.936
669.018
669.073
669.097
617.523
633.793
640.364
644.158
646.83
648.921
650.663
652.171
653.509
654.727
655.842
656.873
657.834
658.735
659.581
660.378
661.131
661.841
662.512
663.145
663.743
664.306
664.835
665.332
665.796
666.23
666.632
667.004
667.346
667.659
667.942
668.196
668.422
668.618
668.787
668.927
669.038
669.121
669.176
669.201
617.642
633.86
640.406
644.19
646.858
648.948
650.69
652.2
653.543
654.761
655.878
656.912
657.876
658.78
659.63
660.431
661.187
661.901
662.575
663.212
663.813
664.379
664.911
665.411
665.878
666.314
666.719
667.094
667.438
667.753
668.038
668.294
668.521
668.719
668.888
669.029
669.141
669.225
669.28
669.305
617.761
633.927
640.448
644.222
646.885
648.974
650.717
652.228
653.574
654.793
655.913
656.95
657.918
658.826
659.679
660.483
661.243
661.96
662.638
663.279
663.883
664.452
664.988
665.491
665.961
666.399
666.807
667.184
667.531
667.847
668.134
668.392
668.621
668.82
668.991
669.132
669.245
669.33
669.385
669.411
617.88
633.992
640.49
644.253
646.912
648.999
650.743
652.255
653.603
654.825
655.948
656.989
657.96
658.871
659.728
660.536
661.299
662.02
662.702
663.346
663.953
664.526
665.065
665.571
666.044
666.485
666.895
667.275
667.624
667.943
668.232
668.491
668.721
668.922
669.094
669.237
669.351
669.436
669.491
669.517
617.998
634.058
640.531
644.283
646.938
649.024
650.768
652.282
653.632
654.857
655.983
657.027
658.002
658.916
659.777
660.588
661.355
662.08
662.765
663.413
664.024
664.6
665.142
665.651
666.127
666.572
666.985
667.367
667.718
668.039
668.33
668.591
668.823
669.025
669.198
669.342
669.457
669.542
669.598
669.624
618.117
634.122
640.571
644.313
646.964
649.049
650.793
652.309
653.661
654.889
656.017
657.065
658.043
658.961
659.825
660.641
661.412
662.14
662.829
663.48
664.095
664.675
665.22
665.732
666.211
666.659
667.074
667.459
667.813
668.136
668.429
668.692
668.925
669.129
669.303
669.448
669.564
669.65
669.706
669.732
618.235
634.187
640.611
644.343
646.989
649.073
650.817
652.334
653.689
654.92
656.051
657.102
658.084
659.006
659.874
660.694
661.468
662.201
662.893
663.548
664.167
664.75
665.299
665.814
666.296
666.746
667.165
667.552
667.908
668.234
668.529
668.794
669.029
669.234
669.409
669.555
669.672
669.758
669.815
669.841
618.353
634.25
640.65
644.371
647.013
649.096
650.84
652.359
653.716
654.951
656.085
657.139
658.125
659.051
659.923
660.746
661.525
662.261
662.958
663.616
664.238
664.825
665.377
665.896
666.381
666.834
667.256
667.646
668.004
668.332
668.629
668.896
669.133
669.339
669.516
669.663
669.78
669.868
669.925
669.952
618.47
634.313
640.688
644.399
647.037
649.118
650.863
652.384
653.743
654.98
656.118
657.176
658.165
659.095
659.971
660.799
661.581
662.322
663.022
663.685
664.31
664.901
665.457
665.978
666.467
666.923
667.347
667.74
668.101
668.431
668.731
668.999
669.238
669.446
669.624
669.772
669.89
669.979
670.037
670.063
618.588
634.375
640.725
644.427
647.06
649.14
650.886
652.408
653.768
655.005
656.15
657.212
658.206
659.14
660.02
660.851
661.638
662.382
663.087
663.753
664.383
664.977
665.536
666.061
666.553
667.013
667.44
667.835
668.199
668.531
668.833
669.104
669.344
669.554
669.733
669.882
670.001
670.09
670.149
670.175
618.705
634.436
640.762
644.453
647.082
649.161
650.907
652.431
653.795
655.037
656.183
657.249
658.246
659.184
660.068
660.904
661.694
662.443
663.151
663.822
664.455
665.053
665.616
666.145
666.64
667.103
667.533
667.931
668.297
668.632
668.936
669.209
669.451
669.662
669.843
669.993
670.113
670.203
670.262
670.289
618.822
634.497
640.798
644.478
647.103
649.181
650.928
652.454
653.821
655.067
656.216
657.285
658.286
659.228
660.116
660.956
661.751
662.504
663.216
663.891
664.528
665.13
665.697
666.229
666.728
667.193
667.627
668.028
668.397
668.734
669.04
669.315
669.559
669.772
669.954
670.106
670.227
670.317
670.376
670.403
618.938
634.557
640.833
644.503
647.124
649.201
650.949
652.476
653.846
655.095
656.247
657.32
658.325
659.271
660.164
661.008
661.807
662.564
663.281
663.96
664.601
665.207
665.778
666.314
666.816
667.285
667.721
668.125
668.497
668.837
669.145
669.422
669.668
669.883
670.066
670.219
670.341
670.432
670.492
670.519
619.054
634.616
640.867
644.527
647.144
649.219
650.968
652.498
653.87
655.122
656.278
657.355
658.365
659.315
660.212
661.06
661.864
662.625
663.347
664.029
664.675
665.284
665.859
666.399
666.904
667.377
667.816
668.223
668.598
668.94
669.251
669.53
669.778
669.994
670.179
670.333
670.456
670.548
670.608
670.635
619.169
634.674
640.9
644.549
647.162
649.237
650.987
652.518
653.893
655.149
656.309
657.39
658.403
659.358
660.259
661.112
661.92
662.686
663.412
664.099
664.749
665.362
665.941
666.484
666.993
667.469
667.912
668.322
668.699
669.045
669.358
669.639
669.889
670.107
670.294
670.449
670.573
670.665
670.726
670.753
619.284
634.73
640.931
644.571
647.18
649.254
651.004
652.538
653.916
655.175
656.339
657.424
658.442
659.4
660.306
661.164
661.977
662.747
663.477
664.169
664.823
665.44
666.023
666.57
667.083
667.563
668.009
668.422
668.802
669.15
669.466
669.749
670.001
670.221
670.409
670.565
670.69
670.784
670.845
670.873
619.397
634.786
640.962
644.592
647.197
649.269
651.021
652.557
653.938
655.2
656.369
657.457
658.479
659.443
660.353
661.216
662.033
662.808
663.543
664.239
664.897
665.519
666.106
666.657
667.174
667.657
668.106
668.522
668.906
669.256
669.575
669.86
670.114
670.336
670.526
670.683
670.809
670.903
670.965
670.993
619.51
634.84
640.992
644.611
647.212
649.284
651.037
652.575
653.958
655.224
656.397
657.489
658.516
659.485
660.4
661.267
662.089
662.869
663.608
664.309
664.972
665.598
666.189
666.744
667.265
667.751
668.204
668.624
669.01
669.364
669.684
669.973
670.229
670.452
670.643
670.802
670.929
671.024
671.087
671.115
619.622
634.894
641.02
644.63
647.227
649.298
651.052
652.592
653.978
655.247
656.421
657.521
658.553
659.526
660.447
661.319
662.146
662.93
663.674
664.379
665.047
665.677
666.272
666.832
667.356
667.847
668.303
668.726
669.116
669.472
669.795
670.086
670.344
670.569
670.762
670.923
671.051
671.146
671.209
671.238
619.734
634.946
641.048
644.647
647.24
649.311
651.065
652.608
653.998
655.271
656.451
657.554
658.59
659.568
660.493
661.37
662.202
662.991
663.74
664.45
665.122
665.757
666.357
666.92
667.449
667.943
668.403
668.829
669.222
669.581
669.907
670.2
670.461
670.688
670.883
671.044
671.174
671.27
671.333
671.362
619.845
634.997
641.074
644.663
647.252
649.322
651.078
652.624
654.017
655.294
656.478
657.585
658.626
659.609
660.539
661.421
662.258
663.052
663.806
664.521
665.197
665.837
666.441
667.009
667.542
668.04
668.503
668.933
669.329
669.692
670.02
670.316
670.578
670.808
671.004
671.167
671.298
671.395
671.459
671.488
619.956
635.046
641.098
644.677
647.263
649.333
651.09
652.638
654.034
655.315
656.504
657.616
658.662
659.649
660.585
661.472
662.314
663.113
663.872
664.592
665.273
665.918
666.526
667.099
667.635
668.137
668.605
669.038
669.437
669.803
670.135
670.433
670.698
670.929
671.127
671.292
671.423
671.521
671.586
671.615
620.065
635.094
641.121
644.691
647.273
649.342
651.1
652.651
654.051
655.336
656.529
657.646
658.697
659.689
660.63
661.522
662.369
663.174
663.938
664.663
665.349
665.999
666.612
667.189
667.73
668.236
668.707
669.144
669.547
669.915
670.25
670.551
670.818
671.051
671.251
671.417
671.55
671.649
671.714
671.744
620.169
635.14
641.143
644.702
647.281
649.35
651.11
652.663
654.066
655.356
656.553
657.675
658.731
659.729
660.675
661.572
662.425
663.235
664.004
664.734
665.426
666.08
666.698
667.279
667.825
668.335
668.81
669.251
669.657
670.029
670.367
670.67
670.94
671.175
671.377
671.545
671.678
671.778
671.844
671.874
620.254
635.183
641.163
644.713
647.288
649.356
651.118
652.674
654.081
655.374
656.577
657.704
658.765
659.768
660.719
661.622
662.481
663.296
664.071
664.806
665.503
666.162
666.785
667.371
667.921
668.435
668.915
669.359
669.769
670.144
670.484
670.791
671.063
671.3
671.504
671.673
671.808
671.909
671.976
672.006
620.329
635.229
641.181
644.722
647.293
649.361
651.125
652.683
654.094
655.392
656.6
657.732
658.798
659.807
660.763
661.672
662.536
663.357
664.137
664.878
665.58
666.244
666.872
667.463
668.017
668.536
669.02
669.468
669.881
670.26
670.603
670.912
671.187
671.427
671.632
671.803
671.94
672.042
672.109
672.139
620.494
635.27
641.199
644.729
647.297
649.365
651.13
652.692
654.107
655.409
656.621
657.759
658.83
659.845
660.807
661.722
662.591
663.418
664.204
664.95
665.657
666.327
666.96
667.555
668.114
668.638
669.126
669.578
669.995
670.377
670.724
671.036
671.313
671.555
671.762
671.935
672.073
672.176
672.243
672.274
620.572
635.298
641.214
644.735
647.299
649.367
651.134
652.699
654.118
655.425
656.642
657.784
658.861
659.882
660.85
661.771
662.646
663.479
664.271
665.022
665.735
666.41
667.048
667.649
668.213
668.741
669.233
669.689
670.11
670.495
670.845
671.16
671.44
671.684
671.894
672.068
672.207
672.311
672.379
672.411
620.694
635.357
641.23
644.739
647.3
649.368
651.137
652.705
654.128
655.439
656.661
657.807
658.892
659.919
660.893
661.82
662.701
663.54
664.337
665.095
665.813
666.494
667.137
667.743
668.312
668.844
669.341
669.801
670.226
670.615
670.968
671.286
671.569
671.816
672.027
672.203
672.343
672.448
672.517
672.549
620.779
635.386
641.238
644.741
647.3
649.368
651.138
652.71
654.137
655.453
656.681
657.834
658.923
659.956
660.936
661.869
662.756
663.601
664.404
665.168
665.892
666.578
667.227
667.838
668.411
668.949
669.45
669.914
670.343
670.736
671.093
671.414
671.699
671.948
672.162
672.339
672.481
672.587
672.657
672.689
620.886
635.425
641.252
644.742
647.297
649.365
651.138
652.713
654.145
655.466
656.699
657.858
658.953
659.992
660.978
661.917
662.811
663.662
664.471
665.241
665.971
666.663
667.317
667.933
668.512
669.054
669.56
670.029
670.462
670.858
671.218
671.543
671.831
672.082
672.298
672.478
672.621
672.728
672.798
672.83
620.978
635.458
641.26
644.742
647.293
649.362
651.137
652.715
654.151
655.478
656.716
657.881
658.982
660.027
661.02
661.965
662.866
663.723
664.538
665.314
666.05
666.748
667.408
668.029
668.613
669.161
669.671
670.145
670.581
670.982
671.346
671.673
671.964
672.218
672.436
672.618
672.762
672.871
672.942
672.974
621.077
635.489
641.267
644.739
647.287
649.356
651.134
652.716
654.156
655.488
656.732
657.903
659.011
660.062
661.061
662.013
662.92
663.784
664.606
665.387
666.13
666.833
667.499
668.126
668.716
669.268
669.783
670.261
670.703
671.107
671.474
671.805
672.099
672.356
672.576
672.759
672.906
673.015
673.087
673.119
621.169
635.518
641.271
644.734
647.279
649.349
651.129
652.715
654.16
655.497
656.747
657.925
659.039