/*--------------------------------*- C++ -*----------------------------------*\
| =========                 |                                                 |
| \\      /  F ield         | OpenFOAM: The Open Source CFD Toolbox           |
|  \\    /   O peration     | Version:  2.3.0                                 |
|   \\  /    A nd           | Web:      www.OpenFOAM.org                      |
|    \\/     M anipulation  |                                                 |
\*---------------------------------------------------------------------------*/
FoamFile
{
    version     2.0;
    format      ascii;
    class       volVectorField;
    location    "20";
    object      U;
}
// * * * * * * * * * * * * * * * * * * * * * * * * * * * * * * * * * * * * * //

dimensions      [0 1 -1 0 0 0 0];

internalField   nonuniform List<vector> 
26600
(
(9.94071 5.08974 -11.765)
(9.76894 5.13798 -11.2727)
(9.57286 5.15678 -10.8539)
(9.53669 5.15912 -10.4781)
(9.62967 5.18998 -10.1307)
(9.78038 5.24435 -9.80675)
(9.97298 5.30304 -9.52063)
(10.2079 5.36935 -9.26586)
(10.4692 5.44506 -9.04117)
(10.7375 5.5325 -8.83569)
(11.0017 5.62829 -8.64493)
(11.2582 5.72606 -8.46199)
(11.4949 5.82255 -8.28322)
(11.7067 5.91231 -8.10989)
(11.8892 5.99583 -7.93795)
(12.0504 6.06547 -7.76938)
(12.1866 6.12733 -7.60274)
(12.3064 6.18021 -7.43923)
(12.4161 6.22687 -7.28147)
(12.5175 6.26741 -7.12456)
(12.6125 6.30422 -6.97484)
(12.7039 6.34227 -6.82995)
(12.7855 6.37152 -6.68654)
(12.8347 6.39773 -6.54806)
(12.8536 6.42361 -6.41783)
(12.8697 6.44807 -6.28943)
(12.8833 6.4611 -6.1498)
(12.8879 6.45962 -6.01572)
(12.8826 6.45016 -5.88988)
(12.8704 6.43962 -5.77459)
(12.8509 6.42728 -5.66536)
(12.8246 6.4111 -5.56289)
(12.7955 6.39251 -5.46479)
(12.7648 6.37142 -5.36938)
(12.7316 6.34524 -5.27482)
(12.6854 6.31593 -5.18594)
(12.621 6.28464 -5.09802)
(12.5124 6.25021 -5.04196)
(12.5534 6.29371 -4.92802)
(12.5322 5.92242 -4.88807)
(10.1541 4.54463 -11.8701)
(10.0717 4.65174 -11.608)
(9.98734 4.73186 -11.3267)
(10.0407 4.8058 -11.0502)
(10.1885 4.91715 -10.7777)
(10.379 5.07229 -10.514)
(10.6054 5.24379 -10.2578)
(10.8546 5.42551 -10.002)
(11.1165 5.59921 -9.73926)
(11.3682 5.75917 -9.47182)
(11.6106 5.90329 -9.20373)
(11.8429 6.02231 -8.94266)
(12.0578 6.12451 -8.68992)
(12.251 6.20112 -8.45154)
(12.417 6.27217 -8.22273)
(12.5714 6.32036 -8.00995)
(12.6987 6.36713 -7.8063)
(12.8178 6.40614 -7.61626)
(12.9265 6.44191 -7.43392)
(13.03 6.47444 -7.26369)
(13.1254 6.51226 -7.09968)
(13.2234 6.55086 -6.94473)
(13.3226 6.57531 -6.79564)
(13.3836 6.59856 -6.65494)
(13.4062 6.64804 -6.51961)
(13.4473 6.67408 -6.38932)
(13.4829 6.67604 -6.26626)
(13.5112 6.6729 -6.14469)
(13.5271 6.66789 -6.03003)
(13.5499 6.65827 -5.91761)
(13.5697 6.64173 -5.81104)
(13.5808 6.64322 -5.71174)
(13.5665 6.64402 -5.6096)
(13.5659 6.64067 -5.51705)
(13.5383 6.64047 -5.41878)
(13.5325 6.61728 -5.3311)
(13.4726 6.58986 -5.24496)
(13.4011 6.5421 -5.15681)
(13.2065 6.52143 -5.06605)
(13.1579 6.52383 -5.02153)
(10.0743 4.72472 -11.8544)
(9.9753 5.00095 -11.5625)
(9.87621 5.17068 -11.2765)
(9.90362 5.30065 -10.9857)
(10.0412 5.43426 -10.7015)
(10.2468 5.60015 -10.4214)
(10.4902 5.7611 -10.1367)
(10.7495 5.91791 -9.84489)
(11.0174 6.04891 -9.55216)
(11.2707 6.1665 -9.26186)
(11.5158 6.27108 -8.97732)
(11.7498 6.35623 -8.7037)
(11.9677 6.42457 -8.44216)
(12.1615 6.47019 -8.19781)
(12.3302 6.51796 -7.96422)
(12.4895 6.53877 -7.74893)
(12.616 6.56847 -7.54272)
(12.7383 6.59377 -7.35171)
(12.8522 6.61256 -7.16781)
(12.9547 6.63735 -6.99827)
(13.0541 6.66642 -6.83373)
(13.1693 6.70001 -6.68122)
(13.2975 6.69778 -6.53324)
(13.3576 6.69393 -6.39574)
(13.3957 6.72515 -6.26449)
(13.4585 6.77229 -6.13868)
(13.5032 6.79794 -6.01861)
(13.5235 6.79859 -5.90251)
(13.5476 6.78482 -5.79066)
(13.5873 6.76351 -5.68214)
(13.5971 6.74479 -5.58101)
(13.582 6.75279 -5.48369)
(13.5615 6.76264 -5.38791)
(13.5613 6.76828 -5.29524)
(13.535 6.77016 -5.20669)
(13.5709 6.7302 -5.11608)
(13.5067 6.67986 -5.03827)
(13.4838 6.60541 -4.94934)
(13.3377 6.4083 -4.85697)
(13.5443 6.15794 -4.8355)
(10.1185 4.6596 -11.8314)
(10.0207 4.96407 -11.5274)
(9.91382 5.19559 -11.2165)
(9.93503 5.37236 -10.9012)
(10.0622 5.56838 -10.5935)
(10.2435 5.7773 -10.2784)
(10.4556 5.95949 -9.96135)
(10.6905 6.12943 -9.63916)
(10.9414 6.26192 -9.31994)
(11.1799 6.37704 -9.00765)
(11.4155 6.47345 -8.70626)
(11.6449 6.54584 -8.42007)
(11.8636 6.59205 -8.15159)
(12.057 6.61393 -7.90338)
(12.2304 6.63936 -7.66854)
(12.3969 6.63067 -7.4546)
(12.5212 6.63996 -7.24968)
(12.6489 6.65066 -7.06192)
(12.775 6.638 -6.8802)
(12.8803 6.64809 -6.71437)
(12.9917 6.65034 -6.55447)
(13.1326 6.68304 -6.40647)
(13.2995 6.68007 -6.25609)
(13.3599 6.64157 -6.12527)
(13.3632 6.64346 -6.00416)
(13.4011 6.70005 -5.88175)
(13.4677 6.76297 -5.76785)
(13.5299 6.77145 -5.65156)
(13.5706 6.75914 -5.54173)
(13.606 6.72121 -5.43744)
(13.6076 6.69302 -5.34266)
(13.5862 6.66436 -5.24941)
(13.5718 6.64633 -5.1583)
(13.5768 6.62598 -5.06874)
(13.5874 6.58777 -4.97924)
(13.644 6.53358 -4.89644)
(13.5743 6.47163 -4.81474)
(13.5858 6.35953 -4.74464)
(13.4601 6.13557 -4.63712)
(13.6539 5.71319 -4.6777)
(10.1059 4.68402 -11.8302)
(9.99694 5.05553 -11.5115)
(9.89629 5.33541 -11.1614)
(9.91696 5.56181 -10.8191)
(10.0274 5.80167 -10.4805)
(10.1891 6.02359 -10.1294)
(10.3822 6.21418 -9.77801)
(10.6024 6.39197 -9.4239)
(10.8459 6.51414 -9.07836)
(11.0747 6.61479 -8.74452)
(11.3045 6.6941 -8.42646)
(11.5348 6.74448 -8.12829)
(11.761 6.75887 -7.8546)
(11.9571 6.75014 -7.60413)
(12.1395 6.74709 -7.37046)
(12.3161 6.7043 -7.16019)
(12.4343 6.68709 -6.95823)
(12.5717 6.68891 -6.77607)
(12.7224 6.6228 -6.59667)
(12.8381 6.60628 -6.43675)
(12.936 6.60615 -6.28521)
(13.0673 6.67326 -6.13382)
(13.3595 6.56853 -5.9759)
(13.3717 6.60997 -5.86898)
(13.3245 6.62568 -5.75775)
(13.3514 6.63951 -5.63609)
(13.4572 6.67118 -5.52103)
(13.571 6.65316 -5.40793)
(13.6273 6.63854 -5.30137)
(13.6748 6.58498 -5.1968)
(13.6824 6.53023 -5.10951)
(13.6405 6.48325 -5.01996)
(13.6016 6.46081 -4.93139)
(13.5953 6.43894 -4.84038)
(13.5735 6.40818 -4.74816)
(13.6022 6.38778 -4.6633)
(13.5309 6.33034 -4.57357)
(13.5706 6.22356 -4.50648)
(13.4904 5.98184 -4.39018)
(13.7897 5.63836 -4.4614)
(10.09 4.70573 -11.8419)
(9.98171 5.127 -11.4863)
(9.88236 5.45848 -11.114)
(9.89528 5.75483 -10.7531)
(9.98656 6.02922 -10.374)
(10.1289 6.27022 -9.98376)
(10.3079 6.46957 -9.59462)
(10.521 6.6526 -9.20604)
(10.7644 6.75707 -8.83473)
(10.9845 6.83897 -8.47984)
(11.2091 6.89793 -8.1462)
(11.4457 6.91794 -7.83851)
(11.6854 6.89565 -7.56255)
(11.8869 6.84881 -7.31213)
(12.0826 6.81399 -7.08141)
(12.2704 6.74869 -6.87535)
(12.3736 6.69388 -6.67683)
(12.5373 6.68935 -6.50077)
(12.7226 6.58026 -6.32182)
(12.8119 6.51813 -6.1681)
(12.8762 6.50669 -6.02681)
(13.2126 6.45771 -5.86952)
(13.559 6.28874 -5.73638)
(13.4217 6.45439 -5.61701)
(13.3541 6.53791 -5.52527)
(13.396 6.53122 -5.38461)
(13.5486 6.52734 -5.26844)
(13.6815 6.51326 -5.15449)
(13.7222 6.45387 -5.04976)
(13.7283 6.384 -4.93394)
(13.6792 6.33552 -4.84821)
(13.5535 6.26806 -4.75226)
(13.4414 6.20688 -4.65937)
(13.3888 6.16115 -4.56068)
(13.2863 6.12815 -4.45547)
(13.2839 6.07996 -4.34679)
(13.1648 6.02171 -4.24577)
(13.1034 5.88252 -4.16828)
(12.9069 5.61882 -4.00239)
(13.2391 5.573 -4.10312)
(10.0844 4.73094 -11.8329)
(9.96915 5.201 -11.4524)
(9.86786 5.59248 -11.0778)
(9.86848 5.947 -10.6957)
(9.94288 6.25145 -10.2709)
(10.0746 6.51521 -9.83586)
(10.2441 6.71806 -9.40758)
(10.4554 6.90436 -8.985)
(10.7062 6.98319 -8.59139)
(10.9167 7.04076 -8.2185)
(11.1347 7.07757 -7.8732)
(11.3882 7.05013 -7.56103)
(11.6511 6.99007 -7.28619)
(11.8638 6.89675 -7.0372)
(12.0732 6.8164 -6.80933)
(12.2665 6.76959 -6.60606)
(12.3446 6.68581 -6.41079)
(12.5592 6.57276 -6.23766)
(12.7869 6.52035 -6.05871)
(12.8836 6.4021 -5.91341)
(13.0178 6.30767 -5.77576)
(13.4229 6.11659 -5.63866)
(13.6036 6.2161 -5.48879)
(13.2376 6.50385 -5.38274)
(13.2033 6.5995 -5.25708)
(13.2304 6.55077 -5.1224)
(13.3397 6.46185 -4.95855)
(13.4108 6.47571 -4.79899)
(13.4021 6.38095 -4.68598)
(13.3295 6.25467 -4.557)
(13.1986 6.15741 -4.45172)
(13.004 6.02173 -4.32945)
(12.764 5.85858 -4.20414)
(12.5483 5.71338 -4.08382)
(12.2372 5.55571 -3.91995)
(12.0956 5.41655 -3.78403)
(11.7873 5.30606 -3.6242)
(11.5428 5.22422 -3.48681)
(11.0561 4.94072 -3.2314)
(11.3352 4.98891 -3.30786)
(10.0842 4.75776 -11.8179)
(9.95084 5.2858 -11.4322)
(9.84616 5.74034 -11.0638)
(9.84211 6.12839 -10.6317)
(9.89986 6.46719 -10.1603)
(10.0314 6.75534 -9.67849)
(10.1969 6.96499 -9.21261)
(10.4127 7.14672 -8.75989)
(10.6783 7.18964 -8.35162)
(10.8759 7.21677 -7.96521)
(11.0909 7.22285 -7.61499)
(11.3817 7.12084 -7.30575)
(11.6865 7.00978 -7.03294)
(11.9058 6.90755 -6.78599)
(12.0944 6.77239 -6.55854)
(12.2905 6.72445 -6.35735)
(12.4524 6.62214 -6.16088)
(12.6678 6.39682 -5.98344)
(12.8082 6.40149 -5.80735)
(12.9475 6.3246 -5.65813)
(13.048 6.25945 -5.52734)
(13.0877 6.17791 -5.34886)
(12.864 6.475 -5.18588)
(12.6694 6.61555 -5.0617)
(12.7 6.62996 -4.86238)
(12.7161 6.49407 -4.65804)
(12.6402 6.22963 -4.42813)
(12.4545 6.01651 -4.1875)
(12.3166 5.80364 -3.99442)
(12.0752 5.58162 -3.83702)
(11.7102 5.36078 -3.69537)
(11.2506 5.15729 -3.54115)
(10.7412 4.93274 -3.37552)
(10.3246 4.70444 -3.20897)
(9.84642 4.46259 -3.00544)
(9.50128 4.27247 -2.84362)
(9.02941 4.12185 -2.62114)
(8.744 4.04224 -2.45702)
(8.26262 3.83361 -2.19675)
(8.41513 3.87405 -2.21283)
(10.0805 4.78715 -11.8058)
(9.92263 5.37374 -11.4428)
(9.82061 5.88515 -11.0394)
(9.81472 6.31163 -10.5503)
(9.86726 6.68571 -10.0323)
(10.0057 6.99236 -9.50747)
(10.1738 7.20185 -9.00993)
(10.4017 7.36718 -8.53472)
(10.6884 7.37472 -8.11963)
(10.8706 7.36197 -7.72556)
(11.1007 7.30847 -7.38063)
(11.4674 7.11775 -7.08071)
(11.7725 6.95213 -6.80558)
(11.9853 6.87227 -6.56302)
(12.1928 6.70935 -6.33295)
(12.3682 6.63001 -6.12469)
(12.5036 6.51115 -5.92026)
(12.5856 6.37278 -5.72334)
(12.6184 6.25193 -5.51758)
(12.5855 6.25409 -5.35406)
(12.5102 6.20177 -5.15032)
(12.1611 6.264 -4.94826)
(11.7782 6.28247 -4.64483)
(11.669 6.13819 -4.44418)
(11.3974 5.88075 -4.09021)
(10.8743 5.63046 -3.69032)
(10.3534 5.26099 -3.32402)
(9.85627 4.8378 -3.03597)
(9.43146 4.46281 -2.84812)
(8.99681 4.19911 -2.70376)
(8.52851 3.98382 -2.57295)
(8.05227 3.76833 -2.42641)
(7.61611 3.5452 -2.26685)
(7.24697 3.34697 -2.09633)
(6.85067 3.18617 -1.90497)
(6.55953 3.0484 -1.73044)
(6.22355 2.92261 -1.54195)
(6.018 2.83303 -1.39813)
(5.70132 2.70125 -1.24561)
(5.78939 2.72474 -1.24981)
(10.0737 4.80471 -11.8049)
(9.87565 5.4731 -11.4525)
(9.80243 6.03068 -10.9745)
(9.79564 6.50306 -10.4439)
(9.85607 6.91279 -9.8844)
(10.0088 7.22692 -9.32503)
(10.1864 7.41823 -8.80504)
(10.4276 7.55095 -8.31578)
(10.7475 7.51578 -7.90385)
(10.9238 7.44992 -7.50984)
(11.1918 7.31265 -7.18269)
(11.6329 7.07651 -6.88495)
(11.9093 6.88966 -6.62202)
(12.044 6.80812 -6.36745)
(12.1683 6.65233 -6.12803)
(12.2137 6.55795 -5.8841)
(12.2474 6.39667 -5.62584)
(12.1154 6.24096 -5.37153)
(11.7758 5.97545 -5.07504)
(11.4713 5.76542 -4.80168)
(10.947 5.53438 -4.46105)
(10.1317 5.3055 -4.03598)
(9.3647 4.91364 -3.60468)
(8.72633 4.49617 -3.12585)
(7.94067 4.16644 -2.59041)
(7.26523 3.83323 -2.16081)
(6.72028 3.52004 -1.86165)
(6.28985 3.24162 -1.68164)
(5.96084 2.97767 -1.58728)
(5.65513 2.7535 -1.51218)
(5.37341 2.56935 -1.42802)
(5.10403 2.39436 -1.32301)
(4.84475 2.24817 -1.19986)
(4.61532 2.13857 -1.06586)
(4.39358 2.05843 -0.929625)
(4.22434 1.98898 -0.810574)
(4.03592 1.93871 -0.711589)
(3.92217 1.90633 -0.640269)
(3.74801 1.85886 -0.605314)
(3.80011 1.86638 -0.622571)
(10.0079 4.8402 -11.8351)
(9.85044 5.58409 -11.4002)
(9.79891 6.18997 -10.8744)
(9.80206 6.70981 -10.3106)
(9.88015 7.1388 -9.72061)
(10.0491 7.46036 -9.13839)
(10.2454 7.61489 -8.60735)
(10.4982 7.68887 -8.11461)
(10.8796 7.57518 -7.72726)
(11.036 7.48348 -7.33962)
(11.3467 7.20258 -7.0291)
(11.774 7.06517 -6.76227)
(11.8818 6.9313 -6.46502)
(11.872 6.78294 -6.18189)
(11.8062 6.55385 -5.87813)
(11.4331 6.23109 -5.48463)
(11.0444 5.83786 -5.09236)
(10.2334 5.43772 -4.59767)
(9.32393 4.9073 -4.10438)
(8.40089 4.35188 -3.60553)
(7.30379 3.81034 -3.00402)
(6.30162 3.32679 -2.39515)
(5.55458 2.91783 -1.83664)
(5.03543 2.64319 -1.38185)
(4.62628 2.45575 -1.07837)
(4.28663 2.28444 -0.903328)
(4.01441 2.14735 -0.79502)
(3.78669 2.04087 -0.722559)
(3.58147 1.93132 -0.670282)
(3.41065 1.8049 -0.617007)
(3.26505 1.68915 -0.556648)
(3.13135 1.58601 -0.492789)
(3.00744 1.49126 -0.430663)
(2.90965 1.41302 -0.37535)
(2.81765 1.35947 -0.329301)
(2.7341 1.32812 -0.294738)
(2.63433 1.31284 -0.27267)
(2.5654 1.31159 -0.26094)
(2.4512 1.30015 -0.272626)
(2.47086 1.2934 -0.292869)
(9.95645 4.90249 -11.818)
(9.85559 5.71464 -11.302)
(9.81946 6.37606 -10.7475)
(9.8525 6.9273 -10.158)
(9.95242 7.3412 -9.55141)
(10.1389 7.67954 -8.95891)
(10.3598 7.78878 -8.43313)
(10.6569 7.68944 -7.95286)
(11.0705 7.60087 -7.6042)
(11.1784 7.51991 -7.25819)
(11.3932 7.10079 -6.95263)
(11.6152 7.00583 -6.64474)
(11.4449 6.87219 -6.28058)
(11.02 6.4663 -5.86955)
(10.1141 5.89035 -5.24666)
(8.98486 5.15899 -4.54443)
(7.66812 4.28445 -3.78649)
(6.3048 3.49455 -3.02812)
(5.17149 2.78665 -2.32028)
(4.44422 2.3594 -1.73671)
(3.96476 2.09145 -1.2713)
(3.62131 1.88597 -0.926011)
(3.42839 1.79408 -0.672041)
(3.32358 1.76816 -0.487093)
(3.18527 1.75625 -0.36615)
(3.01923 1.70491 -0.293538)
(2.85078 1.62334 -0.247893)
(2.69195 1.53625 -0.218264)
(2.55751 1.4351 -0.197573)
(2.43991 1.33077 -0.179754)
(2.33596 1.23946 -0.162279)
(2.2437 1.16119 -0.146094)
(2.16084 1.09384 -0.133284)
(2.09071 1.0391 -0.124264)
(2.02506 1.0059 -0.11846)
(1.96303 0.988305 -0.116164)
(1.8868 0.983521 -0.117105)
(1.81965 0.982037 -0.121465)
(1.71882 0.975349 -0.131168)
(1.6847 0.953278 -0.146671)
(9.97219 4.98246 -11.7497)
(9.87059 5.88542 -11.1939)
(9.88276 6.57806 -10.6077)
(9.96675 7.1428 -10.0006)
(10.0943 7.478 -9.39082)
(10.3025 7.7592 -8.81346)
(10.5912 7.88915 -8.31409)
(10.8774 7.59454 -7.88872)
(11.1369 7.58693 -7.58817)
(11.2198 7.4639 -7.21944)
(11.1347 7.09611 -6.86171)
(10.7677 6.62104 -6.41676)
(9.80084 6.02527 -5.73631)
(8.37027 5.18257 -4.85439)
(6.546 4.00156 -3.73657)
(4.85911 2.8619 -2.6825)
(3.87153 2.19083 -1.93369)
(3.31737 1.86918 -1.39256)
(2.99474 1.67779 -0.968834)
(2.86264 1.65784 -0.628607)
(2.83396 1.66465 -0.396644)
(2.81095 1.61622 -0.261923)
(2.79752 1.5359 -0.176148)
(2.75261 1.47768 -0.122694)
(2.65922 1.44537 -0.0916999)
(2.5395 1.40097 -0.0723924)
(2.4074 1.33992 -0.0617913)
(2.27439 1.26325 -0.0584947)
(2.14944 1.18217 -0.0587803)
(2.03978 1.09961 -0.0593625)
(1.94377 1.02293 -0.0590559)
(1.85717 0.955993 -0.0583426)
(1.77816 0.899711 -0.0581263)
(1.70695 0.853242 -0.0589453)
(1.63798 0.821077 -0.0608189)
(1.56973 0.801384 -0.0638037)
(1.49368 0.791963 -0.0678675)
(1.41862 0.784435 -0.073287)
(1.32268 0.777054 -0.080195)
(1.25298 0.751213 -0.0880932)
(9.99652 5.08848 -11.6976)
(9.90291 6.08918 -11.0908)
(10.0008 6.78047 -10.4794)
(10.1737 7.33662 -9.85706)
(10.3597 7.53766 -9.26504)
(10.5298 7.64183 -8.72325)
(10.8388 7.7745 -8.30275)
(11.0495 7.59955 -7.95886)
(11.0772 7.43032 -7.6227)
(10.6583 7.15182 -7.1598)
(9.81526 6.46231 -6.45256)
(8.36348 5.38626 -5.4695)
(6.43645 4.06101 -4.19844)
(4.48625 2.71142 -2.87252)
(3.39635 1.97632 -1.96718)
(2.7593 1.69479 -1.33132)
(2.482 1.62716 -0.868214)
(2.47781 1.64737 -0.50026)
(2.54931 1.63754 -0.260935)
(2.60328 1.59867 -0.146268)
(2.625 1.56122 -0.0943614)
(2.60165 1.51099 -0.057123)
(2.56409 1.43709 -0.0386692)
(2.5028 1.3674 -0.0304885)
(2.41065 1.29802 -0.0277446)
(2.2959 1.23026 -0.0269524)
(2.16883 1.16228 -0.0266032)
(2.03946 1.08964 -0.0270481)
(1.91732 1.01376 -0.0283184)
(1.80636 0.938899 -0.0299278)
(1.70658 0.870015 -0.0315525)
(1.61618 0.809663 -0.0332748)
(1.53324 0.758112 -0.0353476)
(1.45621 0.716434 -0.0379473)
(1.38239 0.68535 -0.0411055)
(1.3095 0.664053 -0.04483)
(1.23219 0.651276 -0.049117)
(1.15387 0.641154 -0.0540345)
(1.06519 0.630514 -0.0594973)
(0.986548 0.607391 -0.064901)
(9.99369 5.22378 -11.6831)
(9.96641 6.29891 -11.0121)
(10.198 6.96245 -10.3935)
(10.5043 7.43465 -9.75937)
(10.6946 7.68418 -9.20089)
(10.7427 7.57945 -8.78523)
(10.9063 7.53784 -8.44069)
(10.8274 7.40303 -8.15307)
(10.2102 7.08828 -7.53275)
(8.85312 6.20877 -6.44069)
(6.99041 4.77982 -5.04306)
(4.75526 3.11236 -3.44703)
(3.34135 2.01977 -2.28188)
(2.59202 1.51795 -1.53581)
(2.25226 1.47119 -0.988201)
(2.26223 1.53426 -0.532054)
(2.44411 1.66722 -0.207211)
(2.52252 1.72891 -0.0801788)
(2.5579 1.71808 -0.0430842)
(2.57123 1.64711 -0.0396149)
(2.54414 1.5533 -0.0241647)
(2.47538 1.44088 -0.0185363)
(2.3915 1.32763 -0.0155709)
(2.29671 1.23192 -0.0139779)
(2.18792 1.15023 -0.0137246)
(2.06951 1.07527 -0.014274)
(1.94639 1.00404 -0.0151005)
(1.82367 0.933592 -0.0162074)
(1.70621 0.86386 -0.0176765)
(1.59791 0.797219 -0.0194547)
(1.49932 0.735934 -0.0214748)
(1.40906 0.681805 -0.0237619)
(1.32581 0.635091 -0.0263893)
(1.24823 0.596113 -0.0294076)
(1.17377 0.566416 -0.0328225)
(1.10029 0.545286 -0.0366262)
(1.0249 0.530746 -0.0408154)
(0.948949 0.51923 -0.0453881)
(0.867005 0.508284 -0.0502441)
(0.789132 0.491859 -0.0550158)
(9.97852 5.35668 -11.6736)
(10.073 6.52835 -10.9891)
(10.5602 7.07351 -10.4061)
(10.8905 7.3187 -9.72702)
(11.0382 7.58763 -9.33155)
(10.7814 7.51931 -9.02859)
(10.5043 7.2904 -8.63437)
(9.83679 6.97208 -7.87671)
(8.16179 5.93103 -6.37245)
(5.76687 4.1163 -4.47881)
(3.81224 2.51049 -2.91271)
(2.74216 1.71576 -1.94233)
(2.15382 1.41765 -1.22656)
(2.07222 1.37433 -0.712386)
(2.3106 1.56058 -0.243032)
(2.49885 1.74803 -0.0534495)
(2.60069 1.85831 -0.0160779)
(2.59337 1.82487 -0.016633)
(2.5703 1.73639 -0.0166806)
(2.50527 1.60574 -0.0111053)
(2.40631 1.47012 -0.00894937)
(2.29307 1.33435 -0.00810195)
(2.17881 1.20896 -0.00783004)
(2.06696 1.10072 -0.00793483)
(1.95278 1.00832 -0.00846659)
(1.83632 0.928394 -0.00935146)
(1.71935 0.856843 -0.0104592)
(1.60486 0.789978 -0.0117824)
(1.49545 0.726121 -0.0133728)
(1.39344 0.666454 -0.0152503)
(1.29962 0.611694 -0.0174145)
(1.21347 0.562909 -0.019881)
(1.13402 0.520855 -0.0226722)
(1.05864 0.486419 -0.0257998)
(0.985615 0.459705 -0.0292597)
(0.914854 0.439896 -0.0330409)
(0.843477 0.426489 -0.0371329)
(0.771625 0.415985 -0.041512)
(0.696111 0.406502 -0.0460945)
(0.623995 0.394822 -0.0506806)
(9.94532 5.40975 -11.6407)
(10.3666 6.74302 -11.0891)
(11.0957 7.0926 -10.4328)
(11.3179 6.85144 -9.87501)
(11.0403 7.04554 -9.65349)
(10.3689 7.10097 -9.21211)
(9.48096 6.69695 -8.16047)
(7.66131 5.58167 -6.30362)
(4.98746 3.61753 -4.03356)
(3.30707 2.28837 -2.58484)
(2.41712 1.66985 -1.66698)
(2.03798 1.3805 -1.05273)
(2.0957 1.35801 -0.46092)
(2.47368 1.70201 -0.0970009)
(2.63402 1.92944 -0.0182754)
(2.68966 1.96656 -0.011508)
(2.66895 1.91922 -0.0107106)
(2.60109 1.81556 -0.00930818)
(2.47735 1.66034 -0.00652836)
(2.34028 1.50053 -0.00515166)
(2.20372 1.34755 -0.00459244)
(2.07006 1.20352 -0.00458011)
(1.94289 1.07365 -0.00492286)
(1.825 0.96313 -0.00552232)
(1.70995 0.868401 -0.0063632)
(1.59733 0.788696 -0.00742295)
(1.48838 0.719475 -0.00867824)
(1.38361 0.656483 -0.0101405)
(1.28365 0.598402 -0.0118457)
(1.18998 0.545802 -0.0138205)
(1.1041 0.496699 -0.0160789)
(1.02431 0.453864 -0.0186319)
(0.949081 0.418008 -0.0214883)
(0.877717 0.389315 -0.0246491)
(0.809658 0.36689 -0.0281065)
(0.743009 0.349776 -0.0318483)
(0.676789 0.337964 -0.0358559)
(0.612269 0.329014 -0.0400954)
(0.545632 0.321127 -0.0444985)
(0.4811 0.312504 -0.048949)
(9.90739 5.252 -11.5738)
(10.9108 6.7031 -11.1552)
(11.7152 6.4312 -10.5095)
(11.3838 6.30134 -10.0995)
(10.5392 6.60581 -9.70172)
(9.20594 6.3314 -8.47287)
(7.30917 5.13083 -6.29839)
(4.63121 3.24214 -3.769)
(3.15156 2.23757 -2.2927)
(2.37953 1.7096 -1.43138)
(2.14332 1.43093 -0.830162)
(2.30514 1.50955 -0.31066)
(2.62936 1.83718 -0.0646757)
(2.7802 2.0259 -0.0260057)
(2.78821 2.04479 -0.0142324)
(2.74399 2.00185 -0.0110683)
(2.63788 1.89267 -0.00725842)
(2.46737 1.72649 -0.00483785)
(2.29087 1.54353 -0.0036015)
(2.12459 1.3638 -0.00307685)
(1.96993 1.20125 -0.00304321)
(1.82678 1.05851 -0.00336627)
(1.69598 0.932132 -0.00396182)
(1.57891 0.826844 -0.00477369)
(1.46732 0.737301 -0.00578428)
(1.36052 0.660744 -0.00698216)
(1.26041 0.594468 -0.00836886)
(1.16562 0.535722 -0.00996003)
(1.07511 0.483103 -0.0117813)
(0.991864 0.435804 -0.0138545)
(0.914604 0.393199 -0.0161938)
(0.841055 0.35691 -0.0188081)
(0.772209 0.326567 -0.0217019)
(0.707344 0.301099 -0.0248724)
(0.645638 0.281375 -0.0283092)
(0.586111 0.266758 -0.0319954)
(0.527487 0.256125 -0.0359057)
(0.470394 0.249219 -0.0400008)
(0.412213 0.243853 -0.0442213)
(0.354781 0.240284 -0.048489)
(10.1215 4.86445 -11.4562)
(11.3806 5.18793 -11.3613)
(11.9926 5.41196 -10.4482)
(11.1544 5.74321 -9.98709)
(9.30535 5.87205 -8.73487)
(6.76436 4.46938 -5.98368)
(4.4066 2.82268 -3.42648)
(3.19303 2.16104 -1.9967)
(2.61509 1.78363 -1.15417)
(2.4516 1.59376 -0.591292)
(2.60237 1.69723 -0.20418)
(2.81949 1.94956 -0.061455)
(2.92629 2.089 -0.0232756)
(2.90436 2.09815 -0.0147495)
(2.82729 2.06626 -0.0102181)
(2.67743 1.95461 -0.00548373)
(2.47187 1.78054 -0.00326936)
(2.26154 1.58648 -0.00238704)
(2.06251 1.39226 -0.00210237)
(1.883 1.2132 -0.00217325)
(1.7221 1.05353 -0.0025202)
(1.57937 0.916543 -0.00310359)
(1.45012 0.797573 -0.00389693)
(1.33552 0.697539 -0.00487862)
(1.23054 0.614292 -0.00604064)
(1.13216 0.543008 -0.00737977)
(1.04117 0.481396 -0.00890158)
(0.956214 0.427838 -0.0106204)
(0.876316 0.380717 -0.0125554)
(0.802867 0.338223 -0.0147239)
(0.733511 0.302725 -0.0171367)
(0.668212 0.27123 -0.0198003)
(0.608179 0.244207 -0.0227153)
(0.551334 0.222157 -0.0258763)
(0.496446 0.205424 -0.0292691)
(0.443404 0.193707 -0.0328719)
(0.391281 0.186187 -0.0366537)
(0.341816 0.181801 -0.0405727)
(0.291089 0.17891 -0.0445749)
(0.239724 0.178771 -0.0486013)
(9.87896 4.07353 -11.2158)
(11.0843 3.64166 -10.7384)
(11.0425 4.41922 -9.97648)
(9.0994 4.83593 -8.33392)
(5.87668 3.63834 -5.0356)
(4.07925 2.51865 -2.78717)
(3.29757 2.06783 -1.56932)
(3.00323 1.87979 -0.814946)
(2.90331 1.81641 -0.363008)
(2.96386 1.93433 -0.11107)
(3.05943 2.06646 -0.0420252)
(3.07992 2.13122 -0.0154892)
(3.03288 2.14095 -0.0106664)
(2.92454 2.11821 -0.00773793)
(2.73576 2.0083 -0.00347513)
(2.49912 1.82923 -0.00186947)
(2.25396 1.62505 -0.00135617)
(2.02464 1.42294 -0.00130812)
(1.81699 1.23061 -0.00152069)
(1.63587 1.05964 -0.00193957)
(1.47467 0.910007 -0.00255275)
(1.33457 0.781728 -0.00335286)
(1.21192 0.672946 -0.00433111)
(1.10349 0.580401 -0.0054798)
(1.00599 0.503251 -0.00679465)
(0.916655 0.438121 -0.00827665)
(0.835316 0.382076 -0.00993238)
(0.760186 0.333395 -0.011774)
(0.69036 0.290823 -0.0138158)
(0.625395 0.254632 -0.0160697)
(0.565269 0.223634 -0.0185433)
(0.509643 0.196513 -0.0212388)
(0.45742 0.172346 -0.0241537)
(0.40672 0.154965 -0.0272782)
(0.358292 0.142148 -0.0305942)
(0.312281 0.133208 -0.0340761)
(0.267993 0.127917 -0.0376904)
(0.226318 0.128165 -0.0413944)
(0.182604 0.131252 -0.0451374)
(0.135373 0.133673 -0.0488734)
(4.75646 -0.145012 -0.129341)
(6.06078 -0.14831 -2.55145)
(5.91297 0.951022 -2.86995)
(5.05445 1.61061 -2.44985)
(4.24388 1.76168 -1.67578)
(3.81516 1.80459 -0.910885)
(3.62149 1.83171 -0.456481)
(3.48383 1.83983 -0.223295)
(3.39512 1.94714 -0.0842478)
(3.36416 2.06437 -0.0318652)
(3.29741 2.1296 -0.0110178)
(3.1796 2.15925 -0.00546266)
(3.04085 2.15378 -0.00449742)
(2.82358 2.05082 -0.00184391)
(2.55272 1.87029 -0.000944422)
(2.27232 1.66074 -0.000690246)
(2.00859 1.44724 -0.000748911)
(1.7756 1.24935 -0.00101979)
(1.56864 1.06904 -0.00147776)
(1.38958 0.910197 -0.00211673)
(1.2354 0.774183 -0.00293358)
(1.10244 0.657449 -0.00392145)
(0.987275 0.558995 -0.0050724)
(0.886927 0.475988 -0.00638076)
(0.797985 0.405516 -0.00784394)
(0.717655 0.347034 -0.00946348)
(0.645972 0.296992 -0.0112448)
(0.581001 0.252033 -0.0131969)
(0.519722 0.213533 -0.0153297)
(0.463305 0.181796 -0.0176504)
(0.412391 0.154083 -0.0201628)
(0.365714 0.131151 -0.0228644)
(0.320381 0.112548 -0.0257489)
(0.275717 0.0988813 -0.0288019)
(0.23499 0.0892025 -0.0320017)
(0.196181 0.0841367 -0.0353207)
(0.155986 0.0816421 -0.0387253)
(0.117683 0.0841636 -0.0421773)
(0.0821639 0.0910872 -0.0456282)
(0.042419 0.0988062 -0.0490498)
(4.75544 1.22183 0.00806619)
(5.30505 1.28626 -0.209615)
(5.27194 1.48812 -0.308009)
(4.93747 1.66551 -0.319703)
(4.42824 1.72757 -0.234922)
(4.11727 1.78836 -0.140691)
(3.90286 1.84787 -0.0815119)
(3.73059 1.91803 -0.0259304)
(3.62947 1.99819 0.00390136)
(3.51711 2.09164 0.00694663)
(3.356 2.15015 0.00249076)
(3.18766 2.16249 -0.000441661)
(2.94225 2.07592 -0.000235188)
(2.63212 1.90059 -0.000277662)
(2.31259 1.68567 -0.00031193)
(2.01761 1.46884 -0.000419138)
(1.75214 1.26295 -0.000674128)
(1.52149 1.076 -0.00110991)
(1.32433 0.912967 -0.00173545)
(1.15495 0.770739 -0.00254674)
(1.01001 0.649393 -0.00353475)
(0.88642 0.546258 -0.00468808)
(0.780446 0.45831 -0.00599608)
(0.689318 0.384954 -0.0074512)
(0.609518 0.31956 -0.00904966)
(0.537553 0.266273 -0.0107917)
(0.47595 0.222975 -0.0126807)
(0.420624 0.182734 -0.0147218)
(0.366983 0.148878 -0.0169203)
(0.318696 0.120261 -0.0192793)
(0.275549 0.096519 -0.0217978)
(0.234892 0.0785137 -0.0244703)
(0.195576 0.0656672 -0.0272865)
(0.158138 0.0553459 -0.0302286)
(0.12251 0.0485087 -0.0332734)
(0.0896433 0.0459799 -0.036394)
(0.057226 0.0471163 -0.039559)
(0.0255239 0.0492743 -0.0427376)
(-0.00609407 0.0559275 -0.045887)
(-0.0417366 0.0671203 -0.0489853)
(4.90067 0.285687 0.0163663)
(5.52345 0.595035 -0.0325032)
(5.34723 0.790664 -0.0384635)
(4.83703 1.19867 -0.0416255)
(4.42891 1.42626 -0.0392199)
(4.18748 1.60254 -0.033887)
(4.0216 1.76274 -0.01357)
(3.89208 1.90297 -0.00470606)
(3.7542 2.0144 -0.00431686)
(3.56861 2.0995 -0.00133359)
(3.36543 2.13371 -0.00124073)
(3.08462 2.07102 -0.00077854)
(2.73514 1.90905 -0.000473401)
(2.37564 1.69864 -0.000299364)
(2.04297 1.47954 -0.000291287)
(1.74826 1.26978 -0.000461365)
(1.49267 1.07952 -0.000826419)
(1.27519 0.911076 -0.00139527)
(1.09179 0.767938 -0.00216461)
(0.935759 0.644968 -0.0031254)
(0.802725 0.538656 -0.00426331)
(0.690027 0.44869 -0.005562)
(0.594156 0.368255 -0.00700726)
(0.513461 0.305176 -0.00858892)
(0.443492 0.246764 -0.0103006)
(0.37707 0.199195 -0.0121404)
(0.323865 0.158843 -0.0141092)
(0.277302 0.126124 -0.0162093)
(0.23102 0.097536 -0.0184416)
(0.189878 0.0725662 -0.0208046)
(0.152139 0.0533076 -0.023294)
(0.116981 0.0391545 -0.0259011)
(0.0848411 0.0289053 -0.0286124)
(0.0543758 0.0214261 -0.0314095)
(0.0254943 0.0171769 -0.034265)
(-0.00218821 0.0153928 -0.0371625)
(-0.0297825 0.0181579 -0.0400702)
(-0.0565228 0.0226632 -0.0429636)
(-0.0844716 0.0306745 -0.045819)
(-0.115287 0.0414608 -0.048603)
(4.91449 0.286714 0.00631049)
(5.53259 0.790697 -0.00318672)
(5.35166 1.08519 -0.00550151)
(4.90413 1.36827 -0.00832761)
(4.63057 1.49801 -0.00698554)
(4.43641 1.66496 -0.00381704)
(4.23379 1.83819 -0.00291406)
(4.01188 1.9543 -0.00244329)
(3.79909 2.0288 -0.00201238)
(3.55765 2.06726 -0.00110576)
(3.23623 2.02448 -0.000513044)
(2.85176 1.88703 -0.00023782)
(2.45325 1.68977 -0.000150668)
(2.08419 1.47582 -0.000169555)
(1.75815 1.26742 -0.0003028)
(1.47758 1.07479 -0.000597632)
(1.24101 0.906417 -0.00108762)
(1.04334 0.761474 -0.00178391)
(0.87666 0.639144 -0.00268534)
(0.736037 0.534342 -0.00377922)
(0.616409 0.440207 -0.00504627)
(0.51665 0.363728 -0.00646698)
(0.429558 0.292854 -0.00802355)
(0.35629 0.235991 -0.0097038)
(0.294939 0.188078 -0.0114998)
(0.237188 0.146819 -0.013407)
(0.190948 0.108365 -0.0154236)
(0.149472 0.0806667 -0.0175479)
(0.111494 0.0572683 -0.0197776)
(0.0766733 0.036514 -0.0221081)
(0.0443133 0.0208275 -0.0245325)
(0.0153984 0.00810312 -0.0270406)
(-0.0109762 -0.000530028 -0.0296125)
(-0.0359669 -0.00603924 -0.0322349)
(-0.0598401 -0.00811636 -0.0348849)
(-0.0828824 -0.0073345 -0.037543)
(-0.105797 -0.00355277 -0.0401877)
(-0.128596 0.00255354 -0.0428002)
(-0.152459 0.0113977 -0.0453645)
(-0.179218 0.0217181 -0.0478531)
(4.98681 0.163386 0.00245206)
(5.62094 0.679907 0.000376673)
(5.46292 0.899655 -0.000187487)
(5.02177 1.20055 -0.00147764)
(4.75673 1.39407 -0.00174912)
(4.55689 1.60288 -0.00121695)
(4.30804 1.79886 -0.00122277)
(4.04119 1.9065 -0.000818166)
(3.73825 1.94779 -0.000396064)
(3.378 1.92445 -0.000140375)
(2.96496 1.81949 -3.93747e-05)
(2.5368 1.65085 -2.13641e-05)
(2.13332 1.45276 -5.54608e-05)
(1.77556 1.25134 -0.000165043)
(1.47102 1.06331 -0.000400311)
(1.21832 0.897859 -0.000806676)
(1.0086 0.756001 -0.00141125)
(0.832082 0.633652 -0.00222498)
(0.682076 0.528955 -0.00324327)
(0.558859 0.438245 -0.00444907)
(0.4514 0.35793 -0.00582018)
(0.361451 0.290826 -0.0073344)
(0.285216 0.233476 -0.00897244)
(0.219526 0.180287 -0.0107198)
(0.164556 0.139907 -0.0125666)
(0.116357 0.103187 -0.0145063)
(0.0759116 0.0715275 -0.0165344)
(0.0390926 0.0457271 -0.0186466)
(0.0072454 0.0247145 -0.0208378)
(-0.0215336 0.00808256 -0.0231015)
(-0.0479182 -0.00533908 -0.025429)
(-0.0715397 -0.015803 -0.0278065)
(-0.0932818 -0.0226825 -0.0302191)
(-0.113804 -0.0263691 -0.0326488)
(-0.133461 -0.0270334 -0.0350799)
(-0.152762 -0.0248228 -0.0374965)
(-0.172142 -0.0199754 -0.0398826)
(-0.191799 -0.0128718 -0.0422257)
(-0.21238 -0.00356824 -0.0445163)
(-0.235392 0.00713086 -0.0467273)
(5.0396 0.0510011 0.000688403)
(5.65933 0.564858 0.000562595)
(5.46631 0.90081 0.000486665)
(5.04576 1.20173 5.88556e-05)
(4.7902 1.376 -0.000286404)
(4.56658 1.56812 -0.000151791)
(4.25526 1.72319 -9.57581e-06)
(3.88076 1.78773 2.65873e-05)
(3.48399 1.78001 3.30496e-05)
(3.05422 1.70808 3.69846e-05)
(2.60808 1.57477 3.08184e-05)
(2.17824 1.40122 5.5841e-06)
(1.79373 1.21628 -6.85593e-05)
(1.4697 1.0404 -0.000240126)
(1.2033 0.883756 -0.000558638)
(0.983753 0.748071 -0.00105999)
(0.800289 0.630596 -0.00176483)
(0.644866 0.527482 -0.00267873)
(0.51264 0.437585 -0.00379155)
(0.402977 0.358199 -0.00508315)
(0.306672 0.292216 -0.00652936)
(0.226764 0.231487 -0.00810581)
(0.15971 0.183076 -0.0097918)
(0.102056 0.137449 -0.0115713)
(0.0531547 0.101296 -0.0134332)
(0.0115222 0.0685213 -0.0153699)
(-0.0234265 0.0423647 -0.0173747)
(-0.0538241 0.0193829 -0.0194412)