/*--------------------------------*- C++ -*----------------------------------*\
| =========                 |                                                 |
| \\      /  F ield         | OpenFOAM: The Open Source CFD Toolbox           |
|  \\    /   O peration     | Version:  2.3.0                                 |
|   \\  /    A nd           | Web:      www.OpenFOAM.org                      |
|    \\/     M anipulation  |                                                 |
\*---------------------------------------------------------------------------*/
FoamFile
{
    version     2.0;
    format      ascii;
    class       surfaceScalarField;
    location    "9600/topAir";
    object      phi;
}
// * * * * * * * * * * * * * * * * * * * * * * * * * * * * * * * * * * * * * //

dimensions      [1 0 -1 0 0 0 0];

internalField   nonuniform List<scalar> 
7860
(
0.00877001
4.282824e-06
0.008766207
3.805192e-06
0.008763196
3.013057e-06
0.008760112
3.086019e-06
0.008756895
3.219146e-06
0.008753638
3.258149e-06
0.008750355
3.283329e-06
0.008747043
3.312028e-06
0.008743707
3.336349e-06
0.008740351
3.355468e-06
0.00873698
3.371149e-06
0.008733595
3.384232e-06
0.0087302
3.395128e-06
0.008726796
3.404231e-06
0.008723384
3.411873e-06
0.008719965
3.418311e-06
0.008716541
3.423743e-06
0.008713112
3.42833e-06
0.00870968
3.432201e-06
0.008706244
3.435462e-06
0.008702806
3.438199e-06
0.008699365
3.440481e-06
0.008695923
3.44237e-06
0.008692479
3.443913e-06
0.008689033
3.445153e-06
0.008685587
3.446124e-06
0.00868214
3.446859e-06
0.008678692
3.447382e-06
0.008675244
3.447716e-06
0.008671796
3.44788e-06
0.008668348
3.447892e-06
0.008664901
3.447765e-06
0.008661453
3.447513e-06
0.008658006
3.447147e-06
0.008654559
3.446678e-06
0.008651113
3.446112e-06
0.008647667
3.445459e-06
0.008644222
3.444725e-06
0.008640778
3.443916e-06
0.008637335
3.443037e-06
0.008633893
3.442092e-06
0.008630452
3.441086e-06
0.008627012
3.440022e-06
0.008623573
3.438902e-06
0.008620135
3.437729e-06
0.008616698
3.436506e-06
0.008613263
3.435233e-06
0.008609829
3.433912e-06
0.008606396
3.432544e-06
0.008602965
3.431129e-06
0.008599536
3.429668e-06
0.008596107
3.428159e-06
0.008592681
3.426603e-06
0.008589256
3.424999e-06
0.008585832
3.423345e-06
0.008582411
3.421639e-06
0.008578991
3.41988e-06
0.008575573
3.418065e-06
0.008572156
3.41619e-06
0.008568742
3.414253e-06
0.00856533
3.412249e-06
0.00856192
3.410174e-06
0.008558511
3.408021e-06
0.008555106
3.405787e-06
0.008551702
3.403462e-06
0.008548301
3.40104e-06
0.008544903
3.398511e-06
0.008541507
3.395865e-06
0.008538114
3.393091e-06
0.008534723
3.390176e-06
0.008531336
3.387104e-06
0.008527952
3.383858e-06
0.008524572
3.380419e-06
0.008521195
3.376763e-06
0.008517822
3.372863e-06
0.008514453
3.36869e-06
0.008511089
3.364206e-06
0.00850773
3.359369e-06
0.008504376
3.354128e-06
0.008501027
3.348422e-06
0.008497685
3.342178e-06
0.00849435
3.335307e-06
0.008491022
3.327699e-06
0.008487703
3.319219e-06
0.008484393
3.309696e-06
0.008481094
3.29891e-06
0.008477807
3.286577e-06
0.008474535
3.272321e-06
0.008471279
3.255631e-06
0.008468044
3.235797e-06
0.008464832
3.211798e-06
0.00846165
3.182112e-06
0.008458505
3.144366e-06
0.008455411
3.094655e-06
0.008452384
3.026263e-06
0.008449458
2.926521e-06
0.008446686
2.772228e-06
0.008444177
2.508076e-06
0.008442125
2.052448e-06
1.034112e-06
0.008778923
5.912163e-07
0.008780323
2.407189e-06
0.008780748
2.590102e-06
0.008781192
2.644885e-06
0.008781606
2.80706e-06
0.008781942
2.922592e-06
0.008782227
2.999363e-06
0.008782476
3.062408e-06
0.008782698
3.114586e-06
0.008782897
3.156891e-06
0.008783076
3.191813e-06
0.008783239
3.221169e-06
0.008783388
3.246097e-06
0.008783524
3.267455e-06
0.00878365
3.285917e-06
0.008783766
3.302001e-06
0.008783873
3.316109e-06
0.008783973
3.328559e-06
0.008784065
3.339604e-06
0.008784151
3.349452e-06
0.008784231
3.358269e-06
0.008784305
3.366196e-06
0.008784374
3.373346e-06
0.008784437
3.379817e-06
0.008784497
3.38569e-06
0.008784552
3.391035e-06
0.008784602
3.39591e-06
0.008784649
3.400367e-06
0.008784692
3.404449e-06
0.008784732
3.408195e-06
0.008784768
3.411636e-06
0.008784801
3.414803e-06
0.008784831
3.417719e-06
0.008784857
3.420409e-06
0.008784881
3.422889e-06
0.008784902
3.425179e-06
0.00878492
3.427293e-06
0.008784935
3.429243e-06
0.008784948
3.431042e-06
0.008784958
3.4327e-06
0.008784966
3.434226e-06
0.008784971
3.435627e-06
0.008784974
3.436909e-06
0.008784975
3.43808e-06
0.008784974
3.439142e-06
0.00878497
3.440101e-06
0.008784964
3.440959e-06
0.008784956
3.441719e-06
0.008784946
3.442382e-06
0.008784935
3.44295e-06
0.008784921
3.443421e-06
0.008784905
3.443797e-06
0.008784888
3.444075e-06
0.008784868
3.444254e-06
0.008784847
3.444332e-06
0.008784825
3.444304e-06
0.0087848
3.444166e-06
0.008784774
3.443914e-06
0.008784747
3.443542e-06
0.008784718
3.443041e-06
0.008784688
3.442405e-06
0.008784656
3.441624e-06
0.008784624
3.440687e-06
0.00878459
3.439583e-06
0.008784555
3.438297e-06
0.008784519
3.436813e-06
0.008784483
3.435115e-06
0.008784445
3.433181e-06
0.008784407
3.43099e-06
0.008784369
3.428514e-06
0.00878433
3.425724e-06
0.008784292
3.422586e-06
0.008784253
3.41906e-06
0.008784214
3.415101e-06
0.008784177
3.410656e-06
0.00878414
3.405665e-06
0.008784104
3.400055e-06
0.008784069
3.393742e-06
0.008784037
3.386627e-06
0.008784007
3.378589e-06
0.008783979
3.369487e-06
0.008783955
3.359146e-06
0.008783936
3.347352e-06
0.008783921
3.333842e-06
0.008783913
3.318285e-06
0.008783911
3.300261e-06
0.008783918
3.279228e-06
0.008783936
3.254476e-06
0.008783967
3.225056e-06
0.008784013
3.189673e-06
0.008784078
3.146523e-06
0.008784167
3.093022e-06
0.008784286
3.025372e-06
0.008784443
2.937825e-06
0.008784648
2.821477e-06
0.008784912
2.661956e-06
0.008785248
2.436381e-06
0.008785652
2.103811e-06
0.008786098
1.607089e-06
7.999251e-07
0.008776344
8.709177e-07
0.008777073
1.681104e-06
0.008777627
2.037854e-06
0.008778041
2.233833e-06
0.008778411
2.438182e-06
0.008778738
2.597282e-06
0.008779027
2.710776e-06
0.008779289
2.80052e-06
0.008779529
2.87422e-06
0.008779751
2.934679e-06
0.008779958
2.984879e-06
0.008780152
3.027203e-06
0.008780335
3.063264e-06
0.008780507
3.094253e-06
0.008780672
3.121094e-06
0.008780829
3.144507e-06
0.00878098
3.165058e-06
0.008781125
3.183195e-06
0.008781265
3.199281e-06
0.008781401
3.213612e-06
0.008781533
3.226428e-06
0.008781661
3.237932e-06
0.008781785
3.248292e-06
0.008781907
3.257648e-06
0.008782027
3.26612e-06
0.008782144
3.273809e-06
0.008782259
3.280804e-06
0.008782372
3.287178e-06
0.008782483
3.292998e-06
0.008782593
3.298319e-06
0.008782701
3.30319e-06
0.008782808
3.307653e-06
0.008782914
3.311748e-06
0.008783019
3.315505e-06
0.008783123
3.318956e-06
0.008783226
3.322123e-06
0.008783328
3.325031e-06
0.008783429
3.327699e-06
0.00878353
3.330144e-06
0.00878363
3.332381e-06
0.00878373
3.334424e-06
0.008783829
3.336284e-06
0.008783928
3.337971e-06
0.008784027
3.339494e-06
0.008784125
3.340859e-06
0.008784223
3.342073e-06
0.00878432
3.34314e-06
0.008784418
3.344064e-06
0.008784516
3.344847e-06
0.008784613
3.345492e-06
0.00878471
3.345997e-06
0.008784808
3.346363e-06
0.008784905
3.346588e-06
0.008785003
3.346669e-06
0.0087851
3.346602e-06
0.008785198
3.346382e-06
0.008785296
3.346004e-06
0.008785395
3.34546e-06
0.008785494
3.34474e-06
0.008785593
3.343835e-06
0.008785692
3.342734e-06
0.008785792
3.341421e-06
0.008785893
3.339882e-06
0.008785995
3.3381e-06
0.008786097
3.336053e-06
0.0087862
3.33372e-06
0.008786304
3.331073e-06
0.008786409
3.328085e-06
0.008786515
3.324721e-06
0.008786623
3.320944e-06
0.008786732
3.31671e-06
0.008786842
3.311969e-06
0.008786955
3.306664e-06
0.008787069
3.30073e-06
0.008787186
3.294091e-06
0.008787305
3.286658e-06
0.008787426
3.278329e-06
0.008787551
3.268982e-06
0.008787679
3.258475e-06
0.008787811
3.246638e-06
0.008787947
3.233267e-06
0.008788088
3.218117e-06
0.008788235
3.200888e-06
0.008788387
3.181211e-06
0.008788547
3.15863e-06
0.008788715
3.132566e-06
0.008788892
3.102287e-06
0.008789079
3.066843e-06
0.008789279
3.024991e-06
0.008789494
2.975071e-06
0.008789725
2.914835e-06
0.008789977
2.841181e-06
0.008790253
2.749758e-06
0.008790556
2.634359e-06
0.008790892
2.48606e-06
0.008791262
2.291904e-06
0.008791665
2.033566e-06
0.008792083
1.685289e-06
0.008792473
1.217195e-06
6.031068e-07
0.008777304
5.58706e-07
0.008777677
1.310957e-06
0.008777999
1.718401e-06
0.008778286
1.949162e-06
0.008778569
2.156868e-06
0.008778838
2.329132e-06
0.008779087
2.461642e-06
0.00877932
2.568429e-06
0.008779537
2.657187e-06
0.00877974
2.731239e-06
0.008779931
2.793498e-06
0.008780112
2.846415e-06
0.008780283
2.891788e-06
0.008780446
2.930971e-06
0.008780602
2.965037e-06
0.008780751
2.994835e-06
0.008780895
3.021043e-06
0.008781034
3.044205e-06
0.008781168
3.064768e-06
0.008781298
3.083095e-06
0.008781425
3.099489e-06
0.008781549
3.114202e-06
0.008781669
3.127444e-06
0.008781787
3.139394e-06
0.008781903
3.150204e-06
0.008782017
3.160004e-06
0.008782128
3.168905e-06
0.008782238
3.177002e-06
0.008782347
3.18438e-06
0.008782454
3.191111e-06
0.00878256
3.197257e-06
0.008782664
3.202874e-06
0.008782768
3.20801e-06
0.008782871
3.212708e-06
0.008782973
3.217006e-06
0.008783074
3.220935e-06
0.008783174
3.224527e-06
0.008783274
3.227805e-06
0.008783373
3.230793e-06
0.008783472
3.23351e-06
0.00878357
3.235973e-06
0.008783668
3.238198e-06
0.008783766
3.240197e-06
0.008783863
3.241982e-06
0.008783961
3.243562e-06
0.008784058
3.244944e-06
0.008784155
3.246134e-06
0.008784252
3.247138e-06
0.008784348
3.247959e-06
0.008784445
3.248597e-06
0.008784542
3.249055e-06
0.008784639
3.249331e-06
0.008784736
3.249422e-06
0.008784833
3.249326e-06
0.008784931
3.249037e-06
0.008785029
3.248548e-06
0.008785127
3.247853e-06
0.008785225
3.24694e-06
0.008785324
3.245799e-06
0.008785424
3.244416e-06
0.008785524
3.242776e-06
0.008785624
3.240861e-06
0.008785725
3.23865e-06
0.008785827
3.236122e-06
0.00878593
3.233249e-06
0.008786034
3.230002e-06
0.008786138
3.226347e-06
0.008786244
3.222247e-06
0.008786351
3.217658e-06
0.00878646
3.212531e-06
0.008786569
3.20681e-06
0.008786681
3.20043e-06
0.008786794
3.193319e-06
0.00878691
3.185392e-06
0.008787027
3.176552e-06
0.008787147
3.166686e-06
0.00878727
3.155664e-06
0.008787395
3.143331e-06
0.008787524
3.129508e-06
0.008787657
3.11398e-06
0.008787794
3.096493e-06
0.008787935
3.076741e-06
0.008788082
3.054355e-06
0.008788234
3.028883e-06
0.008788393
2.99977e-06
0.008788559
2.966327e-06
0.008788733
2.927686e-06
0.008788918
2.882749e-06
0.008789112
2.830105e-06
0.00878932
2.767924e-06
0.008789541
2.69381e-06
0.008789777
2.604591e-06
0.008790031
2.496046e-06
0.008790303
2.36254e-06
0.008790592
2.196588e-06
0.008790896
1.988403e-06
0.008791203
1.725689e-06
0.008791494
1.39429e-06
0.008791731
9.801883e-07
4.83331e-07
0.008777173
5.926983e-07
0.008777382
1.104358e-06
0.008777665
1.438143e-06
0.008777938
1.678623e-06
0.008778203
1.893104e-06
0.008778458
2.075587e-06
0.008778697
2.222709e-06
0.008778922
2.343838e-06
0.008779133
2.445668e-06
0.008779333
2.53167e-06
0.008779522
2.604714e-06
0.008779701
2.667265e-06
0.008779871
2.72122e-06
0.008780034
2.768051e-06
0.008780189
2.808934e-06
0.008780339
2.844816e-06
0.008780484
2.876461e-06
0.008780623
2.904492e-06
0.008780758
2.92942e-06
0.008780889
2.951669e-06
0.008781017
2.971591e-06
0.008781141
2.989482e-06
0.008781263
3.005592e-06
0.008781382
3.020133e-06
0.008781499
3.033286e-06
0.008781613
3.045207e-06
0.008781726
3.056028e-06
0.008781837
3.065867e-06
0.008781947
3.074823e-06
0.008782055
3.082985e-06
0.008782161
3.090429e-06
0.008782267
3.097222e-06
0.008782371
3.103423e-06
0.008782475
3.109085e-06
0.008782577
3.114253e-06
0.008782679
3.118967e-06
0.00878278
3.123264e-06
0.008782881
3.127175e-06
0.008782981
3.130727e-06
0.00878308
3.133944e-06
0.008783179
3.136849e-06
0.008783278
3.139459e-06
0.008783376
3.141791e-06
0.008783474
3.143858e-06
0.008783572
3.145671e-06
0.00878367
3.147241e-06
0.008783767
3.148574e-06
0.008783865
3.149677e-06
0.008783962
3.150554e-06
0.00878406
3.151206e-06
0.008784157
3.151636e-06
0.008784254
3.151841e-06
0.008784352
3.151819e-06
0.00878445
3.151566e-06
0.008784547
3.151076e-06
0.008784646
3.150341e-06
0.008784744
3.14935e-06
0.008784843
3.148093e-06
0.008784942
3.146556e-06
0.008785042
3.144721e-06
0.008785142
3.142571e-06
0.008785243
3.140083e-06
0.008785344
3.137234e-06
0.008785446
3.133994e-06
0.008785549
3.130333e-06
0.008785653
3.126215e-06
0.008785758
3.121598e-06
0.008785863
3.116436e-06
0.00878597
3.110678e-06
0.008786078
3.104264e-06
0.008786188
3.097127e-06
0.008786299
3.089188e-06
0.008786412
3.080361e-06
0.008786527
3.070545e-06
0.008786644
3.059624e-06
0.008786763
3.047463e-06
0.008786885
3.033908e-06
0.008787009
3.018777e-06
0.008787137
3.001859e-06
0.008787268
2.982904e-06
0.008787403
2.961617e-06
0.008787542
2.937646e-06
0.008787686
2.91057e-06
0.008787835
2.879878e-06
0.00878799
2.84495e-06
0.008788151
2.805027e-06
0.008788319
2.759169e-06
0.008788496
2.706209e-06
0.008788681
2.644683e-06
0.008788876
2.572742e-06
0.008789082
2.488046e-06
0.008789299
2.387621e-06
0.008789527
2.267694e-06
0.008789766
2.123521e-06
0.008790014
1.949246e-06
0.008790264
1.737917e-06
0.008790508
1.481815e-06
0.008790728
1.173932e-06
0.008790899
8.093012e-07
3.971398e-07
0.008777579
4.353283e-07
0.00877777
9.155394e-07
0.008777978
1.23232e-06
0.008778189
1.470105e-06
0.0087784
1.683707e-06
0.008778609
1.868165e-06
0.008778811
2.021168e-06
0.008779005
2.149661e-06
0.008779191
2.259127e-06
0.00877937
2.352751e-06
0.008779542
2.433166e-06
0.008779706
2.502657e-06
0.008779864
2.563054e-06
0.008780016
2.615811e-06
0.008780163
2.662113e-06
0.008780304
2.70293e-06
0.008780441
2.73906e-06
0.008780574
2.77116e-06
0.008780704
2.799779e-06
0.00878083
2.825373e-06
0.008780953
2.848327e-06
0.008781073
2.868969e-06
0.008781191
2.887574e-06
0.008781307
2.904379e-06
0.00878142
2.919587e-06
0.008781532
2.933374e-06
0.008781642
2.945891e-06
0.00878175
2.957269e-06
0.008781857
2.967623e-06
0.008781963
2.977054e-06
0.008782068
2.985649e-06
0.008782171
2.993487e-06
0.008782274
3.000634e-06
0.008782376
3.007152e-06
0.008782477
3.013092e-06
0.008782577
3.018502e-06
0.008782677
3.023424e-06
0.008782776
3.027893e-06
0.008782875
3.031942e-06
0.008782973
3.035599e-06
0.008783071
3.038889e-06
0.008783168
3.041833e-06
0.008783266
3.04445e-06
0.008783363
3.046756e-06
0.00878346
3.048765e-06
0.008783556
3.050487e-06
0.008783653
3.051931e-06
0.008783749
3.053105e-06
0.008783846
3.054012e-06
0.008783942
3.054656e-06
0.008784039
3.055038e-06
0.008784135
3.055156e-06
0.008784232
3.055006e-06
0.008784329
3.054585e-06
0.008784426
3.053885e-06
0.008784524
3.052897e-06
0.008784621
3.051609e-06
0.008784719
3.050007e-06
0.008784818
3.048076e-06
0.008784917
3.045795e-06
0.008785016
3.043144e-06
0.008785116
3.040097e-06
0.008785217
3.036625e-06
0.008785318
3.032695e-06
0.00878542
3.028272e-06
0.008785523
3.023313e-06
0.008785627
3.01777e-06
0.008785731
3.011591e-06
0.008785837
3.004715e-06
0.008785945
2.997073e-06
0.008786053
2.988588e-06
0.008786163
2.979171e-06
0.008786275
2.968722e-06
0.008786388
2.957126e-06
0.008786503
2.94425e-06
0.008786621
2.929944e-06
0.008786741
2.914031e-06
0.008786863
2.896309e-06
0.008786988
2.876542e-06
0.008787117
2.854452e-06
0.008787249
2.829716e-06
0.008787384
2.801948e-06
0.008787524
2.770692e-06
0.008787669
2.735404e-06
0.008787818
2.695429e-06
0.008787973
2.649978e-06
0.008788134
2.598091e-06
0.008788302
2.538599e-06
0.008788477
2.470074e-06
0.008788658
2.390765e-06
0.008788848
2.298526e-06
0.008789045
2.190743e-06
0.008789248
2.064262e-06
0.008789456
1.915347e-06
0.008789666
1.73972e-06
0.008789871
1.532779e-06
0.008790063
1.290067e-06
0.008790228
1.008595e-06
0.00879035
6.874419e-07
3.358593e-07
0.008777607
4.286799e-07
0.008777715
8.094193e-07
0.008777871
1.078633e-06
0.008778042
1.301381e-06
0.008778222
1.505442e-06
0.008778406
1.684947e-06
0.00877859
1.83802e-06
0.00877877
1.969478e-06
0.008778946
2.083318e-06
0.008779117
2.182062e-06
0.008779282
2.267911e-06
0.008779441
2.342845e-06
0.008779596
2.408515e-06
0.008779745
2.466281e-06
0.00877989
2.51728e-06
0.00878003
2.562462e-06
0.008780166
2.602624e-06
0.008780298
2.638434e-06
0.008780428
2.670457e-06
0.008780554
2.69917e-06
0.008780677
2.724978e-06
0.008780797
2.748227e-06
0.008780915
2.769215e-06
0.008781031
2.788197e-06
0.008781145
2.805392e-06
0.008781258
2.820993e-06
0.008781368
2.835165e-06
0.008781477
2.848053e-06
0.008781585
2.859785e-06
0.008781691
2.870472e-06
0.008781797
2.880211e-06
0.008781901
2.88909e-06
0.008782004
2.897184e-06
0.008782107
2.904561e-06
0.008782208
2.91128e-06
0.008782309
2.917394e-06
0.00878241
2.92295e-06
0.008782509
2.927989e-06
0.008782609
2.932548e-06
0.008782708
2.936658e-06
0.008782806
2.940347e-06
0.008782904
2.943641e-06
0.008783002
2.94656e-06
0.0087831
2.949123e-06
0.008783197
2.951344e-06
0.008783294
2.953237e-06
0.008783391
2.954811e-06
0.008783488
2.956075e-06
0.008783585
2.957033e-06
0.008783682
2.95769e-06
0.008783779
2.958045e-06
0.008783876
2.958098e-06
0.008783973
2.957846e-06
0.00878407
2.957281e-06
0.008784168
2.956398e-06
0.008784265
2.955184e-06
0.008784363
2.953627e-06
0.008784462
2.951712e-06
0.00878456
2.949419e-06
0.008784659
2.946728e-06
0.008784759
2.943614e-06
0.008784859
2.940048e-06
0.008784959
2.935998e-06
0.008785061
2.931426e-06
0.008785163
2.926293e-06
0.008785265
2.920551e-06
0.008785369
2.914146e-06
0.008785473
2.907019e-06
0.008785579
2.899102e-06
0.008785686
2.890319e-06
0.008785794
2.880584e-06
0.008785903
2.869799e-06
0.008786014
2.857851e-06
0.008786126
2.844615e-06
0.008786241
2.829946e-06
0.008786357
2.813678e-06
0.008786475
2.79562e-06
0.008786596
2.775553e-06
0.008786719
2.753223e-06
0.008786845
2.728334e-06
0.008786975
2.700544e-06
0.008787107
2.669448e-06
0.008787243
2.634574e-06
0.008787383
2.595362e-06
0.008787527
2.551151e-06
0.008787676
2.501155e-06
0.00878783
2.444436e-06
0.008787988
2.379876e-06
0.008788152
2.306142e-06
0.008788321
2.221646e-06
0.008788495
2.124508e-06
0.008788674
2.012528e-06
0.008788855
1.883175e-06
0.008789036
1.733624e-06
0.008789215
1.560879e-06
0.008789386
1.362043e-06
0.008789541
1.134765e-06
0.008789672
8.782643e-07
0.008789765
5.935438e-07
2.887944e-07
0.008777821
3.560684e-07
0.008777927
7.052474e-07
0.008778059
9.495643e-07
0.008778206
1.156804e-06
0.008778362
1.35114e-06
0.008778523
1.525241e-06
0.008778684
1.676708e-06
0.008778845
1.808998e-06
0.008779003
1.925078e-06
0.008779158
2.026928e-06
0.00877931
2.116376e-06
0.008779457
2.195131e-06
0.008779601
2.264663e-06
0.008779741
2.326219e-06
0.008779877
2.380863e-06
0.008780009
2.429507e-06
0.008780139
2.472923e-06
0.008780265
2.511771e-06
0.008780389
2.546616e-06
0.00878051
2.57794e-06
0.008780628
2.606158e-06
0.008780745
2.631626e-06
0.008780859
2.654653e-06
0.008780972
2.675507e-06
0.008781082
2.694419e-06
0.008781192
2.711592e-06
0.0087813
2.727204e-06
0.008781406
2.741409e-06
0.008781511
2.754343e-06
0.008781615
2.766128e-06
0.008781719
2.776868e-06
0.008781821
2.786658e-06
0.008781922
2.795581e-06
0.008782023
2.803709e-06
0.008782123
2.811109e-06
0.008782223
2.817838e-06
0.008782322
2.823947e-06
0.00878242
2.829481e-06
0.008782518
2.834481e-06
0.008782616
2.838981e-06
0.008782713
2.843013e-06
0.00878281
2.846605e-06
0.008782906
2.849778e-06
0.008783003
2.852554e-06
0.008783099
2.854948e-06
0.008783196
2.856977e-06
0.008783292
2.858649e-06
0.008783388
2.859975e-06
0.008783484
2.86096e-06
0.00878358
2.861607e-06
0.008783676
2.861918e-06
0.008783772
2.861891e-06
0.008783868
2.861522e-06
0.008783965
2.860806e-06
0.008784061
2.859732e-06
0.008784158
2.858291e-06
0.008784255
2.856466e-06
0.008784353
2.854241e-06
0.00878445
2.851595e-06
0.008784549
2.848505e-06
0.008784647
2.844944e-06
0.008784746
2.840879e-06
0.008784846
2.836276e-06
0.008784946
2.831094e-06
0.008785047
2.825287e-06
0.008785149
2.818804e-06
0.008785252
2.811586e-06
0.008785355
2.80357e-06
0.008785459
2.79468e-06
0.008785565
2.784835e-06
0.008785671
2.773939e-06
0.008785779
2.761888e-06
0.008785889
2.748562e-06
0.008785999
2.733824e-06
0.008786112
2.717521e-06
0.008786226
2.699475e-06
0.008786342
2.679486e-06
0.00878646
2.657323e-06
0.008786581
2.632721e-06
0.008786704
2.605375e-06
0.008786829
2.574931e-06
0.008786958
2.54098e-06
0.008787089
2.503046e-06
0.008787224
2.460574e-06
0.008787362
2.412917e-06
0.008787504
2.359318e-06
0.008787649
2.298892e-06
0.008787799
2.230605e-06
0.008787952
2.153256e-06
0.008788108
2.065455e-06
0.008788267
1.965612e-06
0.008788427
1.85194e-06
0.008788588
1.722483e-06
0.008788746
1.575189e-06
0.008788899
1.408053e-06
0.008789042
1.219377e-06
0.008789168
1.008114e-06
0.008789272
7.745889e-07
0.008789345
5.204639e-07
2.522919e-07
0.008777903
3.346978e-07
0.008777976
6.344852e-07
0.008778078
8.502929e-07
0.008778195
1.041811e-06
0.008778324
1.224118e-06
0.00877846
1.389605e-06
0.008778602
1.536016e-06
0.008778745
1.665882e-06
0.008778889
1.781336e-06
0.008779032
1.883828e-06
0.008779173
1.974792e-06
0.008779312
2.055626e-06
0.008779449
2.127571e-06
0.008779584
2.191714e-06
0.008779715
2.249009e-06
0.008779844
2.300287e-06
0.00877997
2.346271e-06
0.008780094
2.387586e-06
0.008780216
2.424777e-06
0.008780335
2.458315e-06
0.008780453
2.48861e-06
0.008780568
2.516019e-06
0.008780682
2.540852e-06
0.008780794
2.563381e-06
0.008780904
2.583846e-06
0.008781013
2.602453e-06
0.008781121
2.619388e-06
0.008781227
2.634812e-06
0.008781332
2.648868e-06
0.008781437
2.661682e-06
0.00878154
2.673367e-06
0.008781643
2.684022e-06
0.008781744
2.693735e-06
0.008781845
2.702585e-06
0.008781946
2.71064e-06
0.008782045
2.717964e-06
0.008782145
2.724611e-06
0.008782243
2.73063e-06
0.008782342
2.736064e-06
0.00878244
2.740952e-06
0.008782537
2.745326e-06
0.008782635
2.749216e-06
0.008782732
2.752648e-06
0.008782828
2.755643e-06
0.008782925
2.75822e-06
0.008783022
2.760393e-06
0.008783118
2.762176e-06
0.008783214
2.763577e-06
0.008783311
2.764603e-06
0.008783407
2.765258e-06
0.008783503
2.765544e-06
0.0087836
2.765457e-06
0.008783696
2.764995e-06
0.008783793
2.764151e-06
0.00878389
2.762914e-06
0.008783987
2.761272e-06
0.008784084
2.75921e-06
0.008784181
2.756709e-06
0.008784279
2.753747e-06
0.008784377
2.750298e-06
0.008784476
2.746332e-06
0.008784575
2.741815e-06
0.008784674
2.73671e-06
0.008784774
2.730973e-06
0.008784875
2.724554e-06
0.008784976
2.717398e-06
0.008785079
2.709443e-06
0.008785182
2.70062e-06
0.008785285
2.690849e-06
0.00878539
2.680043e-06
0.008785496
2.668102e-06
0.008785603
2.654914e-06
0.008785711
2.640353e-06
0.008785821
2.624276e-06
0.008785932
2.606523e-06
0.008786044
2.586909e-06
0.008786158
2.565228e-06
0.008786274
2.541243e-06
0.008786392
2.514684e-06
0.008786512
2.485242e-06
0.008786635
2.452563e-06
0.00878676
2.416244e-06
0.008786887
2.375816e-06
0.008787017
2.330744e-06
0.008787149
2.280411e-06
0.008787284
2.224107e-06
0.008787422
2.161021e-06
0.008787562
2.090222e-06
0.008787705
2.010656e-06
0.008787849
1.92114e-06
0.008787994
1.820366e-06
0.008788139
1.706923e-06
0.008788283
1.57934e-06
0.008788422
1.436176e-06
0.008788553
1.276151e-06
0.008788674
1.098365e-06
0.00878878
9.025495e-07
0.008788865
6.895581e-07
0.008788924
4.612208e-07
2.227949e-07
0.008778038
2.946842e-07
0.008778106
5.681724e-07
0.008778195
7.63978e-07
0.008778299
9.402505e-07
0.008778414
1.11067e-06
0.008778537
1.267568e-06
0.008778665
1.408466e-06
0.008778796
1.535143e-06
0.008778929
1.649085e-06
0.008779061
1.751297e-06
0.008779193
1.842863e-06
0.008779323
1.924904e-06
0.008779452
1.998454e-06
0.008779579
2.064448e-06
0.008779704
2.123726e-06
0.008779827
2.177041e-06
0.008779948
2.225058e-06
0.008780067
2.268364e-06
0.008780184
2.307477e-06
0.008780299
2.342852e-06
0.008780413
2.374888e-06
0.008780525
2.403937e-06
0.008780635
2.430307e-06
0.008780744
2.454273e-06
0.008780852
2.476073e-06
0.008780958
2.49592e-06
0.008781063
2.514003e-06
0.008781167
2.530486e-06
0.008781271
2.545519e-06
0.008781373
2.559233e-06
0.008781474
2.571743e-06
0.008781575
2.583154e-06
0.008781675
2.593558e-06
0.008781775
2.603038e-06
0.008781873
2.611666e-06
0.008781972
2.619509e-06
0.00878207
2.626625e-06
0.008782167
2.633065e-06
0.008782264
2.638875e-06
0.008782361
2.644096e-06
0.008782457
2.648764e-06
0.008782554
2.652909e-06
0.00878265
2.656559e-06
0.008782746
2.659737e-06
0.008782841
2.662463e-06
0.008782937
2.664753e-06
0.008783032
2.66662e-06
0.008783128
2.668075e-06
0.008783223
2.669123e-06
0.008783319
2.66977e-06
0.008783414
2.670017e-06
0.00878351
2.669861e-06
0.008783605
2.669299e-06
0.008783701
2.668323e-06
0.008783797
2.666923e-06
0.008783893
2.665085e-06
0.008783989
2.662793e-06
0.008784086
2.660026e-06
0.008784183
2.656762e-06
0.00878428
2.652972e-06
0.008784378
2.648626e-06
0.008784476
2.643686e-06
0.008784575
2.638113e-06
0.008784674
2.63186e-06
0.008784773
2.624876e-06
0.008784874
2.617101e-06
0.008784975
2.60847e-06
0.008785076
2.598911e-06
0.008785179
2.58834e-06
0.008785282
2.576665e-06
0.008785386
2.563782e-06
0.008785492
2.549577e-06
0.008785598
2.533917e-06
0.008785706
2.516657e-06
0.008785815
2.49763e-06
0.008785925
2.476651e-06
0.008786037
2.45351e-06
0.00878615
2.427968e-06
0.008786265
2.399756e-06
0.008786381
2.368568e-06
0.0087865
2.334059e-06
0.00878662
2.295834e-06
0.008786743
2.253446e-06
0.008786867
2.206389e-06
0.008786993
2.154087e-06
0.008787121
2.095891e-06
0.008787251
2.031069e-06
0.008787383
1.958806e-06
0.008787515
1.878196e-06
0.008787648
1.788256e-06
0.00878778
1.687933e-06
0.008787911
1.576141e-06
0.008788039
1.451807e-06
0.008788161
1.313956e-06
0.008788275
1.161826e-06
0.008788378
9.950352e-07
0.008788467
8.137579e-07
0.008788538
6.190442e-07
0.008788586
4.126342e-07
1.98682e-07
0.008778125
2.731826e-07
0.008778178
5.169062e-07
0.008778251
6.935949e-07
0.008778337
8.56381e-07
0.008778434
1.015388e-06
0.00877854
1.163223e-06
0.008778651
1.297536e-06
0.008778767
1.419631e-06
0.008778885
1.530545e-06
0.008779005
1.630957e-06
0.008779126
1.721676e-06
0.008779248
1.803586e-06
0.008779368
1.87753e-06
0.008779488
1.944293e-06
0.008779607
2.004602e-06
0.008779725
2.059118e-06
0.008779841
2.108439e-06
0.008779956
2.153101e-06
0.00878007
2.193585e-06
0.008780182
2.230317e-06
0.008780293
2.263678e-06
0.008780403
2.294005e-06
0.008780511
2.321599e-06
0.008780619
2.346727e-06
0.008780725
2.369626e-06
0.00878083
2.390507e-06
0.008780934
2.409557e-06
0.008781038
2.426945e-06
0.00878114
2.442819e-06
0.008781242
2.457313e-06
0.008781343
2.470545e-06
0.008781444
2.482623e-06
0.008781543
2.49364e-06
0.008781643
2.503683e-06
0.008781741
2.512827e-06
0.00878184
2.521139e-06
0.008781937
2.528681e-06
0.008782035
2.535506e-06
0.008782132
2.541663e-06
0.008782229
2.547192e-06
0.008782325
2.552133e-06
0.008782422
2.556517e-06
0.008782518
2.560374e-06
0.008782614
2.563727e-06
0.008782709
2.566597e-06
0.008782805
2.569002e-06
0.008782901
2.570954e-06
0.008782996
2.572466e-06
0.008783092
2.573544e-06
0.008783187
2.574192e-06
0.008783283
2.574412e-06
0.008783379
2.574202e-06
0.008783474
2.573557e-06
0.00878357
2.57247e-06
0.008783666
2.57093e-06
0.008783762
2.568922e-06
0.008783858
2.566429e-06
0.008783955
2.56343e-06
0.008784052
2.5599e-06
0.008784149
2.55581e-06
0.008784246
2.551127e-06
0.008784344
2.545813e-06
0.008784442
2.539826e-06
0.008784541
2.533118e-06
0.00878464
2.525634e-06
0.00878474
2.517313e-06
0.00878484
2.508087e-06
0.008784941
2.497881e-06
0.008785043
2.486609e-06
0.008785146
2.474176e-06
0.008785249
2.460475e-06
0.008785353
2.445389e-06
0.008785458
2.428785e-06
0.008785564
2.410512e-06
0.008785672
2.390406e-06
0.00878578
2.368279e-06
0.008785889
2.343922e-06
0.008786
2.317099e-06
0.008786112
2.287546e-06
0.008786226
2.254967e-06
0.008786341
2.219026e-06
0.008786457
2.17935e-06
0.008786575
2.135518e-06
0.008786695
2.087057e-06
0.008786815
2.033443e-06
0.008786937
1.97409e-06
0.00878706
1.908354e-06
0.008787183
1.83553e-06
0.008787306
1.754857e-06
0.008787429
1.665532e-06
0.00878755
1.566726e-06
0.008787669
1.457621e-06
0.008787783
1.337457e-06
0.008787891
1.205605e-06
0.008787992
1.061662e-06
0.008788081
9.05571e-07
0.008788157
7.377437e-07
0.008788217
5.592686e-07
0.008788258
3.717202e-07
1.784371e-07
0.008778224
2.471633e-07
0.008778272
4.7017e-07
0.008778337
6.315684e-07
0.008778414
7.816711e-07
0.008778501
9.296636e-07
0.008778597
1.068565e-06
0.008778699
1.196085e-06
0.008778806
1.313168e-06
0.008778916
1.420514e-06
0.008779028
1.518537e-06
0.008779142
1.607807e-06
0.008779256
1.688996e-06
0.008779371
1.762774e-06
0.008779485
1.829787e-06
0.008779599
1.890645e-06
0.008779712
1.945924e-06
0.008779824
1.996152e-06
0.008779935
2.041813e-06
0.008780045
2.083344e-06
0.008780154
2.121144e-06
0.008780261
2.155569e-06
0.008780368
2.186941e-06
0.008780474
2.215548e-06
0.008780579
2.241649e-06
0.008780683
2.265476e-06
0.008780786
2.287235e-06
0.008780888
2.307114e-06
0.00878099
2.32528e-06
0.008781091
2.34188e-06
0.008781191
2.35705e-06
0.00878129
2.370911e-06
0.008781389
2.383569e-06
0.008781488
2.395121e-06
0.008781586
2.405656e-06
0.008781683
2.415249e-06
0.00878178
2.423972e-06
0.008781877
2.431886e-06
0.008781973
2.439047e-06
0.008782069
2.445504e-06
0.008782165
2.451302e-06
0.008782261
2.456479e-06
0.008782356
2.461069e-06
0.008782451
2.465103e-06
0.008782546
2.468604e-06
0.008782641
2.471596e-06
0.008782736
2.474095e-06
0.008782831
2.476116e-06
0.008782925
2.477671e-06
0.00878302
2.478767e-06
0.008783115
2.479408e-06
0.00878321
2.479596e-06
0.008783304
2.47933e-06
0.008783399
2.478603e-06
0.008783494
2.477409e-06
0.00878359
2.475736e-06
0.008783685
2.473569e-06
0.00878378
2.470889e-06
0.008783876
2.467675e-06
0.008783972
2.463902e-06
0.008784068
2.459538e-06
0.008784165
2.45455e-06
0.008784262
2.448899e-06
0.008784359
2.442541e-06
0.008784457
2.435425e-06
0.008784555
2.427495e-06
0.008784653
2.418691e-06
0.008784752
2.40894e-06
0.008784852
2.398167e-06
0.008784952
2.386283e-06
0.008785053
2.373193e-06
0.008785155
2.358789e-06
0.008785257
2.34295e-06
0.008785361
2.325544e-06
0.008785465
2.306422e-06
0.00878557
2.285418e-06
0.008785676
2.262348e-06
0.008785782
2.237007e-06
0.00878589
2.209164e-06
0.008785999
2.178564e-06
0.008786109