/*--------------------------------*- C++ -*----------------------------------*\
| =========                 |                                                 |
| \\      /  F ield         | OpenFOAM: The Open Source CFD Toolbox           |
|  \\    /   O peration     | Version:  2.3.0                                 |
|   \\  /    A nd           | Web:      www.OpenFOAM.org                      |
|    \\/     M anipulation  |                                                 |
\*---------------------------------------------------------------------------*/
FoamFile
{
    version     2.0;
    format      ascii;
    class       volVectorField;
    location    "9600/topAir";
    object      U;
}
// * * * * * * * * * * * * * * * * * * * * * * * * * * * * * * * * * * * * * //

dimensions      [0 1 -1 0 0 0 0];

internalField   nonuniform List<vector> 
4000
(
(11.11939 0.002843866 0)
(8.323335 0.002998319 0)
(7.194779 0.002493709 0)
(7.492023 0.002450847 0)
(7.603228 0.002505028 0)
(7.568292 0.002525002 0)
(7.553955 0.002540906 0)
(7.554547 0.002561721 0)
(7.552839 0.002581984 0)
(7.549583 0.002599994 0)
(7.546563 0.002616126 0)
(7.543686 0.002630592 0)
(7.540772 0.002643489 0)
(7.537833 0.00265497 0)
(7.53489 0.002665203 0)
(7.531943 0.002674333 0)
(7.52899 0.002682491 0)
(7.526033 0.002689786 0)
(7.523072 0.002696318 0)
(7.520108 0.00270217 0)
(7.517142 0.002707415 0)
(7.514173 0.002712116 0)
(7.511203 0.002716327 0)
(7.508231 0.002720097 0)
(7.505258 0.002723467 0)
(7.502284 0.002726474 0)
(7.49931 0.00272915 0)
(7.496335 0.002731523 0)
(7.493359 0.00273362 0)
(7.490383 0.002735463 0)
(7.487407 0.002737071 0)
(7.484432 0.002738463 0)
(7.481456 0.002739654 0)
(7.478481 0.002740661 0)
(7.475506 0.002741495 0)
(7.472531 0.002742168 0)
(7.469557 0.002742691 0)
(7.466584 0.002743075 0)
(7.463611 0.002743327 0)
(7.460639 0.002743455 0)
(7.457668 0.002743468 0)
(7.454698 0.002743371 0)
(7.451728 0.002743171 0)
(7.44876 0.002742873 0)
(7.445792 0.002742481 0)
(7.442826 0.002742002 0)
(7.43986 0.002741438 0)
(7.436896 0.002740794 0)
(7.433933 0.002740072 0)
(7.430971 0.002739276 0)
(7.42801 0.002738409 0)
(7.425051 0.002737472 0)
(7.422093 0.002736468 0)
(7.419136 0.002735399 0)
(7.416181 0.002734266 0)
(7.413227 0.00273307 0)
(7.410274 0.002731812 0)
(7.407324 0.002730492 0)
(7.404374 0.002729112 0)
(7.401427 0.002727671 0)
(7.398481 0.002726168 0)
(7.395537 0.002724604 0)
(7.392595 0.002722976 0)
(7.389654 0.002721285 0)
(7.386716 0.002719527 0)
(7.383779 0.0027177 0)
(7.380845 0.002715803 0)
(7.377913 0.002713831 0)
(7.374983 0.00271178 0)
(7.372056 0.002709646 0)
(7.369131 0.002707423 0)
(7.36621 0.002705105 0)
(7.36329 0.002702683 0)
(7.360374 0.00270015 0)
(7.357462 0.002697493 0)
(7.354552 0.0026947 0)
(7.351647 0.002691756 0)
(7.348745 0.002688644 0)
(7.345848 0.002685343 0)
(7.342956 0.002681826 0)
(7.340068 0.002678062 0)
(7.337187 0.002674014 0)
(7.334311 0.002669635 0)
(7.331443 0.002664866 0)
(7.328582 0.002659634 0)
(7.32573 0.002653843 0)
(7.322888 0.002647368 0)
(7.320057 0.002640046 0)
(7.31724 0.002631649 0)
(7.314438 0.002621859 0)
(7.311654 0.002610207 0)
(7.308894 0.00259598 0)
(7.306162 0.002578021 0)
(7.303467 0.002554334 0)
(7.300822 0.002521298 0)
(7.298245 0.002471626 0)
(7.295775 0.002391138 0)
(7.293459 0.002244051 0)
(7.291493 0.00197314 0)
(7.289789 0.001322226 0)
(11.12645 0.002483896 0)
(8.333081 0.003325371 0)
(7.208635 0.002983523 0)
(7.508806 0.002942109 0)
(7.622952 0.003042779 0)
(7.591166 0.003094678 0)
(7.579942 0.003121734 0)
(7.583604 0.003146578 0)
(7.584965 0.003167189 0)
(7.58478 0.003182508 0)
(7.584827 0.003194036 0)
(7.585014 0.00320285 0)
(7.585161 0.003209526 0)
(7.585281 0.003214522 0)
(7.585393 0.003218209 0)
(7.585499 0.00322087 0)
(7.585596 0.003222717 0)
(7.585686 0.003223915 0)
(7.58577 0.003224593 0)
(7.585848 0.003224851 0)
(7.58592 0.003224769 0)
(7.585987 0.003224411 0)
(7.58605 0.003223826 0)
(7.586108 0.003223058 0)
(7.586162 0.003222138 0)
(7.586213 0.003221095 0)
(7.586259 0.00321995 0)
(7.586302 0.003218722 0)
(7.586342 0.003217427 0)
(7.586379 0.003216077 0)
(7.586412 0.003214683 0)
(7.586443 0.003213253 0)
(7.586471 0.003211794 0)
(7.586496 0.003210314 0)
(7.586519 0.003208815 0)
(7.586539 0.003207304 0)
(7.586557 0.003205782 0)
(7.586572 0.003204253 0)
(7.586585 0.003202717 0)
(7.586596 0.003201178 0)
(7.586605 0.003199636 0)
(7.586612 0.003198091 0)
(7.586616 0.003196544 0)
(7.586619 0.003194994 0)
(7.586619 0.003193441 0)
(7.586618 0.003191885 0)
(7.586615 0.003190324 0)
(7.58661 0.003188757 0)
(7.586603 0.003187182 0)
(7.586595 0.003185597 0)
(7.586585 0.003184 0)
(7.586573 0.003182389 0)
(7.58656 0.00318076 0)
(7.586545 0.00317911 0)
(7.586528 0.003177436 0)
(7.58651 0.003175734 0)
(7.586491 0.003173999 0)
(7.58647 0.003172226 0)
(7.586448 0.003170411 0)
(7.586425 0.003168546 0)
(7.586401 0.003166626 0)
(7.586375 0.003164642 0)
(7.586348 0.003162588 0)
(7.58632 0.003160453 0)
(7.586292 0.003158228 0)
(7.586262 0.003155901 0)
(7.586232 0.00315346 0)
(7.586201 0.003150891 0)
(7.586169 0.003148177 0)
(7.586137 0.003145301 0)
(7.586105 0.003142243 0)
(7.586073 0.003138979 0)
(7.58604 0.003135482 0)
(7.586008 0.003131723 0)
(7.585976 0.003127665 0)
(7.585945 0.003123269 0)
(7.585914 0.003118485 0)
(7.585885 0.003113259 0)
(7.585857 0.003107523 0)
(7.58583 0.003101199 0)
(7.585807 0.003094191 0)
(7.585785 0.003086382 0)
(7.585767 0.003077632 0)
(7.585753 0.003067763 0)
(7.585744 0.003056553 0)
(7.585741 0.003043721 0)
(7.585744 0.003028898 0)
(7.585755 0.003011602 0)
(7.585777 0.002991179 0)
(7.58581 0.002966729 0)
(7.585859 0.002936973 0)
(7.585925 0.002900036 0)
(7.586015 0.002853069 0)
(7.586133 0.00279156 0)
(7.586288 0.002708088 0)
(7.586489 0.002589565 0)
(7.586747 0.002413254 0)
(7.58707 0.002130611 0)
(7.58744 0.001669605 0)
(7.587848 0.0007606569 0)
(11.12433 8.338801e-05 0)
(8.330873 0.001027027 0)
(7.205779 0.001410887 0)
(7.506046 0.001627097 0)
(7.620231 0.001832556 0)
(7.588404 0.001981675 0)
(7.577171 0.002087298 0)
(7.580844 0.002171144 0)
(7.58222 0.002239713 0)
(7.582053 0.002296041 0)
(7.582122 0.002343227 0)
(7.582335 0.002383502 0)
(7.58251 0.002418319 0)
(7.58266 0.002448738 0)
(7.582805 0.002475567 0)
(7.582945 0.002499422 0)
(7.583079 0.002520782 0)
(7.583207 0.002540025 0)
(7.583331 0.002557454 0)
(7.583451 0.002573316 0)
(7.583568 0.002587815 0)
(7.583681 0.00260112 0)
(7.583791 0.002613371 0)
(7.583898 0.002624688 0)
(7.584003 0.002635174 0)
(7.584106 0.002644915 0)
(7.584207 0.002653988 0)
(7.584307 0.002662456 0)
(7.584404 0.002670379 0)
(7.584501 0.002677804 0)
(7.584596 0.002684777 0)
(7.58469 0.002691335 0)
(7.584782 0.002697513 0)
(7.584874 0.00270334 0)
(7.584965 0.002708844 0)
(7.585056 0.002714049 0)
(7.585145 0.002718976 0)
(7.585234 0.002723643 0)
(7.585322 0.002728068 0)
(7.58541 0.002732266 0)
(7.585497 0.00273625 0)
(7.585584 0.002740031 0)
(7.58567 0.002743621 0)
(7.585757 0.002747029 0)
(7.585842 0.002750262 0)
(7.585928 0.002753327 0)
(7.586014 0.002756231 0)
(7.586099 0.002758978 0)
(7.586184 0.002761572 0)
(7.586269 0.002764017 0)
(7.586354 0.002766314 0)
(7.586439 0.002768465 0)
(7.586524 0.002770471 0)
(7.586609 0.002772332 0)
(7.586695 0.002774045 0)
(7.58678 0.002775608 0)
(7.586866 0.00277702 0)
(7.586951 0.002778275 0)
(7.587037 0.002779368 0)
(7.587124 0.002780293 0)
(7.587211 0.002781043 0)
(7.587298 0.002781609 0)
(7.587385 0.00278198 0)
(7.587474 0.002782144 0)
(7.587563 0.002782088 0)
(7.587652 0.002781795 0)
(7.587742 0.002781248 0)
(7.587834 0.002780426 0)
(7.587926 0.002779305 0)
(7.588019 0.002777857 0)
(7.588113 0.002776052 0)
(7.588209 0.002773854 0)
(7.588306 0.002771221 0)
(7.588405 0.002768105 0)
(7.588506 0.002764451 0)
(7.588608 0.002760195 0)
(7.588713 0.00275526 0)
(7.58882 0.002749557 0)
(7.588931 0.002742981 0)
(7.589044 0.002735405 0)
(7.58916 0.002726678 0)
(7.589281 0.002716616 0)
(7.589406 0.002704994 0)
(7.589536 0.002691535 0)
(7.589671 0.00267589 0)
(7.589813 0.00265762 0)
(7.589963 0.00263616 0)
(7.590121 0.002610773 0)
(7.590289 0.002580483 0)
(7.590468 0.002543969 0)
(7.590662 0.00249941 0)
(7.590871 0.002444247 0)
(7.591099 0.002374799 0)
(7.591349 0.002285672 0)
(7.591625 0.002168854 0)
(7.59193 0.002012261 0)
(7.592265 0.001798148 0)
(7.592627 0.00150002 0)
(7.592982 0.001086026 0)
(7.593318 0.0005198765 0)
(11.12525 0.0008150033 0)
(8.331674 0.001608391 0)
(7.206171 0.001961945 0)
(7.506267 0.002142933 0)
(7.620397 0.002309151 0)
(7.588514 0.002442646 0)
(7.577237 0.002541019 0)
(7.580881 0.002618482 0)
(7.582235 0.002681776 0)
(7.582051 0.002733586 0)
(7.582105 0.002776315 0)
(7.582305 0.002811945 0)
(7.58247 0.002841887 0)
(7.582611 0.002867199 0)
(7.582748 0.002888712 0)
(7.582881 0.002907085 0)
(7.583009 0.002922837 0)
(7.583131 0.002936389 0)
(7.58325 0.00294808 0)
(7.583365 0.002958187 0)
(7.583477 0.00296694 0)
(7.583586 0.002974527 0)
(7.583692 0.002981107 0)
(7.583796 0.002986813 0)
(7.583898 0.002991757 0)
(7.583998 0.002996034 0)
(7.584096 0.002999725 0)
(7.584193 0.0030029 0)
(7.584288 0.003005619 0)
(7.584382 0.003007932 0)
(7.584475 0.003009884 0)
(7.584567 0.003011514 0)
(7.584657 0.003012856 0)
(7.584747 0.003013938 0)
(7.584837 0.003014787 0)
(7.584925 0.003015424 0)
(7.585013 0.003015868 0)
(7.585101 0.003016137 0)
(7.585187 0.003016245 0)
(7.585274 0.003016204 0)
(7.58536 0.003016026 0)
(7.585446 0.003015719 0)
(7.585531 0.003015292 0)
(7.585616 0.00301475 0)
(7.585701 0.003014099 0)
(7.585786 0.003013343 0)
(7.585871 0.003012485 0)
(7.585955 0.003011527 0)
(7.58604 0.00301047 0)
(7.586124 0.003009313 0)
(7.586209 0.003008056 0)
(7.586294 0.003006696 0)
(7.586378 0.003005232 0)
(7.586463 0.003003657 0)
(7.586548 0.003001969 0)
(7.586634 0.00300016 0)
(7.586719 0.002998224 0)
(7.586805 0.002996151 0)
(7.586891 0.002993933 0)
(7.586978 0.002991559 0)
(7.587065 0.002989014 0)
(7.587152 0.002986286 0)
(7.58724 0.002983358 0)
(7.587329 0.002980212 0)
(7.587418 0.002976826 0)
(7.587508 0.002973177 0)
(7.587599 0.00296924 0)
(7.587691 0.002964983 0)
(7.587784 0.002960374 0)
(7.587878 0.002955374 0)
(7.587973 0.002949939 0)
(7.588069 0.002944019 0)
(7.588167 0.002937558 0)
(7.588267 0.00293049 0)
(7.588368 0.00292274 0)
(7.588472 0.002914219 0)
(7.588578 0.002904826 0)
(7.588686 0.002894441 0)
(7.588796 0.002882923 0)
(7.58891 0.002870105 0)
(7.589027 0.002855787 0)
(7.589148 0.002839729 0)
(7.589273 0.002821639 0)
(7.589403 0.002801158 0)
(7.589538 0.002777843 0)
(7.58968 0.00275114 0)
(7.589827 0.002720347 0)
(7.589983 0.002684564 0)
(7.590147 0.002642623 0)
(7.590322 0.002592986 0)
(7.590507 0.002533602 0)
(7.590705 0.002461697 0)
(7.590918 0.002373476 0)
(7.591145 0.002263693 0)
(7.591389 0.002125086 0)
(7.591647 0.001947615 0)
(7.591914 0.001717823 0)
(7.592181 0.001418384 0)
(7.592412 0.001030407 0)
(7.592611 0.0005443006 0)
(11.12519 0.0004176101 0)
(8.331544 0.0008655653 0)
(7.205876 0.001136275 0)
(7.505953 0.001323491 0)
(7.620091 0.001499819 0)
(7.588194 0.001651317 0)
(7.576903 0.001772877 0)
(7.58054 0.001873202 0)
(7.581889 0.001957877 0)
(7.581701 0.002029595 0)
(7.581752 0.002090725 0)
(7.581951 0.002143328 0)
(7.582114 0.002188976 0)
(7.582254 0.002228876 0)
(7.582392 0.002263994 0)
(7.582525 0.002295098 0)
(7.582653 0.002322805 0)
(7.582776 0.002347616 0)
(7.582895 0.002369939 0)
(7.583011 0.002390111 0)
(7.583124 0.002408409 0)
(7.583234 0.002425068 0)
(7.583341 0.002440284 0)
(7.583446 0.002454223 0)
(7.583548 0.002467028 0)
(7.583649 0.00247882 0)
(7.583748 0.002489705 0)
(7.583846 0.002499774 0)
(7.583942 0.002509105 0)
(7.584037 0.002517768 0)
(7.58413 0.002525824 0)
(7.584223 0.002533326 0)
(7.584314 0.002540322 0)
(7.584405 0.002546851 0)
(7.584495 0.002552952 0)
(7.584584 0.002558657 0)
(7.584673 0.002563994 0)
(7.584761 0.00256899 0)
(7.584848 0.002573666 0)
(7.584935 0.002578043 0)
(7.585022 0.002582138 0)
(7.585108 0.002585968 0)
(7.585194 0.002589544 0)
(7.58528 0.002592879 0)
(7.585366 0.002595983 0)
(7.585451 0.002598864 0)
(7.585536 0.002601528 0)
(7.585621 0.002603982 0)
(7.585706 0.002606229 0)
(7.585791 0.002608272 0)
(7.585876 0.002610112 0)
(7.585961 0.002611749 0)
(7.586046 0.002613182 0)
(7.586132 0.002614408 0)
(7.586217 0.002615423 0)
(7.586303 0.002616221 0)
(7.586389 0.002616795 0)
(7.586475 0.002617137 0)
(7.586561 0.002617237 0)
(7.586648 0.002617081 0)
(7.586735 0.002616656 0)
(7.586823 0.002615945 0)
(7.586911 0.002614929 0)
(7.587 0.002613587 0)
(7.587089 0.002611894 0)
(7.587179 0.002609823 0)
(7.58727 0.00260734 0)
(7.587362 0.002604411 0)
(7.587455 0.002600994 0)
(7.587549 0.002597042 0)
(7.587644 0.002592503 0)
(7.58774 0.002587315 0)
(7.587838 0.002581408 0)
(7.587937 0.002574703 0)
(7.588038 0.002567107 0)
(7.588141 0.002558513 0)
(7.588246 0.002548797 0)
(7.588353 0.002537814 0)
(7.588463 0.002525392 0)
(7.588575 0.002511331 0)
(7.588691 0.00249539 0)
(7.58881 0.002477283 0)
(7.588933 0.002456664 0)
(7.58906 0.002433113 0)
(7.589192 0.002406116 0)
(7.58933 0.002375037 0)
(7.589473 0.002339086 0)
(7.589623 0.002297265 0)
(7.58978 0.002248312 0)
(7.589945 0.002190611 0)
(7.590119 0.002122079 0)
(7.590302 0.002040017 0)
(7.590495 0.001940926 0)
(7.590698 0.001820287 0)
(7.59091 0.001672353 0)
(7.591127 0.001490046 0)
(7.591344 0.001265162 0)
(7.59155 0.0009896464 0)
(7.591721 0.0006571725 0)
(7.591863 0.0002751374 0)
(11.12557 0.000475841 0)
(8.331936 0.0009421358 0)
(7.206184 0.001255031 0)
(7.506187 0.001488037 0)
(7.620282 0.001691855 0)
(7.588344 0.001863504 0)
(7.577016 0.002002653 0)
(7.580623 0.002117321 0)
(7.581949 0.002213435 0)
(7.581741 0.002294422 0)
(7.581776 0.002363043 0)
(7.581961 0.002421609 0)
(7.582113 0.002471917 0)
(7.582244 0.002515365 0)
(7.582372 0.002553075 0)
(7.582498 0.002585949 0)
(7.582619 0.002614722 0)
(7.582737 0.002639992 0)
(7.582851 0.002662256 0)
(7.582962 0.002681922 0)
(7.583071 0.002699335 0)
(7.583177 0.002714784 0)
(7.58328 0.002728514 0)
(7.583382 0.002740732 0)
(7.583482 0.002751616 0)
(7.58358 0.002761319 0)
(7.583677 0.002769973 0)
(7.583772 0.002777692 0)
(7.583866 0.002784575 0)
(7.583959 0.002790708 0)
(7.58405 0.002796167 0)
(7.584141 0.002801017 0)
(7.584231 0.002805318 0)
(7.58432 0.002809119 0)
(7.584409 0.002812465 0)
(7.584497 0.002815397 0)
(7.584584 0.002817949 0)
(7.584671 0.002820151 0)
(7.584757 0.00282203 0)
(7.584843 0.00282361 0)
(7.584929 0.002824911 0)
(7.585014 0.002825952 0)
(7.585099 0.002826747 0)
(7.585184 0.00282731 0)
(7.585269 0.002827652 0)
(7.585353 0.002827781 0)
(7.585438 0.002827705 0)
(7.585522 0.002827429 0)
(7.585606 0.002826958 0)
(7.58569 0.002826292 0)
(7.585775 0.002825434 0)
(7.585859 0.002824381 0)
(7.585943 0.002823131 0)
(7.586028 0.00282168 0)
(7.586113 0.002820022 0)
(7.586198 0.002818149 0)
(7.586283 0.002816052 0)
(7.586368 0.00281372 0)
(7.586454 0.002811139 0)
(7.58654 0.002808293 0)
(7.586627 0.002805166 0)
(7.586714 0.002801736 0)
(7.586801 0.00279798 0)
(7.586889 0.002793872 0)
(7.586978 0.002789382 0)
(7.587068 0.002784475 0)
(7.587158 0.002779114 0)
(7.587249 0.002773255 0)
(7.587341 0.002766849 0)
(7.587434 0.00275984 0)
(7.587528 0.002752166 0)
(7.587623 0.002743754 0)
(7.587719 0.002734522 0)
(7.587818 0.002724377 0)
(7.587917 0.00271321 0)
(7.588019 0.002700898 0)
(7.588122 0.002687297 0)
(7.588228 0.002672239 0)
(7.588335 0.002655531 0)
(7.588446 0.002636942 0)
(7.588559 0.002616203 0)
(7.588676 0.002592994 0)
(7.588795 0.002566931 0)
(7.588919 0.002537555 0)
(7.589047 0.00250431 0)
(7.589179 0.00246652 0)
(7.589317 0.002423356 0)
(7.589459 0.002373798 0)
(7.589608 0.002316583 0)
(7.589763 0.002250138 0)
(7.589924 0.002172508 0)
(7.590092 0.002081258 0)
(7.590266 0.001973379 0)
(7.590445 0.001845201 0)
(7.590627 0.001692367 0)
(7.590809 0.001509956 0)
(7.590983 0.001292855 0)
(7.591142 0.001037018 0)
(7.591267 0.000740245 0)
(7.591367 0.0004108665 0)
(11.12564 0.0003522979 0)
(8.331964 0.0006974527 0)
(7.206105 0.0009284162 0)
(7.506066 0.00110907 0)
(7.620141 0.001274127 0)
(7.58818 0.001418802 0)
(7.576832 0.001541079 0)
(7.580425 0.001645511 0)
(7.581741 0.001735716 0)
(7.581525 0.001813821 0)
(7.581554 0.001881656 0)
(7.581735 0.001940861 0)
(7.581883 0.001992786 0)
(7.582011 0.002038531 0)
(7.582137 0.002079007 0)
(7.582262 0.002114972 0)
(7.582382 0.002147058 0)
(7.582499 0.002175791 0)
(7.582613 0.002201612 0)
(7.582724 0.002224894 0)
(7.582832 0.00224595 0)
(7.582938 0.002265048 0)
(7.583042 0.002282415 0)
(7.583144 0.002298247 0)
(7.583244 0.002312712 0)
(7.583343 0.002325956 0)
(7.58344 0.002338105 0)
(7.583536 0.002349267 0)
(7.58363 0.002359541 0)
(7.583724 0.002369008 0)
(7.583816 0.002377744 0)
(7.583907 0.002385813 0)
(7.583998 0.002393272 0)
(7.584088 0.002400172 0)
(7.584177 0.002406557 0)
(7.584265 0.002412468 0)
(7.584353 0.002417939 0)
(7.584441 0.002423001 0)
(7.584527 0.002427682 0)
(7.584614 0.002432005 0)
(7.5847 0.002435991 0)
(7.584786 0.002439659 0)
(7.584871 0.002443025 0)
(7.584957 0.002446101 0)
(7.585042 0.002448899 0)
(7.585127 0.002451429 0)
(7.585211 0.002453698 0)
(7.585296 0.002455711 0)
(7.585381 0.002457472 0)
(7.585465 0.002458983 0)
(7.58555 0.002460245 0)
(7.585635 0.002461255 0)
(7.58572 0.002462011 0)
(7.585804 0.002462507 0)
(7.585889 0.002462738 0)
(7.585975 0.002462693 0)
(7.58606 0.002462362 0)
(7.586146 0.002461732 0)
(7.586232 0.002460789 0)
(7.586318 0.002459514 0)
(7.586404 0.002457886 0)
(7.586492 0.002455884 0)
(7.586579 0.00245348 0)
(7.586667 0.002450644 0)
(7.586756 0.002447342 0)
(7.586845 0.002443535 0)
(7.586935 0.002439181 0)
(7.587026 0.002434231 0)
(7.587118 0.002428627 0)
(7.58721 0.002422309 0)
(7.587304 0.002415204 0)
(7.587399 0.002407232 0)
(7.587495 0.002398301 0)
(7.587592 0.002388306 0)
(7.587691 0.002377127 0)
(7.587791 0.002364626 0)
(7.587893 0.002350643 0)
(7.587998 0.002334997 0)
(7.588104 0.002317472 0)
(7.588212 0.002297821 0)
(7.588324 0.002275753 0)
(7.588437 0.002250924 0)
(7.588554 0.002222931 0)
(7.588674 0.002191291 0)
(7.588798 0.002155433 0)
(7.588925 0.002114668 0)
(7.589057 0.00206817 0)
(7.589193 0.002014943 0)
(7.589333 0.001953783 0)
(7.589478 0.001883236 0)
(7.589627 0.001801555 0)
(7.58978 0.001706656 0)
(7.589937 0.001596086 0)
(7.590095 0.00146704 0)
(7.590252 0.001316441 0)
(7.590405 0.001141185 0)
(7.590549 0.000938561 0)
(7.590676 0.0007072971 0)
(7.590773 0.0004478805 0)
(7.59085 0.0001681627 0)
(11.12585 0.0003481654 0)
(8.332175 0.000673014 0)
(7.206279 0.0009040796 0)
(7.506213 0.001101389 0)
(7.620272 0.001285653 0)
(7.588291 0.001449859 0)
(7.576923 0.001591834 0)
(7.580498 0.001715034 0)
(7.581798 0.001822453 0)
(7.581567 0.001916118 0)
(7.581584 0.001997889 0)
(7.581753 0.002069476 0)
(7.581891 0.002132338 0)
(7.582011 0.0021877 0)
(7.58213 0.002236601 0)
(7.582247 0.002279917 0)
(7.582361 0.00231839 0)
(7.582473 0.002352648 0)
(7.582581 0.002383223 0)
(7.582688 0.00241057 0)
(7.582792 0.002435076 0)
(7.582895 0.002457074 0)
(7.582995 0.002476852 0)
(7.583094 0.002494656 0)
(7.583191 0.002510702 0)
(7.583287 0.002525175 0)
(7.583382 0.002538241 0)
(7.583475 0.00255004 0)
(7.583568 0.002560698 0)
(7.583659 0.002570327 0)
(7.58375 0.002579021 0)
(7.583839 0.002586868 0)
(7.583928 0.002593944 0)
(7.584016 0.002600315 0)
(7.584104 0.00260604 0)
(7.584191 0.002611174 0)
(7.584278 0.002615763 0)
(7.584364 0.002619848 0)
(7.58445 0.002623465 0)
(7.584535 0.002626648 0)
(7.58462 0.002629425 0)
(7.584705 0.002631821 0)
(7.584789 0.002633857 0)
(7.584874 0.002635551 0)
(7.584958 0.002636921 0)
(7.585042 0.002637979 0)
(7.585126 0.002638736 0)
(7.58521 0.002639201 0)
(7.585294 0.002639379 0)
(7.585378 0.002639275 0)
(7.585461 0.002638891 0)
(7.585545 0.002638226 0)
(7.585629 0.002637278 0)
(7.585714 0.002636043 0)
(7.585798 0.002634515 0)
(7.585882 0.002632683 0)
(7.585967 0.002630537 0)
(7.586052 0.002628064 0)
(7.586137 0.002625247 0)
(7.586223 0.002622066 0)
(7.586309 0.0026185 0)
(7.586395 0.002614523 0)
(7.586482 0.002610106 0)
(7.586569 0.002605216 0)
(7.586657 0.002599815 0)
(7.586745 0.002593861 0)
(7.586834 0.002587306 0)
(7.586924 0.002580097 0)
(7.587015 0.002572171 0)
(7.587106 0.002563461 0)
(7.587199 0.002553888 0)
(7.587292 0.002543364 0)
(7.587387 0.002531789 0)
(7.587483 0.002519049 0)
(7.58758 0.002505015 0)
(7.587679 0.002489537 0)
(7.587779 0.002472447 0)
(7.587882 0.002453548 0)
(7.587986 0.002432616 0)
(7.588092 0.00240939 0)
(7.5882 0.002383567 0)
(7.58831 0.002354794 0)
(7.588424 0.002322658 0)
(7.588539 0.002286676 0)
(7.588658 0.002246278 0)
(7.58878 0.002200795 0)
(7.588905 0.002149434 0)
(7.589033 0.002091261 0)
(7.589165 0.002025176 0)
(7.589299 0.001949891 0)
(7.589436 0.001863904 0)
(7.589576 0.001765499 0)
(7.589716 0.00165275 0)
(7.589855 0.001523579 0)
(7.589991 0.001375874 0)
(7.590121 0.001207728 0)
(7.590239 0.001017779 0)
(7.590342 0.0008059558 0)
(7.590418 0.0005735218 0)
(7.590477 0.0003268364 0)
(11.12596 0.0002914079 0)
(8.332257 0.0005631427 0)
(7.206304 0.000754268 0)
(7.506211 0.0009189257 0)
(7.620251 0.001073691 0)
(7.588248 0.001212423 0)
(7.576859 0.001333477 0)
(7.580418 0.001439603 0)
(7.581705 0.001533058 0)
(7.581463 0.00161534 0)
(7.58147 0.001687845 0)
(7.581631 0.001751887 0)
(7.581763 0.001808599 0)
(7.581877 0.001858948 0)
(7.581992 0.001903767 0)
(7.582106 0.00194377 0)
(7.582217 0.001979568 0)
(7.582326 0.002011685 0)
(7.582433 0.00204057 0)
(7.582538 0.002066608 0)
(7.582641 0.002090133 0)
(7.582742 0.002111431 0)
(7.582842 0.00213075 0)
(7.582941 0.002148305 0)
(7.583037 0.002164285 0)
(7.583133 0.002178853 0)
(7.583228 0.002192152 0)
(7.583321 0.002204307 0)
(7.583413 0.002215428 0)
(7.583505 0.002225613 0)
(7.583595 0.002234947 0)
(7.583685 0.002243506 0)
(7.583774 0.002251356 0)
(7.583863 0.002258557 0)
(7.583951 0.00226516 0)
(7.584038 0.002271213 0)
(7.584125 0.002276756 0)
(7.584211 0.002281826 0)
(7.584297 0.002286454 0)
(7.584383 0.002290669 0)
(7.584468 0.002294495 0)
(7.584553 0.002297952 0)
(7.584638 0.00230106 0)
(7.584723 0.002303834 0)
(7.584807 0.002306287 0)
(7.584892 0.002308429 0)
(7.584976 0.002310269 0)
(7.58506 0.002311811 0)
(7.585144 0.002313061 0)
(7.585228 0.002314019 0)
(7.585312 0.002314685 0)
(7.585397 0.002315057 0)
(7.585481 0.002315129 0)
(7.585565 0.002314896 0)
(7.585649 0.002314347 0)
(7.585734 0.002313472 0)
(7.585819 0.002312256 0)
(7.585904 0.002310684 0)
(7.585989 0.002308735 0)
(7.586075 0.002306389 0)
(7.586161 0.002303619 0)
(7.586247 0.002300396 0)
(7.586333 0.002296689 0)
(7.586421 0.002292461 0)
(7.586508 0.002287669 0)
(7.586596 0.002282267 0)
(7.586685 0.002276203 0)
(7.586775 0.002269417 0)
(7.586865 0.002261844 0)
(7.586956 0.002253409 0)
(7.587048 0.002244027 0)
(7.587141 0.002233605 0)
(7.587234 0.002222035 0)
(7.587329 0.002209196 0)
(7.587425 0.002194951 0)
(7.587523 0.002179144 0)
(7.587622 0.002161598 0)
(7.587722 0.002142108 0)
(7.587824 0.002120443 0)
(7.587928 0.002096336 0)
(7.588033 0.00206948 0)
(7.588141 0.002039521 0)
(7.588251 0.00200605 0)
(7.588363 0.001968592 0)
(7.588477 0.001926599 0)
(7.588593 0.001879434 0)
(7.588712 0.00182636 0)
(7.588833 0.001766526 0)
(7.588956 0.001698957 0)
(7.589081 0.001622539 0)
(7.589208 0.001536025 0)
(7.589334 0.001438042 0)
(7.58946 0.001327126 0)
(7.589583 0.001201801 0)
(7.589702 0.001060698 0)
(7.589813 0.0009027643 0)
(7.589912 0.0007275296 0)
(7.589997 0.0005356093 0)
(7.59006 0.0003286117 0)
(7.590108 0.0001116304 0)
(11.1261 0.0002744034 0)
(8.332391 0.0005244449 0)
(7.20641 0.0007046464 0)
(7.506304 0.0008673068 0)
(7.620335 0.001024522 0)
(7.588321 0.001169237 0)
(7.57692 0.001299143 0)
(7.580468 0.001415864 0)
(7.581744 0.001520773 0)
(7.581493 0.001614808 0)
(7.581491 0.001698981 0)
(7.581644 0.001774337 0)
(7.581769 0.001841843 0)
(7.581877 0.001902369 0)
(7.581985 0.001956699 0)
(7.582094 0.002005532 0)
(7.5822 0.002049485 0)
(7.582305 0.0020891 0)
(7.582407 0.002124857 0)
(7.582509 0.002157174 0)
(7.582608 0.00218642 0)
(7.582707 0.002212918 0)
(7.582803 0.002236952 0)
(7.582899 0.002258773 0)
(7.582993 0.0022786 0)
(7.583087 0.00229663 0)
(7.583179 0.002313035 0)
(7.58327 0.002327967 0)
(7.583361 0.002341563 0)
(7.58345 0.002353942 0)
(7.583539 0.002365212 0)
(7.583628 0.002375468 0)
(7.583715 0.002384797 0)
(7.583802 0.002393273 0)
(7.583889 0.002400965 0)
(7.583975 0.002407934 0)
(7.584061 0.002414233 0)
(7.584146 0.002419911 0)
(7.584231 0.00242501 0)
(7.584315 0.002429569 0)
(7.5844 0.002433621 0)
(7.584484 0.002437196 0)
(7.584568 0.002440319 0)
(7.584652 0.002443014 0)
(7.584735 0.002445298 0)
(7.584819 0.002447189 0)
(7.584902 0.002448699 0)
(7.584986 0.002449839 0)
(7.585069 0.002450617 0)
(7.585152 0.002451038 0)
(7.585236 0.002451104 0)
(7.585319 0.002450817 0)
(7.585403 0.002450173 0)
(7.585486 0.002449168 0)
(7.58557 0.002447795 0)
(7.585654 0.002446043 0)
(7.585738 0.002443899 0)
(7.585822 0.002441349 0)
(7.585907 0.002438372 0)
(7.585991 0.002434947 0)
(7.586077 0.002431048 0)
(7.586162 0.002426646 0)
(7.586248 0.002421707 0)
(7.586334 0.002416193 0)
(7.586421 0.002410061 0)
(7.586508 0.002403262 0)
(7.586596 0.002395741 0)
(7.586684 0.002387438 0)
(7.586773 0.002378282 0)
(7.586863 0.002368196 0)
(7.586954 0.002357092 0)
(7.587045 0.002344872 0)
(7.587138 0.002331426 0)
(7.587231 0.002316628 0)
(7.587325 0.002300336 0)
(7.587421 0.002282392 0)
(7.587518 0.002262613 0)
(7.587616 0.002240796 0)
(7.587715 0.002216705 0)
(7.587816 0.002190075 0)
(7.587919 0.002160604 0)
(7.588023 0.002127943 0)
(7.588128 0.002091699 0)
(7.588236 0.002051418 0)
(7.588345 0.002006585 0)
(7.588456 0.001956611 0)
(7.588568 0.001900828 0)
(7.588682 0.001838482 0)
(7.588797 0.001768728 0)
(7.588913 0.001690632 0)
(7.589029 0.001603183 0)
(7.589143 0.00150531 0)
(7.589256 0.001395935 0)
(7.589365 0.001274039 0)
(7.589469 0.001138775 0)
(7.589565 0.0009896346 0)
(7.589649 0.0008266255 0)
(7.58972 0.0006506126 0)
(7.589772 0.0004631631 0)
(7.589811 0.0002683029 0)
(11.1262 0.000242806 0)
(8.332477 0.000463044 0)
(7.206463 0.0006210548 0)
(7.506341 0.0007646072 0)
(7.620361 0.0009036411 0)
(7.588331 0.00103166 0)
(7.576915 0.0011467 0)
(7.580448 0.001250183 0)
(7.581712 0.001343273 0)
(7.58145 0.001426767 0)
(7.581438 0.001501537 0)
(7.581583 0.001568494 0)
(7.5817 0.001628479 0)
(7.581801 0.001682256 0)
(7.581904 0.001730515 0)
(7.582007 0.001773875 0)
(7.582109 0.001812883 0)
(7.58221 0.001848024 0)
(7.58231 0.001879726 0)
(7.582408 0.001908365 0)
(7.582506 0.00193427 0)
(7.582602 0.001957733 0)
(7.582697 0.00197901 0)
(7.582791 0.001998327 0)
(7.582884 0.002015882 0)
(7.582977 0.00203185 0)
(7.583068 0.002046386 0)
(7.583159 0.002059628 0)
(7.583249 0.002071697 0)
(7.583338 0.002082701 0)
(7.583426 0.002092735 0)
(7.583514 0.002101884 0)
(7.583602 0.002110224 0)
(7.583688 0.002117822 0)
(7.583775 0.002124738 0)
(7.583861 0.002131024 0)
(7.583946 0.002136728 0)
(7.584032 0.00214189 0)
(7.584117 0.002146548 0)
(7.584201 0.002150734 0)
(7.584286 0.002154476 0)
(7.58437 0.002157798 0)
(7.584454 0.002160723 0)
(7.584538 0.002163266 0)
(7.584622 0.002165444 0)
(7.584705 0.002167269 0)
(7.584789 0.002168749 0)
(7.584872 0.002169891 0)
(7.584956 0.002170701 0)
(7.585039 0.002171178 0)
(7.585122 0.002171324 0)
(7.585206 0.002171134 0)
(7.585289 0.002170603 0)
(7.585373 0.002169724 0)
(7.585457 0.002168485 0)
(7.585541 0.002166874 0)
(7.585625 0.002164874 0)
(7.585709 0.002162467 0)
(7.585793 0.00215963 0)
(7.585878 0.002156338 0)
(7.585963 0.002152562 0)
(7.586048 0.00214827 0)
(7.586134 0.002143425 0)
(7.58622 0.002137984 0)
(7.586306 0.002131901 0)
(7.586393 0.002125124 0)
(7.58648 0.002117594 0)
(7.586568 0.002109246 0)
(7.586657 0.002100007 0)
(7.586746 0.002089794 0)
(7.586836 0.002078518 0)
(7.586926 0.002066075 0)
(7.587017 0.002052351 0)
(7.58711 0.002037217 0)
(7.587203 0.002020529 0)
(7.587297 0.002002125 0)
(7.587392 0.001981823 0)
(7.587488 0.001959417 0)
(7.587585 0.001934676 0)
(7.587683 0.001907337 0)
(7.587783 0.001877106 0)
(7.587884 0.00184365 0)
(7.587986 0.001806592 0)
(7.588089 0.001765508 0)
(7.588194 0.001719921 0)
(7.5883 0.001669297 0)
(7.588406 0.001613042 0)
(7.588513 0.001550498 0)
(7.588621 0.001480948 0)
(7.588728 0.001403624 0)
(7.588835 0.001317719 0)
(7.58894 0.001222421 0)
(7.589041 0.001116954 0)
(7.589139 0.001000647 0)
(7.58923 0.0008730251 0)
(7.589314 0.0007339319 0)
(7.589387 0.0005836563 0)
(7.589447 0.0004231524 0)
(7.589491 0.0002538689 0)
(7.589524 7.901266e-05 0)
(11.12631 0.0002253459 0)
(8.332575 0.0004273481 0)
(7.206539 0.0005738218 0)
(7.506409 0.0007100626 0)
(7.620424 0.0008443049 0)
(7.588386 0.0009702453 0)
(7.57696 0.001085837 0)
(7.580486 0.001191972 0)
(7.581742 0.001289307 0)
(7.581473 0.001378234 0)
(7.581454 0.001459276 0)
(7.581593 0.001533049 0)
(7.581705 0.001600159 0)
(7.5818 0.001661188 0)
(7.581899 0.001716687 0)
(7.581998 0.001767171 0)
(7.582096 0.001813112 0)
(7.582193 0.001854945 0)
(7.58229 0.001893059 0)
(7.582385 0.00192781 0)
(7.58248 0.001959515 0)
(7.582574 0.001988462 0)
(7.582666 0.002014908 0)
(7.582758 0.002039083 0)
(7.582849 0.002061193 0)
(7.58294 0.002081425 0)
(7.583029 0.002099944 0)
(7.583118 0.0021169 0)
(7.583206 0.002132426 0)
(7.583294 0.002146643 0)
(7.583381 0.002159659 0)
(7.583468 0.002171571 0)
(7.583554 0.002182467 0)
(7.58364 0.002192423 0)
(7.583725 0.002201513 0)
(7.58381 0.002209797 0)
(7.583895 0.002217334 0)
(7.583979 0.002224174 0)
(7.584063 0.002230363 0)
(7.584147 0.002235941 0)
(7.58423 0.002240944 0)
(7.584314 0.002245403 0)
(7.584397 0.002249347 0)
(7.58448 0.0022528 0)
(7.584563 0.002255782 0)
(7.584646 0.00225831 0)
(7.584729 0.0022604 0)
(7.584811 0.002262062 0)
(7.584894 0.002263305 0)
(7.584977 0.002264135 0)
(7.58506 0.002264554 0)
(7.585142 0.002264562 0)
(7.585225 0.002264158 0)
(7.585308 0.002263334 0)
(7.585391 0.002262084 0)
(7.585474 0.002260396 0)
(7.585558 0.002258256 0)
(7.585641 0.002255645 0)
(7.585725 0.002252544 0)
(7.585809 0.002248928 0)
(7.585893 0.002244768 0)
(7.585977 0.002240033 0)
(7.586062 0.002234685 0)
(7.586147 0.002228684 0)
(7.586233 0.002221981 0)
(7.586319 0.002214525 0)
(7.586405 0.002206256 0)
(7.586492 0.002197109 0)
(7.586579 0.00218701 0)
(7.586667 0.002175876 0)
(7.586755 0.002163616 0)
(7.586844 0.002150126 0)