/*--------------------------------*- C++ -*----------------------------------*\
| =========                 |                                                 |
| \\      /  F ield         | OpenFOAM: The Open Source CFD Toolbox           |
|  \\    /   O peration     | Version:  2.3.0                                 |
|   \\  /    A nd           | Web:      www.OpenFOAM.org                      |
|    \\/     M anipulation  |                                                 |
\*---------------------------------------------------------------------------*/
FoamFile
{
    version     2.0;
    format      ascii;
    class       volVectorField;
    location    "10000/topAir";
    object      U;
}
// * * * * * * * * * * * * * * * * * * * * * * * * * * * * * * * * * * * * * //

dimensions      [0 1 -1 0 0 0 0];

internalField   nonuniform List<vector> 
4000
(
(12.12499 0.003208652 0)
(9.077188 0.003383344 0)
(7.846349 0.002828726 0)
(8.170632 0.00277464 0)
(8.292281 0.002828767 0)
(8.254488 0.002848479 0)
(8.239125 0.002864694 0)
(8.240053 0.002886528 0)
(8.238477 0.002908034 0)
(8.23521 0.002927296 0)
(8.232199 0.002944637 0)
(8.229344 0.002960243 0)
(8.226448 0.002974198 0)
(8.223524 0.002986655 0)
(8.220595 0.002997782 0)
(8.217661 0.003007734 0)
(8.21472 0.003016645 0)
(8.211774 0.003024632 0)
(8.208824 0.003031799 0)
(8.205869 0.003038236 0)
(8.202912 0.00304402 0)
(8.199952 0.003049218 0)
(8.196989 0.003053889 0)
(8.194025 0.003058084 0)
(8.191059 0.003061848 0)
(8.188091 0.00306522 0)
(8.185123 0.003068235 0)
(8.182153 0.003070924 0)
(8.179182 0.003073313 0)
(8.176211 0.003075428 0)
(8.17324 0.00307729 0)
(8.170268 0.003078917 0)
(8.167296 0.003080329 0)
(8.164324 0.00308154 0)
(8.161352 0.003082564 0)
(8.15838 0.003083415 0)
(8.155409 0.003084103 0)
(8.152438 0.00308464 0)
(8.149467 0.003085035 0)
(8.146496 0.003085296 0)
(8.143526 0.003085431 0)
(8.140557 0.003085448 0)
(8.137588 0.003085353 0)
(8.134621 0.003085152 0)
(8.131653 0.003084849 0)
(8.128687 0.003084451 0)
(8.125721 0.003083962 0)
(8.122757 0.003083385 0)
(8.119793 0.003082724 0)
(8.11683 0.003081982 0)
(8.113869 0.003081162 0)
(8.110908 0.003080267 0)
(8.107949 0.003079299 0)
(8.10499 0.003078259 0)
(8.102033 0.00307715 0)
(8.099077 0.003075972 0)
(8.096123 0.003074726 0)
(8.09317 0.003073413 0)
(8.090218 0.003072034 0)
(8.087268 0.003070588 0)
(8.084319 0.003069074 0)
(8.081372 0.003067492 0)
(8.078427 0.003065841 0)
(8.075483 0.003064119 0)
(8.072541 0.003062324 0)
(8.069602 0.003060454 0)
(8.066664 0.003058505 0)
(8.063728 0.003056473 0)
(8.060795 0.003054355 0)
(8.057864 0.003052143 0)
(8.054935 0.003049834 0)
(8.05201 0.003047418 0)
(8.049087 0.003044887 0)
(8.046167 0.003042231 0)
(8.04325 0.003039439 0)
(8.040337 0.003036494 0)
(8.037428 0.003033382 0)
(8.034523 0.003030082 0)
(8.031623 0.00302657 0)
(8.028727 0.003022818 0)
(8.025837 0.00301879 0)
(8.022953 0.003014445 0)
(8.020075 0.003009729 0)
(8.017205 0.003004577 0)
(8.014343 0.002998907 0)
(8.011491 0.002992612 0)
(8.00865 0.002985553 0)
(8.00582 0.002977545 0)
(8.003006 0.002968334 0)
(8.000208 0.002957563 0)
(7.997432 0.002944709 0)
(7.99468 0.00292897 0)
(7.99196 0.00290905 0)
(7.989282 0.002882711 0)
(7.986658 0.002845884 0)
(7.984112 0.002790382 0)
(7.981685 0.002700253 0)
(7.979432 0.002535201 0)
(7.977571 0.002230772 0)
(7.976006 0.001497952 0)
(12.13244 0.002776861 0)
(9.087219 0.003680532 0)
(7.860657 0.003311009 0)
(8.18785 0.003270859 0)
(8.31242 0.003381947 0)
(8.27779 0.003440558 0)
(8.265548 0.003472391 0)
(8.269547 0.003501339 0)
(8.271042 0.003525333 0)
(8.270849 0.003543356 0)
(8.270907 0.003557068 0)
(8.271119 0.003567666 0)
(8.271286 0.003575809 0)
(8.271424 0.003582019 0)
(8.271554 0.003586719 0)
(8.271676 0.003590232 0)
(8.271789 0.0035928 0)
(8.271895 0.003594612 0)
(8.271993 0.003595817 0)
(8.272085 0.003596529 0)
(8.272172 0.00359684 0)
(8.272252 0.003596824 0)
(8.272328 0.003596539 0)
(8.272399 0.003596034 0)
(8.272466 0.003595347 0)
(8.272529 0.003594509 0)
(8.272587 0.003593548 0)
(8.272643 0.003592484 0)
(8.272694 0.003591336 0)
(8.272743 0.003590118 0)
(8.272788 0.003588843 0)
(8.27283 0.003587522 0)
(8.272869 0.003586162 0)
(8.272906 0.003584772 0)
(8.27294 0.003583357 0)
(8.272971 0.003581922 0)
(8.273 0.003580471 0)
(8.273026 0.003579007 0)
(8.27305 0.003577533 0)
(8.273072 0.00357605 0)
(8.273092 0.003574561 0)
(8.273109 0.003573065 0)
(8.273125 0.003571564 0)
(8.273138 0.003570057 0)
(8.27315 0.003568544 0)
(8.273159 0.003567025 0)
(8.273167 0.003565498 0)
(8.273173 0.003563962 0)
(8.273177 0.003562415 0)
(8.273179 0.003560855 0)
(8.27318 0.003559279 0)
(8.273179 0.003557686 0)
(8.273177 0.003556072 0)
(8.273173 0.003554432 0)
(8.273167 0.003552765 0)
(8.27316 0.003551064 0)
(8.273152 0.003549325 0)
(8.273142 0.003547542 0)
(8.273132 0.00354571 0)
(8.27312 0.003543822 0)
(8.273106 0.003541871 0)
(8.273092 0.003539848 0)
(8.273077 0.003537745 0)
(8.273061 0.00353555 0)
(8.273043 0.003533254 0)
(8.273026 0.003530843 0)
(8.273007 0.003528303 0)
(8.272988 0.003525619 0)
(8.272969 0.003522772 0)
(8.272949 0.003519743 0)
(8.272929 0.003516509 0)
(8.27291 0.003513044 0)
(8.27289 0.003509317 0)
(8.272871 0.003505296 0)
(8.272852 0.00350094 0)
(8.272834 0.003496204 0)
(8.272818 0.003491033 0)
(8.272803 0.003485366 0)
(8.272789 0.003479128 0)
(8.272778 0.00347223 0)
(8.27277 0.003464565 0)
(8.272764 0.003456002 0)
(8.272763 0.003446384 0)
(8.272766 0.003435512 0)
(8.272775 0.003423136 0)
(8.272791 0.003408941 0)
(8.272814 0.003392516 0)
(8.272846 0.003373317 0)
(8.27289 0.003350613 0)
(8.272948 0.003323394 0)
(8.273022 0.003290225 0)
(8.273117 0.003249002 0)
(8.273238 0.003196532 0)
(8.273392 0.003127747 0)
(8.273586 0.003034318 0)
(8.273832 0.002901549 0)
(8.274142 0.002703894 0)
(8.274524 0.002386785 0)
(8.274958 0.001869237 0)
(8.275431 0.0008478776 0)
(12.13007 9.215991e-05 0)
(9.084761 0.001150406 0)
(7.857475 0.001588907 0)
(8.184765 0.001834076 0)
(8.309373 0.002063713 0)
(8.274695 0.002230606 0)
(8.26244 0.00234893 0)
(8.266448 0.002442592 0)
(8.267956 0.002519036 0)
(8.26778 0.002581777 0)
(8.26786 0.002634291 0)
(8.268096 0.002679076 0)
(8.268292 0.00271777 0)
(8.268459 0.002751561 0)
(8.268622 0.002781355 0)
(8.268779 0.00280784 0)
(8.268929 0.002831552 0)
(8.269072 0.002852913 0)
(8.269211 0.002872261 0)
(8.269345 0.002889872 0)
(8.269475 0.002905972 0)
(8.269602 0.002920748 0)
(8.269725 0.002934358 0)
(8.269845 0.002946935 0)
(8.269963 0.002958592 0)
(8.270078 0.002969426 0)
(8.270192 0.002979521 0)
(8.270303 0.002988949 0)
(8.270412 0.002997774 0)
(8.27052 0.003006049 0)
(8.270627 0.003013825 0)
(8.270732 0.003021144 0)
(8.270836 0.003028043 0)
(8.270939 0.003034556 0)
(8.271041 0.003040713 0)
(8.271142 0.00304654 0)
(8.271243 0.00305206 0)
(8.271342 0.003057295 0)
(8.271441 0.003062263 0)
(8.27154 0.003066981 0)
(8.271637 0.003071463 0)
(8.271735 0.003075722 0)
(8.271832 0.003079771 0)
(8.271929 0.003083618 0)
(8.272025 0.003087274 0)
(8.272121 0.003090745 0)
(8.272217 0.003094038 0)
(8.272313 0.003097158 0)
(8.272408 0.00310011 0)
(8.272504 0.003102898 0)
(8.272599 0.003105523 0)
(8.272695 0.003107986 0)
(8.272791 0.00311029 0)
(8.272886 0.003112432 0)
(8.272982 0.003114411 0)
(8.273078 0.003116226 0)
(8.273174 0.003117872 0)
(8.273271 0.003119344 0)
(8.273367 0.003120637 0)
(8.273464 0.003121744 0)
(8.273562 0.003122656 0)
(8.27366 0.003123364 0)
(8.273759 0.003123854 0)
(8.273858 0.003124115 0)
(8.273958 0.00312413 0)
(8.274059 0.003123882 0)
(8.274161 0.00312335 0)
(8.274263 0.003122511 0)
(8.274367 0.003121338 0)
(8.274472 0.0031198 0)
(8.274578 0.003117863 0)
(8.274686 0.003115487 0)
(8.274795 0.003112624 0)
(8.274907 0.003109221 0)
(8.27502 0.003105216 0)
(8.275135 0.003100537 0)
(8.275254 0.003095097 0)
(8.275374 0.003088798 0)
(8.275498 0.00308152 0)
(8.275626 0.003073122 0)
(8.275757 0.003063434 0)
(8.275893 0.00305225 0)
(8.276034 0.003039317 0)
(8.27618 0.003024324 0)
(8.276333 0.00300688 0)
(8.276493 0.002986493 0)
(8.276661 0.002962527 0)
(8.276839 0.002934157 0)
(8.277028 0.002900286 0)
(8.277231 0.002859432 0)
(8.277448 0.002809552 0)
(8.277683 0.002747771 0)
(8.27794 0.002669957 0)
(8.278221 0.002570052 0)
(8.278532 0.002439058 0)
(8.278875 0.002263401 0)
(8.279252 0.002023145 0)
(8.279659 0.001688542 0)
(8.280058 0.001223815 0)
(8.280436 0.0005884722 0)
(12.13109 0.0009085579 0)
(9.085643 0.001791994 0)
(7.857898 0.002186279 0)
(8.184998 0.002388088 0)
(8.309545 0.002572887 0)
(8.274805 0.002721439 0)
(8.262502 0.002831146 0)
(8.266479 0.002917647 0)
(8.267963 0.002988412 0)
(8.267768 0.003046432 0)
(8.267832 0.003094367 0)
(8.268055 0.003134406 0)
(8.268239 0.003168113 0)
(8.268396 0.003196662 0)
(8.26855 0.003220975 0)
(8.268699 0.003241783 0)
(8.268842 0.003259665 0)
(8.26898 0.003275086 0)
(8.269113 0.003288426 0)
(8.269242 0.003299993 0)
(8.269367 0.003310043 0)
(8.269489 0.003318786 0)
(8.269608 0.0033264 0)
(8.269724 0.003333033 0)
(8.269838 0.00333881 0)
(8.26995 0.003343838 0)
(8.27006 0.003348207 0)
(8.270169 0.003351995 0)
(8.270275 0.003355269 0)
(8.270381 0.003358086 0)
(8.270485 0.003360497 0)
(8.270588 0.003362545 0)
(8.270689 0.003364267 0)
(8.27079 0.003365696 0)
(8.27089 0.003366861 0)
(8.270989 0.003367786 0)
(8.271088 0.003368494 0)
(8.271186 0.003369003 0)
(8.271283 0.00336933 0)
(8.27138 0.003369488 0)
(8.271477 0.003369491 0)
(8.271573 0.003369348 0)
(8.271668 0.003369067 0)
(8.271764 0.003368658 0)
(8.271859 0.003368124 0)
(8.271954 0.003367472 0)
(8.272049 0.003366703 0)
(8.272144 0.003365821 0)
(8.272239 0.003364826 0)
(8.272334 0.003363719 0)
(8.272428 0.003362498 0)
(8.272523 0.003361161 0)
(8.272618 0.003359705 0)
(8.272714 0.003358126 0)
(8.272809 0.003356417 0)
(8.272905 0.003354573 0)
(8.273 0.003352584 0)
(8.273097 0.003350443 0)
(8.273193 0.003348137 0)
(8.27329 0.003345654 0)
(8.273388 0.003342981 0)
(8.273486 0.003340101 0)
(8.273585 0.003336995 0)
(8.273684 0.003333645 0)
(8.273784 0.003330025 0)
(8.273886 0.00332611 0)
(8.273987 0.00332187 0)
(8.27409 0.003317272 0)
(8.274195 0.003312278 0)
(8.2743 0.003306845 0)
(8.274407 0.003300924 0)
(8.274515 0.003294458 0)
(8.274625 0.003287385 0)
(8.274737 0.003279631 0)
(8.274851 0.003271111 0)
(8.274967 0.003261726 0)
(8.275085 0.003251362 0)
(8.275207 0.003239886 0)
(8.275331 0.003227139 0)
(8.275459 0.003212933 0)
(8.27559 0.003197044 0)
(8.275726 0.003179202 0)
(8.275867 0.003159081 0)
(8.276012 0.003136277 0)
(8.276164 0.003110294 0)
(8.276323 0.003080509 0)
(8.276489 0.003046135 0)
(8.276663 0.003006162 0)
(8.276848 0.002959278 0)
(8.277043 0.00290376 0)
(8.277252 0.002837303 0)
(8.277474 0.002756793 0)
(8.277713 0.002657969 0)
(8.277969 0.002534943 0)
(8.278242 0.002379557 0)
(8.278532 0.002180538 0)
(8.278832 0.001922767 0)
(8.279131 0.001586782 0)
(8.27939 0.001151355 0)
(8.279614 0.0006057016 0)
(12.13104 0.0004679549 0)
(9.085505 0.0009688533 0)
(7.85758 0.001273046 0)
(8.184658 0.001484239 0)
(8.309214 0.001682619 0)
(8.274458 0.001852936 0)
(8.262139 0.001989659 0)
(8.266107 0.00210247 0)
(8.267586 0.002197625 0)
(8.267385 0.002278181 0)
(8.267446 0.002346815 0)
(8.267667 0.002405848 0)
(8.267849 0.002457053 0)
(8.268006 0.002501794 0)
(8.268159 0.002541159 0)
(8.268308 0.002576013 0)
(8.268451 0.002607055 0)
(8.268589 0.002634846 0)
(8.268723 0.002659846 0)
(8.268853 0.002682434 0)
(8.268979 0.002702923 0)
(8.269101 0.002721577 0)
(8.269221 0.002738615 0)
(8.269339 0.002754226 0)
(8.269454 0.002768568 0)
(8.269566 0.002781778 0)
(8.269677 0.002793974 0)
(8.269786 0.002805259 0)
(8.269894 0.00281572 0)
(8.27 0.002825437 0)
(8.270105 0.002834476 0)
(8.270209 0.002842897 0)
(8.270311 0.002850753 0)
(8.270413 0.00285809 0)
(8.270513 0.00286495 0)
(8.270613 0.002871369 0)
(8.270713 0.002877378 0)
(8.270811 0.002883008 0)
(8.270909 0.002888282 0)
(8.271007 0.002893223 0)
(8.271104 0.002897851 0)
(8.2712 0.002902183 0)
(8.271297 0.002906234 0)
(8.271393 0.002910017 0)
(8.271489 0.002913543 0)
(8.271584 0.002916821 0)
(8.27168 0.002919858 0)
(8.271775 0.002922662 0)
(8.27187 0.002925235 0)
(8.271965 0.002927581 0)
(8.272061 0.002929702 0)
(8.272156 0.002931597 0)
(8.272251 0.002933264 0)
(8.272347 0.002934702 0)
(8.272443 0.002935904 0)
(8.272539 0.002936865 0)
(8.272635 0.002937576 0)
(8.272731 0.002938029 0)
(8.272828 0.00293821 0)
(8.272926 0.002938107 0)
(8.273023 0.002937703 0)
(8.273122 0.00293698 0)
(8.273221 0.002935917 0)
(8.27332 0.002934489 0)
(8.27342 0.002932668 0)
(8.273521 0.002930424 0)
(8.273623 0.00292772 0)
(8.273726 0.002924517 0)
(8.27383 0.002920767 0)
(8.273936 0.002916419 0)
(8.274042 0.002911412 0)
(8.27415 0.002905678 0)
(8.27426 0.00289914 0)
(8.274371 0.002891707 0)
(8.274485 0.002883276 0)
(8.2746 0.002873726 0)
(8.274718 0.002862918 0)
(8.274838 0.002850689 0)
(8.274961 0.002836847 0)
(8.275087 0.002821166 0)
(8.275217 0.002803378 0)
(8.275351 0.00278316 0)
(8.275489 0.002760125 0)
(8.275632 0.0027338 0)
(8.27578 0.002703609 0)
(8.275934 0.002668839 0)
(8.276095 0.002628601 0)
(8.276263 0.002581778 0)
(8.276439 0.002526951 0)
(8.276625 0.002462306 0)
(8.27682 0.002385505 0)
(8.277026 0.002293517 0)
(8.277243 0.002182414 0)
(8.277471 0.002047121 0)
(8.277708 0.001881184 0)
(8.277952 0.001676652 0)
(8.278195 0.001424315 0)
(8.278427 0.001115127 0)
(8.278619 0.0007419864 0)
(8.278778 0.000313217 0)
(12.13145 0.0005310185 0)
(9.08594 0.001051554 0)
(7.85792 0.001400987 0)
(8.184915 0.001661146 0)
(8.309422 0.001888485 0)
(8.27462 0.002079842 0)
(8.262259 0.002234953 0)
(8.266195 0.002362773 0)
(8.267647 0.002469916 0)
(8.267425 0.002560217 0)
(8.267468 0.002636758 0)
(8.267674 0.002702114 0)
(8.267843 0.002758284 0)
(8.267989 0.002806826 0)
(8.268133 0.002848986 0)
(8.268274 0.002885768 0)
(8.26841 0.002917989 0)
(8.268542 0.002946314 0)
(8.26867 0.002971293 0)
(8.268794 0.002993382 0)
(8.268916 0.003012964 0)
(8.269034 0.003030359 0)
(8.26915 0.003045839 0)
(8.269264 0.003059636 0)
(8.269376 0.003071947 0)
(8.269486 0.003082942 0)
(8.269594 0.003092767 0)
(8.269701 0.00310155 0)
(8.269806 0.0031094 0)
(8.26991 0.003116414 0)
(8.270013 0.003122675 0)
(8.270115 0.003128258 0)
(8.270216 0.003133227 0)
(8.270316 0.003137638 0)
(8.270415 0.003141541 0)
(8.270513 0.003144981 0)
(8.270611 0.003147995 0)
(8.270708 0.00315062 0)
(8.270805 0.003152883 0)
(8.270901 0.003154811 0)
(8.270997 0.003156428 0)
(8.271093 0.003157753 0)
(8.271188 0.003158803 0)
(8.271283 0.003159593 0)
(8.271378 0.003160134 0)
(8.271473 0.003160438 0)
(8.271567 0.003160512 0)
(8.271662 0.003160363 0)
(8.271756 0.003159993 0)
(8.271851 0.003159407 0)
(8.271945 0.003158603 0)
(8.27204 0.003157582 0)
(8.272134 0.003156339 0)
(8.272229 0.003154871 0)
(8.272324 0.003153171 0)
(8.272419 0.003151229 0)
(8.272515 0.003149036 0)
(8.272611 0.003146579 0)
(8.272707 0.003143843 0)
(8.272804 0.00314081 0)
(8.272901 0.003137461 0)
(8.272998 0.003133772 0)
(8.273096 0.003129717 0)
(8.273195 0.003125267 0)
(8.273295 0.003120388 0)
(8.273395 0.003115042 0)
(8.273496 0.003109186 0)
(8.273598 0.003102771 0)
(8.273701 0.003095742 0)
(8.273805 0.003088037 0)
(8.273911 0.003079585 0)
(8.274018 0.003070305 0)
(8.274126 0.003060105 0)
(8.274236 0.003048881 0)
(8.274348 0.00303651 0)
(8.274462 0.003022854 0)
(8.274578 0.003007751 0)
(8.274696 0.002991015 0)
(8.274817 0.002972425 0)
(8.274941 0.002951726 0)
(8.275068 0.002928614 0)
(8.275199 0.00290273 0)
(8.275333 0.002873644 0)
(8.275472 0.00284084 0)
(8.275616 0.002803695 0)
(8.275764 0.002761449 0)
(8.275918 0.002713172 0)
(8.276079 0.00265772 0)
(8.276246 0.002593672 0)
(8.276419 0.002519267 0)
(8.2766 0.002432307 0)
(8.276789 0.002330059 0)
(8.276984 0.002209144 0)
(8.277185 0.002065442 0)
(8.27739 0.001894059 0)
(8.277594 0.00168947 0)
(8.277789 0.001445934 0)
(8.277968 0.001158903 0)
(8.278108 0.0008259086 0)
(8.27822 0.0004563019 0)
(12.13154 0.0003941955 0)
(9.085973 0.0007802568 0)
(7.857835 0.001038864 0)
(8.184783 0.001241434 0)
(8.309268 0.001426581 0)
(8.274441 0.001588928 0)
(8.262058 0.001726223 0)
(8.265978 0.001843536 0)
(8.267419 0.001944895 0)
(8.267188 0.002032679 0)
(8.267223 0.002108934 0)
(8.267424 0.002175498 0)
(8.267589 0.002233882 0)
(8.267733 0.002285321 0)
(8.267874 0.002330838 0)
(8.268013 0.002371286 0)
(8.268148 0.002407373 0)
(8.268279 0.00243969 0)
(8.268406 0.002468735 0)
(8.26853 0.002494925 0)
(8.268652 0.002518615 0)
(8.26877 0.002540103 0)
(8.268887 0.002559648 0)
(8.269001 0.002577469 0)
(8.269113 0.002593754 0)
(8.269223 0.002608668 0)
(8.269332 0.002622352 0)
(8.269439 0.002634931 0)
(8.269545 0.00264651 0)
(8.269649 0.002657186 0)
(8.269753 0.002667041 0)
(8.269855 0.002676148 0)
(8.269957 0.002684571 0)
(8.270057 0.002692368 0)
(8.270157 0.002699588 0)
(8.270256 0.002706276 0)
(8.270354 0.002712472 0)
(8.270452 0.00271821 0)
(8.270549 0.00272352 0)
(8.270646 0.00272843 0)
(8.270743 0.002732964 0)
(8.270839 0.002737141 0)
(8.270935 0.002740979 0)
(8.27103 0.002744494 0)
(8.271126 0.002747699 0)
(8.271221 0.002750603 0)
(8.271316 0.002753215 0)
(8.271411 0.002755541 0)
(8.271505 0.002757586 0)
(8.2716 0.002759351 0)
(8.271695 0.002760837 0)
(8.27179 0.002762042 0)
(8.271885 0.002762963 0)
(8.27198 0.002763593 0)
(8.272075 0.002763926 0)
(8.272171 0.002763951 0)
(8.272267 0.002763656 0)
(8.272363 0.002763027 0)
(8.272459 0.002762046 0)
(8.272556 0.002760695 0)
(8.272653 0.002758949 0)
(8.27275 0.002756783 0)
(8.272848 0.002754167 0)
(8.272947 0.002751067 0)
(8.273047 0.002747446 0)
(8.273147 0.002743259 0)
(8.273248 0.002738459 0)
(8.27335 0.00273299 0)
(8.273452 0.002726789 0)
(8.273556 0.002719788 0)
(8.273661 0.002711904 0)
(8.273767 0.002703048 0)
(8.273875 0.002693117 0)
(8.273984 0.002681993 0)
(8.274095 0.00266954 0)
(8.274208 0.002655605 0)
(8.274323 0.002640009 0)
(8.274439 0.002622545 0)
(8.274559 0.002602976 0)
(8.27468 0.002581021 0)
(8.274805 0.002556353 0)
(8.274933 0.00252859 0)
(8.275064 0.002497275 0)
(8.275199 0.00246187 0)
(8.275338 0.00242173 0)
(8.275481 0.002376084 0)
(8.275628 0.002324005 0)
(8.275781 0.002264374 0)
(8.275938 0.00219584 0)
(8.2761 0.002116771 0)
(8.276268 0.002025205 0)
(8.27644 0.001918801 0)
(8.276616 0.001794807 0)
(8.276793 0.001650071 0)
(8.27697 0.00148114 0)
(8.277142 0.001284528 0)
(8.277303 0.00105719 0)
(8.277445 0.0007976986 0)
(8.277554 0.0005066027 0)
(8.277641 0.0001927174 0)
(12.13177 0.0003889596 0)
(9.086208 0.0007519482 0)
(7.858028 0.001010157 0)
(8.184946 0.001230631 0)
(8.309413 0.001436469 0)
(8.274563 0.001619842 0)
(8.262157 0.001778345 0)
(8.266056 0.001915856 0)
(8.267479 0.002035729 0)
(8.267232 0.00214024 0)
(8.267254 0.002231472 0)
(8.267442 0.002311341 0)
(8.267597 0.00238148 0)
(8.26773 0.002443259 0)
(8.267863 0.002497836 0)
(8.267995 0.002546193 0)
(8.268123 0.002589155 0)
(8.268247 0.002627424 0)
(8.268369 0.002661592 0)
(8.268488 0.002692167 0)
(8.268605 0.002719581 0)
(8.26872 0.002744203 0)
(8.268832 0.002766354 0)
(8.268943 0.002786309 0)
(8.269052 0.002804307 0)
(8.269159 0.002820555 0)
(8.269265 0.002835236 0)
(8.26937 0.002848508 0)
(8.269474 0.002860511 0)
(8.269576 0.002871366 0)
(8.269677 0.002881182 0)
(8.269778 0.002890055 0)
(8.269877 0.002898068 0)
(8.269976 0.002905297 0)
(8.270074 0.002911808 0)
(8.270172 0.002917659 0)
(8.270269 0.002922903 0)
(8.270365 0.002927586 0)
(8.270461 0.002931748 0)
(8.270557 0.002935426 0)
(8.270652 0.00293865 0)
(8.270747 0.00294145 0)
(8.270842 0.002943849 0)
(8.270936 0.002945867 0)
(8.271031 0.002947523 0)
(8.271125 0.00294883 0)
(8.271219 0.002949802 0)
(8.271313 0.002950447 0)
(8.271407 0.002950772 0)
(8.271501 0.002950782 0)
(8.271595 0.002950478 0)
(8.271689 0.002949861 0)
(8.271783 0.002948927 0)
(8.271878 0.002947673 0)
(8.271972 0.002946089 0)
(8.272067 0.002944166 0)
(8.272162 0.002941892 0)
(8.272257 0.00293925 0)
(8.272352 0.002936224 0)
(8.272448 0.00293279 0)
(8.272545 0.002928924 0)
(8.272641 0.002924598 0)
(8.272739 0.002919778 0)
(8.272837 0.002914428 0)
(8.272935 0.002908505 0)
(8.273034 0.002901962 0)
(8.273134 0.002894745 0)
(8.273235 0.002886794 0)
(8.273337 0.00287804 0)
(8.273439 0.002868405 0)
(8.273543 0.002857803 0)
(8.273648 0.002846134 0)
(8.273754 0.002833285 0)
(8.273862 0.00281913 0)
(8.273971 0.002803522 0)
(8.274082 0.002786296 0)
(8.274194 0.002767259 0)
(8.274309 0.002746194 0)
(8.274425 0.002722847 0)
(8.274544 0.002696926 0)
(8.274666 0.002668091 0)
(8.27479 0.002635945 0)
(8.274917 0.002600026 0)
(8.275047 0.00255979 0)
(8.27518 0.0025146 0)
(8.275317 0.002463701 0)
(8.275457 0.002406207 0)
(8.275601 0.002341067 0)
(8.275749 0.002267048 0)
(8.2759 0.002182701 0)
(8.276054 0.002086343 0)
(8.27621 0.001976046 0)
(8.276367 0.001849647 0)
(8.276524 0.001704814 0)
(8.276676 0.001539176 0)
(8.276822 0.00135059 0)
(8.276955 0.001137528 0)
(8.27707 0.0008999098 0)
(8.277156 0.0006391551 0)
(8.277222 0.0003624013 0)
(12.13189 0.0003258955 0)
(9.0863 0.0006298041 0)
(7.858057 0.0008436352 0)
(8.184945 0.001027937 0)
(8.309391 0.001201223 0)
(8.274516 0.001356613 0)
(8.262087 0.001492263 0)
(8.265969 0.001611238 0)
(8.267377 0.001716052 0)
(8.267118 0.001808373 0)
(8.267129 0.001889758 0)
(8.267308 0.00196167 0)
(8.267455 0.002025377 0)
(8.267583 0.002081957 0)
(8.267711 0.00213234 0)
(8.267839 0.002177325 0)
(8.267963 0.002217596 0)
(8.268085 0.002253738 0)
(8.268205 0.002286254 0)
(8.268322 0.002315576 0)
(8.268438 0.002342077 0)
(8.268551 0.002366078 0)
(8.268663 0.002387857 0)
(8.268773 0.002407657 0)
(8.268882 0.002425687 0)
(8.268989 0.002442131 0)
(8.269094 0.00245715 0)
(8.269199 0.002470884 0)
(8.269302 0.002483456 0)
(8.269405 0.002494977 0)
(8.269506 0.002505542 0)
(8.269607 0.002515236 0)
(8.269706 0.002524134 0)
(8.269805 0.002532303 0)
(8.269904 0.002539801 0)
(8.270002 0.00254668 0)
(8.270099 0.002552987 0)
(8.270196 0.002558762 0)
(8.270292 0.002564041 0)
(8.270388 0.002568856 0)
(8.270483 0.002573234 0)
(8.270579 0.002577199 0)
(8.270674 0.002580772 0)
(8.270769 0.002583969 0)
(8.270863 0.002586806 0)
(8.270958 0.002589295 0)
(8.271052 0.002591444 0)
(8.271146 0.002593259 0)
(8.271241 0.002594747 0)
(8.271335 0.002595907 0)
(8.271429 0.00259674 0)
(8.271523 0.002597242 0)
(8.271618 0.002597409 0)
(8.271712 0.002597233 0)
(8.271807 0.002596704 0)
(8.271901 0.002595808 0)
(8.271996 0.002594531 0)
(8.272092 0.002592853 0)
(8.272187 0.002590754 0)
(8.272283 0.002588209 0)
(8.272379 0.002585189 0)
(8.272476 0.002581662 0)
(8.272573 0.002577591 0)
(8.272671 0.002572935 0)
(8.272769 0.002567647 0)
(8.272868 0.002561676 0)
(8.272968 0.002554961 0)
(8.273068 0.002547438 0)
(8.273169 0.002539031 0)
(8.273271 0.002529658 0)
(8.273374 0.002519223 0)
(8.273478 0.00250762 0)
(8.273583 0.00249473 0)
(8.27369 0.002480416 0)
(8.273798 0.002464525 0)
(8.273907 0.002446882 0)
(8.274018 0.002427287 0)
(8.27413 0.002405511 0)
(8.274245 0.002381296 0)
(8.274361 0.00235434 0)
(8.27448 0.002324299 0)
(8.2746 0.002290777 0)
(8.274724 0.002253313 0)
(8.274849 0.002211376 0)
(8.274977 0.00216435 0)
(8.275108 0.002111519 0)
(8.275241 0.002052057 0)
(8.275377 0.001985009 0)
(8.275516 0.001909279 0)
(8.275656 0.001823618 0)
(8.275797 0.001726624 0)
(8.275939 0.001616757 0)
(8.276081 0.001492374 0)
(8.276219 0.001351816 0)
(8.276352 0.001193547 0)
(8.276477 0.001016386 0)
(8.276589 0.0008198032 0)
(8.276684 0.0006044918 0)
(8.276754 0.0003722578 0)
(8.276808 0.000128818 0)
(12.13205 0.0003066881 0)
(9.08645 0.0005862158 0)
(7.858175 0.000787671 0)
(8.185048 0.0009695022 0)
(8.309485 0.001145234 0)
(8.274597 0.001306978 0)
(8.262154 0.001452148 0)
(8.266024 0.001582565 0)
(8.26742 0.001699767 0)
(8.26715 0.001804805 0)
(8.267151 0.001898816 0)
(8.267321 0.00198297 0)
(8.267461 0.002058352 0)
(8.267581 0.002125937 0)
(8.267702 0.002186603 0)
(8.267824 0.002241132 0)
(8.267943 0.002290214 0)
(8.26806 0.002334458 0)
(8.268175 0.002374397 0)
(8.268288 0.002410501 0)
(8.2684 0.002443181 0)
(8.26851 0.002472797 0)
(8.268618 0.002499668 0)
(8.268725 0.002524073 0)
(8.268831 0.002546257 0)
(8.268935 0.002566439 0)
(8.269039 0.00258481 0)
(8.269141 0.002601541 0)
(8.269242 0.002616784 0)
(8.269343 0.002630672 0)
(8.269442 0.002643325 0)
(8.269541 0.00265485 0)
(8.269639 0.002665341 0)
(8.269737 0.002674884 0)
(8.269834 0.002683553 0)
(8.26993 0.002691417 0)
(8.270026 0.002698536 0)
(8.270122 0.002704962 0)
(8.270217 0.002710745 0)
(8.270311 0.002715925 0)
(8.270406 0.002720541 0)
(8.2705 0.002724625 0)
(8.270594 0.002728207 0)
(8.270688 0.00273131 0)
(8.270782 0.002733956 0)
(8.270875 0.002736164 0)
(8.270969 0.002737947 0)
(8.271062 0.002739317 0)
(8.271156 0.002740283 0)
(8.271249 0.002740851 0)
(8.271342 0.002741024 0)
(8.271436 0.002740801 0)
(8.271529 0.002740179 0)
(8.271623 0.002739155 0)
(8.271717 0.002737718 0)
(8.271811 0.002735858 0)
(8.271905 0.00273356 0)
(8.272 0.002730807 0)
(8.272094 0.002727577 0)
(8.272189 0.002723844 0)
(8.272285 0.002719581 0)
(8.272381 0.002714755 0)
(8.272477 0.002709327 0)
(8.272574 0.002703254 0)
(8.272671 0.002696489 0)
(8.272769 0.002688976 0)
(8.272867 0.002680654 0)
(8.272966 0.002671454 0)
(8.273066 0.002661299 0)
(8.273167 0.0026501 0)
(8.273269 0.002637761 0)
(8.273371 0.002624169 0)
(8.273475 0.002609201 0)
(8.273579 0.002592717 0)
(8.273685 0.002574558 0)
(8.273792 0.002554544 0)
(8.273901 0.002532473 0)
(8.274011 0.002508113 0)
(8.274122 0.002481204 0)
(8.274236 0.002451445 0)
(8.274351 0.002418498 0)
(8.274467 0.002381972 0)
(8.274586 0.002341425 0)
(8.274707 0.002296348 0)
(8.274829 0.002246162 0)
(8.274954 0.002190207 0)
(8.27508 0.002127732 0)
(8.275208 0.002057892 0)
(8.275337 0.001979738 0)
(8.275466 0.001892222 0)
(8.275596 0.001794207 0)
(8.275725 0.001684493 0)
(8.275852 0.001561868 0)
(8.275974 0.001425189 0)
(8.276091 0.001273506 0)
(8.276198 0.001106246 0)
(8.276293 0.0009234204 0)
(8.276373 0.0007259994 0)
(8.27643 0.0005157435 0)
(8.276475 0.0002971704 0)
(12.13216 0.000271484 0)
(9.086546 0.0005177822 0)
(7.858235 0.0006945184 0)
(8.18509 0.0008551012 0)
(8.309514 0.001010657 0)
(8.274609 0.001153921 0)
(8.262149 0.001282693 0)
(8.266003 0.001398561 0)
(8.267385 0.001502823 0)
(8.267103 0.001596367 0)
(8.267093 0.001680168 0)
(8.267253 0.001755239 0)
(8.267384 0.001822518 0)
(8.267497 0.001882859 0)
(8.267612 0.001937031 0)
(8.267728 0.001985723 0)
(8.267843 0.002029548 0)
(8.267956 0.002069047 0)
(8.268067 0.002104695 0)
(8.268177 0.002136915 0)
(8.268286 0.002166073 0)
(8.268394 0.002192497 0)
(8.268501 0.002216471 0)
(8.268606 0.002238248 0)
(8.26871 0.00225805 0)
(8.268814 0.002276073 0)
(8.268916 0.002292491 0)
(8.269017 0.002307456 0)
(8.269118 0.002321106 0)
(8.269218 0.00233356 0)
(8.269317 0.002344926 0)
(8.269415 0.002355299 0)
(8.269513 0.002364764 0)
(8.26961 0.002373395 0)
(8.269707 0.00238126 0)
(8.269803 0.002388418 0)
(8.269899 0.002394921 0)
(8.269995 0.002400817 0)
(8.27009 0.002406146 0)
(8.270185 0.002410945 0)
(8.270279 0.002415245 0)
(8.270373 0.002419073 0)
(8.270468 0.002422455 0)
(8.270561 0.002425408 0)
(8.270655 0.002427951 0)
(8.270749 0.002430097 0)
(8.270842 0.002431855 0)
(8.270936 0.002433235 0)
(8.271029 0.00243424 0)
(8.271123 0.002434873 0)
(8.271216 0.002435133 0)
(8.27131 0.002435016 0)
(8.271403 0.002434517 0)
(8.271497 0.002433626 0)
(8.271591 0.002432332 0)
(8.271685 0.002430619 0)
(8.271779 0.00242847 0)
(8.271873 0.002425864 0)
(8.271968 0.002422776 0)
(8.272063 0.002419177 0)
(8.272158 0.002415035 0)
(8.272254 0.002410314 0)
(8.27235 0.002404971 0)
(8.272446 0.00239896 0)
(8.272543 0.002392229 0)
(8.27264 0.00238472 0)
(8.272738 0.002376365 0)
(8.272837 0.002367093 0)
(8.272936 0.00235682 0)
(8.273036 0.002345456 0)
(8.273136 0.002332897 0)
(8.273238 0.00231903 0)
(8.27334 0.002303725 0)
(8.273444 0.002286838 0)
(8.273548 0.002268208 0)
(8.273653 0.002247652 0)
(8.27376 0.002224965 0)
(8.273868 0.002199918 0)
(8.273977 0.002172251 0)
(8.274087 0.002141669 0)
(8.274199 0.002107841 0)
(8.274312 0.002070394 0)
(8.274427 0.002028905 0)
(8.274543 0.001982898 0)
(8.27466 0.001931837 0)
(8.274779 0.001875125 0)
(8.274898 0.001812091 0)
(8.275019 0.001742 0)
(8.275139 0.001664047 0)
(8.27526 0.001577367 0)
(8.275379 0.001481057 0)
(8.275497 0.001374205 0)
(8.275611 0.001255939 0)
(8.27572 0.001125507 0)
(8.275823 0.0009823738 0)
(8.275917 0.0008263662 0)
(8.275998 0.0006578083 0)
(8.276066 0.0004777717 0)
(8.276115 0.0002878836 0)
(8.276152 9.174203e-05 0)
(12.13228 0.0002518945 0)
(9.086656 0.0004777588 0)
(7.85832 0.0006415402 0)
(8.185166 0.0007938662 0)
(8.309583 0.0009439582 0)
(8.27467 0.001084768 0)
(8.2622 0.001214003 0)
(8.266044 0.001332658 0)
(8.267418 0.00144147 0)
(8.267128 0.001540875 0)
(8.26711 0.001631462 0)
(8.267264 0.001713917 0)
(8.267389 0.001788921 0)
(8.267496 0.001857126 0)
(8.267606 0.001919149 0)
(8.267717 0.001975565 0)
(8.267827 0.002026906 0)
(8.267936 0.002073656 0)
(8.268044 0.002116252 0)
(8.268151 0.002155091 0)
(8.268257 0.002190531 0)
(8.268361 0.00222289 0)
(8.268465 0.002252457 0)
(8.268568 0.00227949 0)
(8.26867 0.002304219 0)
(8.268771 0.002326853 0)
(8.268872 0.002347575 0)
(8.268971 0.002366555 0)
(8.26907 0.002383939 0)
(8.269168 0.002399865 0)
(8.269266 0.00241445 0)
(8.269363 0.002427806 0)
(8.269459 0.002440027 0)
(8.269555 0.002451203 0)
(8.26965 0.002461412 0)
(8.269746 0.002470724 0)
(8.26984 0.002479203 0)
(8.269935 0.002486905 0)
(8.270029 0.002493882 0)
(8.270123 0.002500177 0)
(8.270216 0.002505832 0)
(8.27031 0.002510881 0)
(8.270403 0.002515356 0)
(8.270496 0.002519283 0)
(8.270589 0.002522686 0)
(8.270682 0.002525583 0)
(8.270774 0.00252799 0)
(8.270867 0.002529921 0)
(8.27096 0.002531384 0)
(8.271053 0.002532385 0)
(8.271145 0.002532929 0)
(8.271238 0.002533013 0)
(8.271331 0.002532637 0)
(8.271424 0.002531793 0)
(8.271517 0.002530471 0)
(8.27161 0.00252866 0)
(8.271703 0.002526343 0)
(8.271797 0.0025235 0)
(8.271891 0.002520109 0)
(8.271985 0.00251614 0)
(8.272079 0.002511564 0)
(8.272174 0.002506342 0)
(8.272269 0.002500435 0)
(8.272364 0.002493795 0)
(8.27246 0.00248637 0)
(8.272556 0.0024781 0)
(8.272653 0.002468919 0)
(8.27275 0.002458754 0)
(8.272848 0.002447521 0)
(8.272947 0.002435128 0)
(8.273046 0.002421472 0)
(8.273146 0.002406436 0)
(8.273246 0.002389893 0)
(8.273348 0.002371699 0)