/*--------------------------------*- C++ -*----------------------------------*\
| =========                 |                                                 |
| \\      /  F ield         | OpenFOAM: The Open Source CFD Toolbox           |
|  \\    /   O peration     | Version:  2.3.0                                 |
|   \\  /    A nd           | Web:      www.OpenFOAM.org                      |
|    \\/     M anipulation  |                                                 |
\*---------------------------------------------------------------------------*/
FoamFile
{
    version     2.0;
    format      ascii;
    class       volVectorField;
    location    "9800/bottomAir";
    object      U;
}
// * * * * * * * * * * * * * * * * * * * * * * * * * * * * * * * * * * * * * //

dimensions      [0 1 -1 0 0 0 0];

internalField   nonuniform List<vector> 
4000
(
(33.25053 -0.003038416 0)
(25.15112 -0.001525321 0)
(21.88301 -0.0006079865 0)
(22.75127 -0.0004694421 0)
(23.08271 -0.0003454693 0)
(22.99008 -0.000235912 0)
(22.95675 -0.000181492 0)
(22.96682 -0.0001528713 0)
(22.97035 -0.0001341241 0)
(22.96943 -0.0001223427 0)
(22.96924 -0.0001154463 0)
(22.9695 -0.0001115212 0)
(22.9697 -0.0001094898 0)
(22.96985 -0.000108742 0)
(22.97002 -0.0001088719 0)
(22.97019 -0.0001095978 0)
(22.97038 -0.0001107292 0)
(22.97057 -0.0001121325 0)
(22.97077 -0.0001137117 0)
(22.97097 -0.0001153973 0)
(22.97118 -0.0001171377 0)
(22.9714 -0.0001188952 0)
(22.97162 -0.0001206411 0)
(22.97185 -0.0001223551 0)
(22.97208 -0.0001240211 0)
(22.97232 -0.0001256286 0)
(22.97256 -0.0001271689 0)
(22.97281 -0.0001286372 0)
(22.97305 -0.0001300294 0)
(22.97331 -0.000131344 0)
(22.97356 -0.0001325797 0)
(22.97382 -0.0001337368 0)
(22.97409 -0.0001348159 0)
(22.97435 -0.0001358182 0)
(22.97462 -0.0001367451 0)
(22.97489 -0.0001375986 0)
(22.97516 -0.0001383804 0)
(22.97544 -0.0001390926 0)
(22.97572 -0.0001397372 0)
(22.97599 -0.0001403159 0)
(22.97627 -0.0001408309 0)
(22.97655 -0.0001412836 0)
(22.97684 -0.0001416758 0)
(22.97712 -0.0001420087 0)
(22.9774 -0.0001422836 0)
(22.97769 -0.0001425014 0)
(22.97797 -0.0001426631 0)
(22.97826 -0.0001427689 0)
(22.97855 -0.0001428194 0)
(22.97883 -0.0001428143 0)
(22.97912 -0.0001427537 0)
(22.97941 -0.0001426367 0)
(22.97969 -0.000142463 0)
(22.97998 -0.0001422311 0)
(22.98026 -0.00014194 0)
(22.98055 -0.0001415878 0)
(22.98083 -0.0001411728 0)
(22.98112 -0.0001406925 0)
(22.9814 -0.0001401447 0)
(22.98168 -0.0001395263 0)
(22.98196 -0.0001388345 0)
(22.98224 -0.0001380656 0)
(22.98251 -0.000137216 0)
(22.98279 -0.0001362816 0)
(22.98306 -0.0001352584 0)
(22.98333 -0.0001341415 0)
(22.9836 -0.0001329264 0)
(22.98387 -0.0001316078 0)
(22.98413 -0.0001301806 0)
(22.98439 -0.0001286392 0)
(22.98464 -0.0001269782 0)
(22.9849 -0.0001251916 0)
(22.98514 -0.0001232738 0)
(22.98539 -0.0001212188 0)
(22.98563 -0.000119021 0)
(22.98586 -0.0001166745 0)
(22.98609 -0.000114174 0)
(22.98632 -0.0001115139 0)
(22.98653 -0.0001086897 0)
(22.98675 -0.0001056964 0)
(22.98695 -0.0001025306 0)
(22.98715 -9.918862e-05 0)
(22.98734 -9.566822e-05 0)
(22.98753 -9.196748e-05 0)
(22.9877 -8.808603e-05 0)
(22.98787 -8.402404e-05 0)
(22.98803 -7.978347e-05 0)
(22.98818 -7.536701e-05 0)
(22.98832 -7.077934e-05 0)
(22.98845 -6.602607e-05 0)
(22.98857 -6.111496e-05 0)
(22.98868 -5.605494e-05 0)
(22.98878 -5.085737e-05 0)
(22.98886 -4.553553e-05 0)
(22.98894 -4.010639e-05 0)
(22.98901 -3.459264e-05 0)
(22.98906 -2.902759e-05 0)
(22.9891 -2.347617e-05 0)
(22.98913 -1.803496e-05 0)
(22.98915 -1.309665e-05 0)
(33.24519 -0.003793054 0)
(25.14854 -0.001641145 0)
(21.8784 -0.0004913547 0)
(22.74604 -0.0004044653 0)
(23.07754 -0.0003051752 0)
(22.98482 -0.0002051295 0)
(22.9514 -0.0001716675 0)
(22.96144 -0.0001663459 0)
(22.96496 -0.0001684429 0)
(22.96404 -0.0001757197 0)
(22.96385 -0.0001864585 0)
(22.96411 -0.000198726 0)
(22.9643 -0.000211557 0)
(22.96446 -0.000224508 0)
(22.96463 -0.0002373055 0)
(22.96481 -0.0002497768 0)
(22.965 -0.0002618235 0)
(22.96519 -0.0002733892 0)
(22.9654 -0.0002844431 0)
(22.9656 -0.0002949704 0)
(22.96582 -0.0003049671 0)
(22.96604 -0.0003144365 0)
(22.96627 -0.0003233867 0)
(22.9665 -0.0003318296 0)
(22.96674 -0.0003397789 0)
(22.96698 -0.0003472504 0)
(22.96722 -0.0003542606 0)
(22.96747 -0.000360827 0)
(22.96773 -0.0003669671 0)
(22.96799 -0.0003726986 0)
(22.96825 -0.0003780388 0)
(22.96851 -0.000383005 0)
(22.96878 -0.0003876135 0)
(22.96905 -0.0003918806 0)
(22.96932 -0.0003958213 0)
(22.9696 -0.0003994504 0)
(22.96988 -0.0004027813 0)
(22.97016 -0.0004058271 0)
(22.97044 -0.0004085996 0)
(22.97072 -0.0004111097 0)
(22.971 -0.0004133676 0)
(22.97129 -0.0004153823 0)
(22.97158 -0.0004171619 0)
(22.97186 -0.0004187137 0)
(22.97215 -0.0004200437 0)
(22.97244 -0.0004211571 0)
(22.97273 -0.0004220583 0)
(22.97302 -0.0004227505 0)
(22.97331 -0.0004232359 0)
(22.97361 -0.0004235159 0)
(22.9739 -0.000423591 0)
(22.97419 -0.0004234604 0)
(22.97448 -0.0004231227 0)
(22.97477 -0.0004225754 0)
(22.97506 -0.000421815 0)
(22.97535 -0.0004208372 0)
(22.97564 -0.0004196365 0)
(22.97593 -0.0004182066 0)
(22.97621 -0.0004165404 0)
(22.9765 -0.0004146295 0)
(22.97678 -0.0004124649 0)
(22.97707 -0.0004100365 0)
(22.97735 -0.0004073333 0)
(22.97763 -0.0004043434 0)
(22.9779 -0.0004010541 0)
(22.97818 -0.0003974518 0)
(22.97845 -0.0003935223 0)
(22.97872 -0.0003892504 0)
(22.97899 -0.0003846205 0)
(22.97925 -0.0003796162 0)
(22.97951 -0.0003742208 0)
(22.97977 -0.0003684171 0)
(22.98002 -0.0003621879 0)
(22.98027 -0.0003555156 0)
(22.98052 -0.000348383 0)
(22.98076 -0.000340773 0)
(22.98099 -0.0003326692 0)
(22.98122 -0.0003240559 0)
(22.98144 -0.0003149184 0)
(22.98166 -0.0003052434 0)
(22.98187 -0.0002950192 0)
(22.98207 -0.000284236 0)
(22.98227 -0.0002728866 0)
(22.98246 -0.000260966 0)
(22.98264 -0.0002484726 0)
(22.98281 -0.000235408 0)
(22.98298 -0.0002217772 0)
(22.98313 -0.0002075896 0)
(22.98327 -0.0001928585 0)
(22.98341 -0.0001776018 0)
(22.98353 -0.0001618421 0)
(22.98365 -0.0001456069 0)
(22.98375 -0.0001289289 0)
(22.98384 -0.0001118463 0)
(22.98393 -9.440379e-05 0)
(22.98399 -7.665445e-05 0)
(22.98405 -5.866302e-05 0)
(22.9841 -4.05225e-05 0)
(22.98413 -2.234688e-05 0)
(22.98416 -4.478584e-06 0)
(33.24503 -0.001448464 0)
(25.1497 -0.000735582 0)
(21.87894 -0.0003877414 0)
(22.74632 -0.0004014625 0)
(23.07785 -0.0003866833 0)
(22.98513 -0.000353919 0)
(22.9517 -0.0003445695 0)
(22.96174 -0.0003481714 0)
(22.96526 -0.0003561623 0)
(22.96434 -0.0003676214 0)
(22.96415 -0.000381776 0)
(22.96441 -0.0003975135 0)
(22.96461 -0.0004141072 0)
(22.96476 -0.0004311127 0)
(22.96493 -0.0004482037 0)
(22.96512 -0.0004651397 0)
(22.9653 -0.0004817491 0)
(22.9655 -0.00049791 0)
(22.9657 -0.000513536 0)
(22.96591 -0.0005285669 0)
(22.96613 -0.0005429631 0)
(22.96635 -0.0005566998 0)
(22.96657 -0.0005697648 0)
(22.9668 -0.0005821543 0)
(22.96704 -0.000593872 0)
(22.96728 -0.0006049267 0)
(22.96753 -0.0006153316 0)
(22.96777 -0.0006251027 0)
(22.96803 -0.0006342584 0)
(22.96829 -0.0006428186 0)
(22.96855 -0.0006508042 0)
(22.96881 -0.0006582364 0)
(22.96908 -0.0006651367 0)
(22.96935 -0.0006715263 0)
(22.96962 -0.000677426 0)
(22.96989 -0.0006828559 0)
(22.97017 -0.0006878352 0)
(22.97045 -0.000692382 0)
(22.97073 -0.0006965136 0)
(22.97101 -0.0007002458 0)
(22.97129 -0.0007035933 0)
(22.97158 -0.0007065693 0)
(22.97186 -0.0007091858 0)
(22.97215 -0.0007114534 0)
(22.97244 -0.000713381 0)
(22.97272 -0.0007149764 0)
(22.97301 -0.0007162456 0)
(22.9733 -0.0007171934 0)
(22.97359 -0.0007178228 0)
(22.97388 -0.0007181356 0)
(22.97417 -0.0007181317 0)
(22.97446 -0.00071781 0)
(22.97475 -0.0007171674 0)
(22.97504 -0.0007161996 0)
(22.97533 -0.0007149004 0)
(22.97562 -0.0007132623 0)
(22.97591 -0.0007112762 0)
(22.97619 -0.0007089316 0)
(22.97648 -0.0007062159 0)
(22.97676 -0.0007031156 0)
(22.97705 -0.0006996152 0)
(22.97733 -0.000695698 0)
(22.97761 -0.0006913454 0)
(22.97789 -0.0006865376 0)
(22.97816 -0.0006812533 0)
(22.97844 -0.0006754698 0)
(22.97871 -0.000669163 0)
(22.97898 -0.0006623077 0)
(22.97924 -0.0006548775 0)
(22.97951 -0.0006468452 0)
(22.97977 -0.0006381823 0)
(22.98002 -0.0006288604 0)
(22.98027 -0.0006188501 0)
(22.98052 -0.0006081221 0)
(22.98077 -0.0005966471 0)
(22.981 -0.0005843965 0)
(22.98124 -0.0005713423 0)
(22.98147 -0.000557458 0)
(22.98169 -0.0005427186 0)
(22.98191 -0.0005271015 0)
(22.98211 -0.0005105865 0)
(22.98232 -0.000493157 0)
(22.98251 -0.0004748 0)
(22.9827 -0.0004555071 0)
(22.98288 -0.0004352745 0)
(22.98305 -0.0004141046 0)
(22.98322 -0.0003920051 0)
(22.98337 -0.0003689912 0)
(22.98351 -0.0003450844 0)
(22.98365 -0.0003203143 0)
(22.98377 -0.0002947177 0)
(22.98389 -0.0002683401 0)
(22.98399 -0.0002412345 0)
(22.98408 -0.0002134629 0)
(22.98416 -0.0001850952 0)
(22.98423 -0.0001562096 0)
(22.98428 -0.0001268906 0)
(22.98433 -9.722628e-05 0)
(22.98436 -6.729502e-05 0)
(22.98438 -3.711996e-05 0)
(33.24463 -0.0009991729 0)
(25.15022 -0.0008473713 0)
(21.8795 -0.0006427226 0)
(22.74678 -0.0005801087 0)
(23.07831 -0.0005348318 0)
(22.98558 -0.0004925095 0)
(22.95213 -0.0004710885 0)
(22.96215 -0.0004672073 0)
(22.96566 -0.0004737159 0)
(22.96473 -0.0004872671 0)
(22.96453 -0.0005057753 0)
(22.96479 -0.0005274535 0)
(22.96498 -0.0005509974 0)
(22.96513 -0.0005755188 0)
(22.9653 -0.0006003937 0)
(22.96548 -0.0006251778 0)
(22.96567 -0.0006495587 0)
(22.96586 -0.0006733182 0)
(22.96607 -0.0006963058 0)
(22.96627 -0.0007184198 0)
(22.96649 -0.0007395943 0)
(22.96671 -0.0007597901 0)
(22.96694 -0.0007789881 0)
(22.96717 -0.0007971836 0)
(22.9674 -0.0008143834 0)
(22.96764 -0.0008306026 0)
(22.96789 -0.000845862 0)
(22.96814 -0.0008601875 0)
(22.96839 -0.0008736075 0)
(22.96865 -0.0008861529 0)
(22.96891 -0.0008978553 0)
(22.96918 -0.0009087474 0)
(22.96944 -0.0009188612 0)
(22.96971 -0.0009282287 0)
(22.96999 -0.0009368808 0)
(22.97026 -0.0009448473 0)
(22.97054 -0.0009521565 0)
(22.97082 -0.0009588354 0)
(22.9711 -0.000964909 0)
(22.97138 -0.0009704006 0)
(22.97166 -0.0009753316 0)
(22.97195 -0.0009797214 0)
(22.97223 -0.0009835873 0)
(22.97252 -0.0009869447 0)
(22.97281 -0.0009898067 0)
(22.97309 -0.0009921844 0)
(22.97338 -0.0009940868 0)
(22.97367 -0.0009955206 0)
(22.97396 -0.0009964906 0)
(22.97425 -0.0009969992 0)
(22.97454 -0.0009970468 0)
(22.97483 -0.0009966316 0)
(22.97512 -0.0009957495 0)
(22.97541 -0.0009943946 0)
(22.9757 -0.0009925583 0)
(22.97599 -0.0009902302 0)
(22.97628 -0.0009873975 0)
(22.97657 -0.0009840454 0)
(22.97685 -0.0009801568 0)
(22.97714 -0.0009757122 0)
(22.97742 -0.0009706903 0)
(22.9777 -0.0009650674 0)
(22.97798 -0.0009588178 0)
(22.97826 -0.0009519135 0)
(22.97854 -0.0009443247 0)
(22.97881 -0.0009360196 0)
(22.97909 -0.0009269643 0)
(22.97935 -0.0009171236 0)
(22.97962 -0.0009064603 0)
(22.97989 -0.000894936 0)
(22.98015 -0.0008825111 0)
(22.9804 -0.0008691451 0)
(22.98065 -0.0008547969 0)
(22.9809 -0.000839425 0)
(22.98115 -0.0008229883 0)
(22.98139 -0.0008054461 0)
(22.98162 -0.000786759 0)
(22.98185 -0.0007668893 0)
(22.98207 -0.0007458016 0)
(22.98229 -0.0007234635 0)
(22.9825 -0.0006998465 0)
(22.98271 -0.0006749265 0)
(22.9829 -0.0006486848 0)
(22.98309 -0.0006211089 0)
(22.98327 -0.0005921932 0)
(22.98344 -0.0005619402 0)
(22.98361 -0.0005303607 0)
(22.98376 -0.0004974749 0)
(22.98391 -0.0004633132 0)
(22.98404 -0.0004279163 0)
(22.98417 -0.0003913361 0)
(22.98428 -0.0003536356 0)
(22.98439 -0.0003148894 0)
(22.98448 -0.0002751836 0)
(22.98456 -0.0002346154 0)
(22.98463 -0.0001932935 0)
(22.98468 -0.0001513361 0)
(22.98473 -0.0001088728 0)
(22.98476 -6.603018e-05 0)
(22.98478 -2.297735e-05 0)
(33.24451 -0.0005583858 0)
(25.15057 -0.0005295368 0)
(21.87984 -0.0004538355 0)
(22.74703 -0.000454667 0)
(23.07853 -0.0004699149 0)
(22.98579 -0.0004842533 0)
(22.95232 -0.0005057543 0)
(22.96233 -0.0005343781 0)
(22.96584 -0.0005668601 0)
(22.9649 -0.0006015024 0)
(22.9647 -0.0006374115 0)
(22.96496 -0.0006738177 0)
(22.96515 -0.0007101195 0)
(22.9653 -0.0007458995 0)
(22.96547 -0.0007808635 0)
(22.96566 -0.0008148002 0)
(22.96585 -0.0008475613 0)
(22.96604 -0.0008790462 0)
(22.96625 -0.0009091902 0)
(22.96646 -0.0009379556 0)
(22.96667 -0.0009653256 0)
(22.9669 -0.0009913 0)
(22.96712 -0.001015891 0)
(22.96736 -0.00103912 0)
(22.9676 -0.001061018 0)
(22.96784 -0.001081619 0)
(22.96809 -0.001100962 0)
(22.96834 -0.00111909 0)
(22.96859 -0.001136046 0)
(22.96885 -0.001151877 0)
(22.96911 -0.001166627 0)
(22.96938 -0.001180341 0)
(22.96965 -0.001193063 0)
(22.96992 -0.001204837 0)
(22.97019 -0.001215704 0)
(22.97046 -0.001225704 0)
(22.97074 -0.001234875 0)
(22.97102 -0.001243251 0)
(22.9713 -0.001250866 0)
(22.97158 -0.001257751 0)
(22.97187 -0.001263933 0)
(22.97215 -0.001269437 0)
(22.97244 -0.001274288 0)
(22.97273 -0.001278504 0)
(22.97302 -0.001282102 0)
(22.97331 -0.001285098 0)
(22.9736 -0.001287503 0)
(22.97389 -0.001289326 0)
(22.97418 -0.001290573 0)
(22.97447 -0.001291248 0)
(22.97476 -0.001291351 0)
(22.97505 -0.00129088 0)
(22.97534 -0.00128983 0)
(22.97563 -0.001288194 0)
(22.97592 -0.00128596 0)
(22.97621 -0.001283116 0)
(22.9765 -0.001279645 0)
(22.97678 -0.001275527 0)
(22.97707 -0.001270742 0)
(22.97736 -0.001265264 0)
(22.97764 -0.001259066 0)
(22.97792 -0.001252117 0)
(22.9782 -0.001244384 0)
(22.97848 -0.001235831 0)
(22.97876 -0.00122642 0)
(22.97904 -0.001216108 0)
(22.97931 -0.001204854 0)
(22.97958 -0.00119261 0)
(22.97985 -0.001179329 0)
(22.98011 -0.001164961 0)
(22.98037 -0.001149455 0)
(22.98063 -0.001132757 0)
(22.98089 -0.001114814 0)
(22.98114 -0.001095572 0)
(22.98138 -0.001074977 0)
(22.98162 -0.001052976 0)
(22.98186 -0.001029516 0)
(22.98209 -0.001004549 0)
(22.98231 -0.0009780268 0)
(22.98253 -0.0009499069 0)
(22.98274 -0.0009201509 0)
(22.98295 -0.0008887263 0)
(22.98315 -0.0008556075 0)
(22.98334 -0.0008207767 0)
(22.98352 -0.0007842252 0)
(22.98369 -0.0007459545 0)
(22.98386 -0.0007059771 0)
(22.98402 -0.0006643177 0)
(22.98416 -0.000621014 0)
(22.9843 -0.0005761174 0)
(22.98443 -0.0005296937 0)
(22.98454 -0.0004818233 0)
(22.98465 -0.0004326012 0)
(22.98474 -0.0003821371 0)
(22.98482 -0.0003305547 0)
(22.98489 -0.0002779908 0)
(22.98495 -0.0002245927 0)
(22.98499 -0.0001705193 0)
(22.98502 -0.0001159224 0)
(22.98505 -6.10189e-05 0)
(33.24432 -0.0004114865 0)
(25.15063 -0.0005008788 0)
(21.87993 -0.0005230571 0)
(22.74711 -0.0005615278 0)
(23.07861 -0.0005965717 0)
(22.98588 -0.0006253876 0)
(22.95242 -0.0006548701 0)
(22.96243 -0.0006875815 0)
(22.96593 -0.000723085 0)
(22.965 -0.0007607334 0)
(22.9648 -0.0007999843 0)
(22.96506 -0.000840235 0)
(22.96525 -0.0008808998 0)
(22.9654 -0.0009214828 0)
(22.96557 -0.0009615821 0)
(22.96575 -0.001000878 0)
(22.96594 -0.001039123 0)
(22.96614 -0.00107613 0)
(22.96635 -0.001111765 0)
(22.96656 -0.001145933 0)
(22.96677 -0.001178574 0)
(22.967 -0.001209654 0)
(22.96723 -0.001239162 0)
(22.96746 -0.001267101 0)
(22.9677 -0.001293491 0)
(22.96794 -0.00131836 0)
(22.96819 -0.001341744 0)
(22.96844 -0.001363685 0)
(22.9687 -0.001384229 0)
(22.96896 -0.001403424 0)
(22.96922 -0.001421322 0)
(22.96949 -0.001437971 0)
(22.96976 -0.001453423 0)
(22.97003 -0.001467727 0)
(22.9703 -0.001480931 0)
(22.97058 -0.001493081 0)
(22.97086 -0.001504221 0)
(22.97114 -0.001514392 0)
(22.97142 -0.001523634 0)
(22.9717 -0.001531982 0)
(22.97199 -0.00153947 0)
(22.97227 -0.001546126 0)
(22.97256 -0.001551978 0)
(22.97285 -0.00155705 0)
(22.97314 -0.001561361 0)
(22.97343 -0.001564928 0)
(22.97372 -0.001567766 0)
(22.97401 -0.001569884 0)
(22.9743 -0.00157129 0)
(22.97459 -0.001571987 0)
(22.97488 -0.001571975 0)
(22.97517 -0.001571252 0)
(22.97546 -0.001569812 0)
(22.97575 -0.001567643 0)
(22.97605 -0.001564734 0)
(22.97634 -0.001561067 0)
(22.97662 -0.001556623 0)
(22.97691 -0.001551377 0)
(22.9772 -0.001545304 0)
(22.97749 -0.001538372 0)
(22.97777 -0.001530548 0)
(22.97806 -0.001521794 0)
(22.97834 -0.00151207 0)
(22.97862 -0.001501331 0)
(22.9789 -0.001489531 0)
(22.97917 -0.001476619 0)
(22.97945 -0.00146254 0)
(22.97972 -0.00144724 0)
(22.97999 -0.001430658 0)
(22.98025 -0.001412733 0)
(22.98051 -0.001393403 0)
(22.98077 -0.001372601 0)
(22.98103 -0.001350261 0)
(22.98128 -0.001326317 0)
(22.98153 -0.001300701 0)
(22.98177 -0.001273348 0)
(22.98201 -0.001244192 0)
(22.98224 -0.001213172 0)
(22.98247 -0.001180228 0)
(22.98269 -0.001145306 0)
(22.9829 -0.001108358 0)
(22.98311 -0.001069342 0)
(22.98331 -0.001028224 0)
(22.9835 -0.0009849825 0)
(22.98368 -0.0009396034 0)
(22.98386 -0.000892087 0)
(22.98403 -0.0008424472 0)
(22.98418 -0.0007907126 0)
(22.98433 -0.0007369281 0)
(22.98447 -0.0006811558 0)
(22.9846 -0.0006234755 0)
(22.98472 -0.0005639853 0)
(22.98482 -0.0005028018 0)
(22.98492 -0.0004400597 0)
(22.985 -0.0003759112 0)
(22.98507 -0.0003105254 0)
(22.98513 -0.0002440851 0)
(22.98517 -0.0001767894 0)
(22.98521 -0.0001088317 0)
(22.98523 -4.049469e-05 0)
(33.24422 -0.0003012522 0)
(25.15068 -0.0004138479 0)
(21.88002 -0.0004663397 0)
(22.74718 -0.0005230793 0)
(23.07869 -0.0005789774 0)
(22.98596 -0.0006319509 0)
(22.95249 -0.0006849075 0)
(22.96249 -0.0007393224 0)
(22.96599 -0.0007949224 0)
(22.96506 -0.0008510727 0)
(22.96485 -0.0009072382 0)
(22.96511 -0.0009629325 0)
(22.9653 -0.001017715 0)
(22.96545 -0.001071225 0)
(22.96563 -0.001123184 0)
(22.96581 -0.001173382 0)
(22.966 -0.001221669 0)
(22.9662 -0.001267941 0)
(22.96641 -0.001312136 0)
(22.96662 -0.001354222 0)
(22.96684 -0.001394194 0)
(22.96707 -0.001432066 0)
(22.9673 -0.001467868 0)
(22.96753 -0.001501643 0)
(22.96777 -0.001533443 0)
(22.96802 -0.001563326 0)
(22.96827 -0.001591358 0)
(22.96852 -0.001617605 0)
(22.96878 -0.001642137 0)
(22.96904 -0.001665024 0)
(22.96931 -0.001686336 0)
(22.96957 -0.001706141 0)
(22.96984 -0.001724507 0)
(22.97012 -0.0017415 0)
(22.97039 -0.00175718 0)
(22.97067 -0.001771609 0)
(22.97095 -0.001784841 0)
(22.97123 -0.00179693 0)
(22.97151 -0.001807925 0)
(22.9718 -0.00181787 0)
(22.97208 -0.001826808 0)
(22.97237 -0.001834775 0)
(22.97266 -0.001841806 0)
(22.97295 -0.001847928 0)
(22.97324 -0.001853169 0)
(22.97353 -0.001857548 0)
(22.97382 -0.001861084 0)
(22.97411 -0.00186379 0)
(22.9744 -0.001865674 0)
(22.97469 -0.001866742 0)
(22.97499 -0.001866995 0)
(22.97528 -0.00186643 0)
(22.97557 -0.00186504 0)
(22.97586 -0.001862814 0)
(22.97615 -0.001859737 0)
(22.97644 -0.001855789 0)
(22.97673 -0.001850947 0)
(22.97702 -0.001845183 0)
(22.97731 -0.001838466 0)
(22.9776 -0.00183076 0)
(22.97788 -0.001822024 0)
(22.97817 -0.001812215 0)
(22.97845 -0.001801285 0)
(22.97873 -0.00178918 0)
(22.97901 -0.001775845 0)
(22.97929 -0.00176122 0)
(22.97957 -0.00174524 0)
(22.97984 -0.001727839 0)
(22.98011 -0.001708946 0)
(22.98038 -0.001688487 0)
(22.98064 -0.001666386 0)
(22.9809 -0.001642564 0)
(22.98116 -0.001616942 0)
(22.98141 -0.00158944 0)
(22.98166 -0.001559975 0)
(22.98191 -0.001528467 0)
(22.98215 -0.001494838 0)
(22.98238 -0.001459011 0)
(22.98261 -0.001420914 0)
(22.98283 -0.00138048 0)
(22.98305 -0.001337648 0)
(22.98326 -0.001292365 0)
(22.98346 -0.001244589 0)
(22.98365 -0.001194289 0)
(22.98384 -0.001141447 0)
(22.98402 -0.001086058 0)
(22.98419 -0.001028137 0)
(22.98435 -0.0009677142 0)
(22.9845 -0.0009048404 0)
(22.98464 -0.0008395869 0)
(22.98477 -0.0007720467 0)
(22.98489 -0.000702335 0)
(22.985 -0.0006305894 0)
(22.98509 -0.0005569694 0)
(22.98518 -0.0004816563 0)
(22.98525 -0.0004048514 0)
(22.98531 -0.0003267727 0)
(22.98535 -0.0002476585 0)
(22.98539 -0.0001677402 0)
(22.98541 -8.735899e-05 0)
(33.2441 -0.0002613493 0)
(25.15065 -0.0004057063 0)
(21.88001 -0.0004942121 0)
(22.74718 -0.0005796073 0)
(23.07869 -0.0006610892 0)
(22.98596 -0.0007364976 0)
(22.9525 -0.0008077728 0)
(22.9625 -0.0008768398 0)
(22.96601 -0.0009444001 0)
(22.96507 -0.001010579 0)
(22.96487 -0.001075385 0)
(22.96513 -0.001138745 0)
(22.96532 -0.001200516 0)
(22.96548 -0.00126053 0)
(22.96565 -0.001318632 0)
(22.96584 -0.001374686 0)
(22.96603 -0.001428584 0)
(22.96624 -0.001480245 0)
(22.96644 -0.001529616 0)
(22.96666 -0.001576667 0)
(22.96688 -0.001621392 0)
(22.96711 -0.001663802 0)
(22.96734 -0.001703927 0)
(22.96758 -0.001741808 0)
(22.96782 -0.001777497 0)
(22.96807 -0.001811053 0)
(22.96832 -0.001842544 0)
(22.96858 -0.001872039 0)
(22.96884 -0.001899612 0)
(22.9691 -0.001925339 0)
(22.96937 -0.001949293 0)
(22.96964 -0.001971549 0)
(22.96991 -0.001992181 0)
(22.97018 -0.002011259 0)
(22.97046 -0.002028852 0)
(22.97074 -0.002045023 0)
(22.97102 -0.002059835 0)
(22.9713 -0.002073346 0)
(22.97158 -0.002085609 0)
(22.97187 -0.002096674 0)
(22.97215 -0.002106587 0)
(22.97244 -0.002115388 0)
(22.97273 -0.002123114 0)
(22.97302 -0.002129797 0)
(22.97331 -0.002135466 0)
(22.9736 -0.002140143 0)
(22.97389 -0.002143847 0)
(22.97419 -0.002146592 0)
(22.97448 -0.002148388 0)
(22.97477 -0.00214924 0)
(22.97506 -0.002149149 0)
(22.97536 -0.002148109 0)
(22.97565 -0.002146114 0)
(22.97594 -0.002143148 0)
(22.97623 -0.002139196 0)
(22.97653 -0.002134233 0)
(22.97682 -0.002128233 0)
(22.97711 -0.002121164 0)
(22.9774 -0.002112989 0)
(22.97768 -0.002103667 0)
(22.97797 -0.00209315 0)
(22.97826 -0.002081389 0)
(22.97854 -0.002068328 0)
(22.97882 -0.002053905 0)
(22.97911 -0.002038057 0)
(22.97938 -0.002020712 0)
(22.97966 -0.002001798 0)
(22.97994 -0.001981235 0)
(22.98021 -0.001958943 0)
(22.98048 -0.001934834 0)
(22.98074 -0.001908821 0)
(22.981 -0.001880811 0)
(22.98126 -0.001850711 0)
(22.98152 -0.001818426 0)
(22.98177 -0.001783861 0)
(22.98202 -0.00174692 0)
(22.98226 -0.00170751 0)
(22.98249 -0.00166554 0)
(22.98272 -0.001620923 0)
(22.98295 -0.001573579 0)
(22.98317 -0.001523434 0)
(22.98338 -0.001470424 0)
(22.98359 -0.001414495 0)
(22.98378 -0.001355607 0)
(22.98397 -0.001293736 0)
(22.98415 -0.001228873 0)
(22.98433 -0.001161031 0)
(22.98449 -0.001090242 0)
(22.98464 -0.001016562 0)
(22.98478 -0.0009400714 0)
(22.98492 -0.0008608762 0)
(22.98504 -0.000779109 0)
(22.98515 -0.0006949295 0)
(22.98525 -0.0006085238 0)
(22.98533 -0.0005201039 0)
(22.9854 -0.0004299068 0)
(22.98546 -0.0003381898 0)
(22.98551 -0.0002452357 0)
(22.98555 -0.00015132 0)
(22.98557 -5.685118e-05 0)
(33.244 -0.0002363937 0)
(25.15061 -0.0003936619 0)
(21.88 -0.0004969535 0)
(22.74717 -0.0005948787 0)
(23.07869 -0.0006901191 0)
(22.98597 -0.0007802067 0)
(22.9525 -0.0008661811 0)
(22.96251 -0.0009496724 0)
(22.96602 -0.001031318 0)
(22.96508 -0.001111164 0)
(22.96488 -0.001189133 0)
(22.96514 -0.001265099 0)
(22.96534 -0.001338882 0)
(22.96549 -0.001410298 0)
(22.96567 -0.001479183 0)
(22.96586 -0.001545405 0)
(22.96605 -0.001608866 0)
(22.96626 -0.001669502 0)
(22.96647 -0.001727279 0)
(22.96669 -0.001782192 0)
(22.96691 -0.00183426 0)
(22.96714 -0.001883522 0)
(22.96738 -0.001930033 0)
(22.96762 -0.00197386 0)
(22.96786 -0.002015082 0)
(22.96811 -0.002053785 0)
(22.96837 -0.002090059 0)
(22.96862 -0.002123998 0)
(22.96888 -0.002155699 0)
(22.96915 -0.002185256 0)
(22.96942 -0.002212765 0)
(22.96969 -0.00223832 0)
(22.96996 -0.00226201 0)
(22.97024 -0.002283923 0)
(22.97052 -0.002304142 0)
(22.9708 -0.002322745 0)
(22.97108 -0.002339809 0)
(22.97136 -0.002355401 0)
(22.97165 -0.002369587 0)
(22.97193 -0.002382427 0)
(22.97222 -0.002393975 0)
(22.97251 -0.002404279 0)
(22.9728 -0.002413384 0)
(22.97309 -0.002421328 0)
(22.97338 -0.002428144 0)
(22.97367 -0.002433861 0)
(22.97397 -0.002438499 0)
(22.97426 -0.002442078 0)
(22.97455 -0.002444607 0)
(22.97485 -0.002446096 0)
(22.97514 -0.002446543 0)
(22.97544 -0.002445946 0)
(22.97573 -0.002444296 0)
(22.97602 -0.002441577 0)
(22.97632 -0.00243777 0)
(22.97661 -0.00243285 0)
(22.9769 -0.002426785 0)
(22.97719 -0.00241954 0)
(22.97748 -0.002411074 0)
(22.97777 -0.002401338 0)
(22.97806 -0.002390281 0)
(22.97835 -0.002377844 0)
(22.97863 -0.002363964 0)
(22.97892 -0.002348572 0)
(22.9792 -0.002331593 0)
(22.97948 -0.002312948 0)
(22.97976 -0.002292551 0)
(22.98004 -0.002270313 0)
(22.98031 -0.002246139 0)
(22.98058 -0.00221993 0)
(22.98085 -0.002191584 0)
(22.98111 -0.002160994 0)
(22.98138 -0.002128053 0)
(22.98163 -0.002092648 0)
(22.98189 -0.002054669 0)
(22.98214 -0.002014003 0)
(22.98238 -0.001970542 0)
(22.98262 -0.001924176 0)
(22.98285 -0.001874804 0)
(22.98308 -0.001822328 0)
(22.9833 -0.001766659 0)
(22.98352 -0.001707718 0)
(22.98373 -0.001645439 0)
(22.98393 -0.001579771 0)
(22.98412 -0.001510678 0)
(22.9843 -0.001438146 0)
(22.98448 -0.001362182 0)
(22.98465 -0.001282819 0)
(22.9848 -0.001200116 0)
(22.98495 -0.001114159 0)
(22.98508 -0.001025068 0)
(22.98521 -0.0009329899 0)
(22.98532 -0.0008381072 0)
(22.98542 -0.0007406324 0)
(22.98551 -0.0006408093 0)
(22.98558 -0.0005389115 0)
(22.98564 -0.0004352376 0)
(22.98569 -0.0003301164 0)
(22.98573 -0.0002238695 0)
(22.98575 -0.0001169737 0)
(33.2439 -0.0002326084 0)
(25.15055 -0.0004072348 0)
(21.87995 -0.0005284406 0)
(22.74714 -0.0006443319 0)
(23.07866 -0.0007588029 0)
(22.98594 -0.000867962 0)
(22.95248 -0.0009717992 0)
(22.96249 -0.001071626 0)
(22.966 -0.001168047 0)
(22.96507 -0.001261183 0)
(22.96487 -0.001351093 0)
(22.96513 -0.001437808 0)
(22.96533 -0.001521309 0)
(22.96549 -0.001601555 0)
(22.96567 -0.001678502 0)
(22.96586 -0.001752121 0)
(22.96606 -0.001822394 0)
(22.96627 -0.001889325 0)
(22.96648 -0.001952932 0)
(22.9667 -0.002013256 0)
(22.96693 -0.002070349 0)
(22.96716 -0.00212428 0)
(22.9674 -0.002175129 0)
(22.96765 -0.002222986 0)
(22.96789 -0.002267946 0)
(22.96815 -0.002310113 0)
(22.9684 -0.002349593 0)
(22.96866 -0.002386491 0)
(22.96893 -0.002420918 0)
(22.96919 -0.002452981 0)
(22.96946 -0.002482784 0)
(22.96974 -0.002510431 0)
(22.97001 -0.002536022 0)
(22.97029 -0.002559652 0)
(22.97057 -0.002581412 0)
(22.97085 -0.00260139 0)
(22.97113 -0.002619665 0)
(22.97142 -0.002636314 0)
(22.9717 -0.002651407 0)
(22.97199 -0.002665009 0)
(22.97228 -0.002677178 0)
(22.97257 -0.002687968 0)
(22.97286 -0.002697426 0)
(22.97316 -0.002705593 0)
(22.97345 -0.002712506 0)
(22.97374 -0.002718194 0)
(22.97404 -0.002722681 0)
(22.97433 -0.002725985 0)
(22.97462 -0.00272812 0)
(22.97492 -0.002729092 0)
(22.97521 -0.002728901 0)
(22.97551 -0.002727544 0)
(22.9758 -0.002725009 0)
(22.9761 -0.002721281 0)
(22.97639 -0.002716336 0)
(22.97669 -0.002710147 0)
(22.97698 -0.00270268 0)
(22.97727 -0.002693894 0)
(22.97756 -0.002683742 0)
(22.97785 -0.002672174 0)
(22.97814 -0.002659129 0)
(22.97843 -0.002644544 0)
(22.97872 -0.002628347 0)
(22.979 -0.002610462 0)
(22.97929 -0.002590804 0)
(22.97957 -0.002569285 0)
(22.97985 -0.002545809 0)
(22.98013 -0.002520276 0)
(22.9804 -0.002492578 0)
(22.98068 -0.002462605 0)
(22.98095 -0.00243024 0)
(22.98122 -0.002395362 0)
(22.98148 -0.002357848 0)
(22.98174 -0.002317571 0)
(22.98199 -0.002274404 0)
(22.98225 -0.002228218 0)
(22.98249 -0.002178886 0)
(22.98274 -0.002126282 0)
(22.98297 -0.002070287 0)
(22.9832 -0.002010787 0)
(22.98343 -0.001947675 0)
(22.98365 -0.001880856 0)
(22.98386 -0.00181025 0)
(22.98406 -0.001735792 0)
(22.98426 -0.001657437 0)
(22.98445 -0.001575159 0)
(22.98463 -0.001488963 0)
(22.9848 -0.001398877 0)
(22.98496 -0.001304962 0)
(22.98511 -0.001207312 0)
(22.98524 -0.001106056 0)
(22.98537 -0.00100136 0)
(22.98549 -0.0008934276 0)
(22.98559 -0.0007825 0)
(22.98568 -0.0006688549 0)
(22.98576 -0.0005528057 0)
(22.98582 -0.0004346962 0)
(22.98587 -0.0003149062 0)
(22.9859 -0.0001938085 0)
(22.98593 -7.195667e-05 0)
(33.2438 -0.0002354224 0)
(25.15048 -0.0004240101 0)
(21.87991 -0.0005576473 0)
(22.74709 -0.0006857706 0)
(23.07862 -0.0008135387 0)
(22.98591 -0.000936193 0)
(22.95245 -0.001053209 0)
(22.96247 -0.001165808 0)
(22.96598 -0.001274565 0)
(22.96505 -0.001379575 0)
(22.96485 -0.001480883 0)
(22.96512 -0.001578519 0)
(22.96532 -0.001672464 0)
(22.96548 -0.001762674 0)
(22.96567 -0.001849106 0)
(22.96586 -0.001931732 0)
(22.96607 -0.002010539 0)
(22.96628 -0.002085536 0)
(22.96649 -0.002156754 0)
(22.96672 -0.002224243 0)
(22.96695 -0.002288072 0)
(22.96718 -0.002348325 0)
(22.96743 -0.002405101 0)
(22.96767 -0.002458507 0)
(22.96792 -0.002508661 0)
(22.96818 -0.002555685 0)
(22.96844 -0.002599703 0)
(22.9687 -0.002640844 0)
(22.96897 -0.002679235 0)
(22.96924 -0.002715 0)
(22.96951 -0.002748264 0)
(22.96978 -0.002779147 0)
(22.97006 -0.002807764 0)
(22.97034 -0.002834225 0)
(22.97062 -0.002858635 0)
(22.9709 -0.002881095 0)
(22.97119 -0.002901696 0)
(22.97148 -0.002920526 0)
(22.97177 -0.002937664 0)
(22.97205 -0.002953185 0)
(22.97235 -0.002967156 0)
(22.97264 -0.002979637 0)
(22.97293 -0.002990681 0)
(22.97322 -0.003000337 0)
(22.97352 -0.003008643 0)
(22.97381 -0.003015634 0)
(22.97411 -0.003021338 0)
(22.9744 -0.003025774 0)
(22.9747 -0.003028959 0)
(22.97499 -0.003030898 0)
(22.97529 -0.003031594 0)
(22.97559 -0.003031041 0)
(22.97588 -0.003029228 0)
(22.97618 -0.003026137 0)
(22.97647 -0.003021742 0)
(22.97677 -0.003016014 0)
(22.97706 -0.003008912 0)
(22.97736 -0.003000394 0)
(22.97765 -0.002990408 0)
(22.97794 -0.002978894 0)
(22.97824 -0.002965788 0)
(22.97853 -0.002951018 0)
(22.97881 -0.002934505 0)
(22.9791 -0.002916162 0)
(22.97939 -0.002895896 0)
(22.97967 -0.002873607 0)
(22.97996 -0.002849188 0)
(22.98024 -0.002822526 0)
(22.98051 -0.002793501 0)
(22.98079 -0.002761987 0)
(22.98106 -0.002727852 0)
(22.98133 -0.00269096 0)
(22.9816 -0.002651171 0)
(22.98186 -0.002608339 0)
(22.98212 -0.002562319 0)
(22.98238 -0.002512964 0)
(22.98263 -0.002460125 0)
(22.98287 -0.002403657 0)
(22.98311 -0.002343421 0)
(22.98335 -0.002279281 0)
(22.98358 -0.002211111 0)
(22.9838 -0.002138798 0)
(22.98402 -0.002062241 0)
(22.98422 -0.001981359 0)
(22.98442 -0.001896092 0)
(22.98462 -0.001806403 0)
(22.9848 -0.001712285 0)
(22.98497 -0.001613763 0)
(22.98514 -0.001510895 0)
(22.98529 -0.001403779 0)
(22.98543 -0.001292554 0)
(22.98556 -0.001177401 0)
(22.98568 -0.001058545 0)
(22.98579 -0.0009362555 0)
(22.98588 -0.0008108458 0)
(22.98596 -0.0006826714 0)
(22.98603 -0.000552124 0)
(22.98608 -0.0004196388 0)
(22.98611 -0.000285644 0)
(22.98614 -0.0001507763 0)
(33.24369 -0.0002460375 0)
(25.15039 -0.0004509605 0)
(21.87984 -0.0005985709 0)
(22.74703 -0.0007411467 0)
(23.07856 -0.0008847165 0)
(22.98585 -0.001023483 0)
(22.9524 -0.001156291 0)
(22.96242 -0.001284114 0)