/*--------------------------------*- C++ -*----------------------------------*\
| =========                 |                                                 |
| \\      /  F ield         | OpenFOAM: The Open Source CFD Toolbox           |
|  \\    /   O peration     | Version:  1.6.x                                 |
|   \\  /    A nd           | Web:      www.OpenFOAM.org                      |
|    \\/     M anipulation  |                                                 |
\*---------------------------------------------------------------------------*/
FoamFile
{
    version     2.0;
    format      ascii;
    class       volScalarField;
    location    "2";
    object      alphat;
}
// * * * * * * * * * * * * * * * * * * * * * * * * * * * * * * * * * * * * * //

dimensions      [1 -1 -1 0 0 0 0];

internalField   nonuniform List<scalar> 
4608
(
0.000474044
0.000480729
0.000452553
0.000343958
0.000477595
0.000443087
0.000381095
0.000464174
0.000297755
0.000907789
0.000474796
0.00041914
0.000368926
0.000426474
0.000386299
0.000468621
0.000304491
0.000428251
0.000302753
0.000472148
0.000397962
0.000366472
0.000433468
0.000419019
0.000394536
0.000467792
0.000331937
0.000346722
0.000462102
2.90405e-05
0.00010621
0.000469603
0.00037924
0.000366389
0.000444727
0.000415096
0.000404516
0.000463139
0.000344408
0.000329278
0.000364742
0.000285527
6.5609e-05
2.61456e-05
8.59144e-05
0.000467106
0.000361862
0.000368985
0.000459371
0.000413525
0.000414382
0.000456373
0.000350097
0.000331122
0.00034893
0.000385998
0.000158477
9.70679e-05
8.12612e-05
2.61386e-05
6.98152e-05
0.000464589
0.000346267
0.000374132
0.000478837
0.000413877
0.000423474
0.000448347
0.000355052
0.000341363
0.000334132
0.000467133
0.000267484
0.000150775
2.8806e-05
0.000102026
8.05478e-05
2.59148e-05
0.000192191
0.000461961
0.000332545
0.000381842
0.000501657
0.000415842
0.000431453
0.000439618
0.00036159
0.000356913
0.000341085
0.000499015
0.000392107
0.000216441
0.000158303
2.85864e-05
0.000101642
8.03807e-05
2.57068e-05
0.000125064
0.000459081
0.000320877
0.000392348
0.000522642
0.000419085
0.000437804
0.000430814
0.000370246
0.000376273
0.000360447
0.000553626
0.000480233
0.000304071
0.000198491
0.000165903
2.85126e-05
0.000101268
8.03637e-05
2.5412e-05
5.15061e-05
0.000455766
0.000311483
0.000405701
0.000545991
0.000423154
0.000442528
0.00042243
0.000380353
0.000398012
0.000386104
0.000589299
0.000554975
0.000384278
0.000267839
0.000189341
0.000122348
2.84684e-05
0.000101603
8.00139e-05
2.50314e-05
1.04319e-05
0.00045177
0.000304701
0.000422014
0.000570572
0.000427538
0.000445385
0.000414582
0.000392452
0.000420455
0.000414673
0.000623505
0.000614536
0.000452288
0.000348575
0.000243417
0.000154875
5.09863e-05
2.84089e-05
0.000101767
7.94189e-05
2.45374e-05
1.29254e-05
0.000446728
0.000300965
0.000441408
0.000596087
0.000431705
0.000445962
0.000407314
0.000406132
0.000441878
0.000443925
0.000657963
0.000660144
0.000535755
0.000423673
0.000324405
0.000197467
8.42226e-05
1.03999e-05
2.83179e-05
0.000101807
7.84551e-05
2.39076e-05
0.00011338
0.000440133
0.000300888
0.00046401
0.00062143
0.000435194
0.000444186
0.000401055
0.00042213
0.000463677
0.00047329
0.000690499
0.00070707
0.00060324
0.000495186
0.000406119
0.000275592
0.000123099
2.38414e-05
9.62629e-06
2.81872e-05
0.000101635
7.70273e-05
2.31255e-05
0.000366043
0.000431278
0.000305379
0.000490524
0.000645504
0.000437669
0.000440217
0.000397567
0.000441653
0.000486505
0.000503213
0.000724055
0.000755274
0.000666473
0.000553595
0.000481162
0.000364846
0.000206862
4.50833e-05
5.62196e-06
7.96965e-05
2.79961e-05
0.000101147
7.50021e-05
2.21968e-05
0.00055883
0.000418965
0.000315701
0.000522965
0.00067073
0.000438962
0.000434593
0.000397428
0.000465436
0.000510756
0.000533844
0.00075829
0.000806209
0.000723705
0.000603379
0.000543324
0.000449216
0.000301384
0.000102489
7.80154e-06
2.84172e-05
0.00029465
2.77178e-05
0.000101509
7.20069e-05
2.11662e-05
0.000636011
0.000400533
0.000334009
0.000561167
0.000698397
0.000438959
0.000428102
0.000401129
0.00049322
0.0005376
0.000564979
0.000792674
0.000856162
0.000780503
0.000661103
0.00059458
0.000521964
0.000396596
0.000201549
2.43497e-05
1.09322e-05
0.000157246
0.00051395
2.72995e-05
0.000100604
6.8282e-05
2.00967e-05
0.000660197
0.000372327
0.000364147
0.000608301
0.000724696
0.000437664
0.000421793
0.000409354
0.000522978
0.000566552
0.00059884
0.000827432
0.000904214
0.000837371
0.000719277
0.00064075
0.000583342
0.000482857
0.000316051
7.99825e-05
4.8251e-06
8.71809e-05
0.000376444
0.000622589
2.66068e-05
9.69971e-05
6.43079e-05
1.90587e-05
0.000666457
0.000342
0.000410473
0.000667629
0.00074893
0.000435219
0.000416624
0.000421844
0.00055189
0.000595628
0.000634872
0.000863041
0.000948331
0.000893
0.000779173
0.000684836
0.000636017
0.000556543
0.000417711
0.000174544
1.28579e-05
3.37898e-05
0.000278612
0.000548407
0.000659487
2.55653e-05
9.17461e-05
6.03344e-05
1.81392e-05
0.00066781
0.000303478
0.00047512
0.000720858
0.000769093
0.0004319
0.000413045
0.0004378
0.000573394
0.000621911
0.000672007
0.000899438
0.00099227
0.00094135
0.000839949
0.000737733
0.000684073
0.000619741
0.000507296
0.000313597
4.87525e-05
8.04073e-06
0.00018347
0.000474532
0.000633362
0.000669042
2.42186e-05
8.66563e-05
5.64029e-05
1.74393e-05
0.000667875
0.00025823
0.000564984
0.000769891
0.000783487
0.000428064
0.000411356
0.000453651
0.000590135
0.000640539
0.000709007
0.000936859
0.00103663
0.000995464
0.000888015
0.000800447
0.000731174
0.000676314
0.00058384
0.000424175
0.000145146
6.38648e-06
8.18578e-05
0.000397848
0.000596206
0.000663653
0.000670591
2.25805e-05
7.95471e-05
5.29522e-05
1.70307e-05
0.000667693
0.000718298
0.000787463
0.000793292
0.000424104
0.000410871
0.000472955
0.000563133
0.000654035
0.000745375
0.000975233
0.00108144
0.00104898
0.000951812
0.000845646
0.000777597
0.000728875
0.000650884
0.000518755
0.00027491
2.83346e-05
2.5052e-05
0.000293065
0.0005535
0.000651292
0.00067153
0.000670371
2.06377e-05
7.09928e-05
5.0104e-05
1.69615e-05
0.000667484
0.000803448
0.000799814
0.000420171
0.000412179
0.000480292
0.000426006
0.000637833
0.000783426
0.00101548
0.00112562
0.00110205
0.00101051
0.000916221
0.000818733
0.000778931
0.000711744
0.000601249
0.000409314
9.66773e-05
6.75586e-06
0.000176555
0.000494591
0.000633533
0.00067002
0.000672481
0.000669926
1.86665e-05
6.16592e-05
4.80328e-05
1.75807e-05
0.000667219
0.000806889
0.000415928
0.00041418
0.000432638
0.000422703
0.000572848
0.000796726
0.00105604
0.00117363
0.00115465
0.00106913
0.000978016
0.000864477
0.000825671
0.000769092
0.000674058
0.000513286
0.000209693
1.31887e-05
6.58489e-05
0.000415282
0.000608532
0.000665745
0.00067416
0.000671906
0.000669574
1.70608e-05
5.30956e-05
4.87527e-05
1.90176e-05
0.000667221
0.000410929
0.000403933
0.000388399
0.000482688
0.00059801
0.000798723
0.00108121
0.0012157
0.00120614
0.0011267
0.00103987
0.000917887
0.000872191
0.000823422
0.00074056
0.000603548
0.000354941
4.86823e-05
1.6781e-05
0.000291835
0.000574381
0.00065825
0.000675075
0.000673979
0.000671249
0.000669251
1.61067e-05
4.70951e-05
4.94354e-05
2.08278e-05
0.000667698
0.000403715
0.000382324
0.00037587
0.000562714
0.000664373
0.000851604
0.00110161
0.00125155
0.00125469
0.00118227
0.0011002
0.000982587
0.000918365
0.000875888
0.000803428
0.000684597
0.000482234
0.000137206
7.85793e-06
0.000151886
0.000514615
0.000646947
0.000674954
0.000676087
0.000673022
0.000670646
0.00066886
1.59225e-05
4.56828e-05
5.52829e-05
0.000667833
0.000392646
0.000358891
0.000400473
0.000618178
0.000741473
0.00091911
0.00114702
0.00128891
0.00130188
0.0012357
0.00115808
0.00104531
0.000965713
0.000926245
0.000863447
0.000759805
0.000584214
0.000255304
2.06602e-05
5.70524e-05
0.000416984
0.000627586
0.000673534
0.000678125
0.000674982
0.000672094
0.000669982
0.000668718
1.74333e-05
5.04448e-05
0.00066793
0.0003783
0.000345117
0.000417985
0.000661948
0.00079846
0.00098758
0.00120256
0.0013368
0.00134788
0.00128842
0.00121458
0.00110575
0.00101192
0.00097564
0.000920246
0.000829512
0.000676696
0.000404146
6.311e-05
1.6026e-05
0.000289401
0.000591137
0.000669772
0.000679997
0.000677147
0.000673685
0.000671181
0.000669622
0.000668516
1.93525e-05
0.000667845
0.000362656
0.000337958
0.000352932
0.000732833
0.000846588
0.00104295
0.00125647
0.00137971
0.00139605
0.00133934
0.00127105
0.00116461
0.00105685
0.00102392
0.000975033
0.000894191
0.000760799
0.000534348
0.000155834
9.66101e-06
0.000151365
0.000530463
0.000660959
0.000681415
0.000679517
0.000675482
0.000672469
0.000670605
0.000669196
0.0006684
0.000667249
0.000346228
0.000309053
0.000388813
0.000828657
0.00091329
0.00109202
0.00130413
0.00142054
0.00144319
0.00138844
0.00132574
0.00122501
0.00109998
0.00107047
0.00102806
0.00095549
0.000837649
0.000639466
0.000276223
2.33963e-05
6.2166e-05
0.000433241
0.000644028
0.000681677
0.000682021
0.000677517
0.000673892
0.000671657
0.00066998
0.000669053
0.000668228
0.00066772
0.000324377
0.00029256
0.00049459
0.000920606
0.000997626
0.00115276
0.00135002
0.00146515
0.00148327
0.00144105
0.00137509
0.00128428
0.00116037
0.0011138
0.00107969
0.00101429
0.000909203
0.00073362
0.000424566
6.51064e-05
2.03458e-05
0.000311678
0.000610206
0.000679792
0.000684489
0.000679792
0.000675487
0.0006728
0.000670837
0.000669764
0.000668792
0.000668093
0.000666945
0.000299879
0.00031819
0.000591818
0.001017
0.0010797
0.00122362
0.00140572
0.00151159
0.00152756
0.00148651
0.00143116
0.00133214
0.00122262
0.00115709
0.00112803
0.00107172
0.000976374
0.000819881
0.00056176
0.000152383
1.12733e-05
0.000180203
0.000555932
0.000673376
0.000686655
0.000682279
0.000677278
0.000674077
0.000671757
0.000670518
0.00066937
0.000668609
0.000667822
0.000667574
0.00028225
0.000351319
0.000696394
0.00112549
0.00116608
0.0012922
0.00146698
0.0015669
0.00157673
0.00153132
0.00148049
0.00139593
0.00126504
0.00119964
0.00117338
0.001126
0.00104073
0.000899737
0.000670411
0.000269984
2.12445e-05
8.34877e-05
0.000472504
0.000660169
0.000687948
0.000684919
0.000679274
0.0006755
0.000672859
0.000671323
0.000669969
0.000669195
0.000668327
0.00066781
0.000666638
0.000272266
0.000324755
0.000833478
0.00124066
0.00126104
0.00136496
0.0015219
0.00162068
0.00163219
0.00158081
0.00152685
0.00145049
0.00134094
0.00124139
0.00121909
0.00117674
0.00110181
0.000975652
0.000768081
0.000409461
5.52113e-05
3.15835e-05
0.000363161
0.000634212
0.000687619
0.000687595
0.000681471
0.000677064
0.000673956
0.000672178
0.000670598
0.000669793
0.000668795
0.000668224
0.00066741
0.000667059
0.00025031
0.000455393
0.000990905
0.00135877
0.00136074
0.00144385
0.00158088
0.00166686
0.00168576
0.00163641
0.0015775
0.00149975
0.00139753
0.00129057
0.00126616
0.00122879
0.00115924
0.00104731
0.000859937
0.000555102
0.00012628
1.44102e-05
0.000238014
0.000591894
0.000684148
0.000690125
0.000683853
0.000678774
0.000675093
0.000673137
0.000671226
0.000670415
0.000669271
0.000668727
0.000667892
0.000667398
0.000666425
0.000265028
0.000656774
0.00115369
0.0014737
0.00146217
0.00152462
0.00164348
0.00171635
0.0017308
0.00169149
0.00163332
0.00155311
0.00144919
0.00133244
0.00131377
0.00128222
0.00121793
0.00111379
0.000945739
0.000677306
0.000234576
1.68706e-05
0.000128726
0.000527178
0.000675899
0.000692165
0.000686389
0.000680638
0.00067633
0.000674099
0.000671856
0.000671037
0.000669757
0.000669232
0.00066831
0.000667927
0.000667018
0.000666254
0.000339288
0.000901423
0.00131237
0.00158587
0.00156067
0.00160515
0.0017073
0.00176912
0.00177676
0.00173816
0.00168873
0.00161009
0.00150547
0.0013812
0.00135633
0.00133377
0.00127789
0.00117991
0.00102565
0.000782003
0.000358617
3.86528e-05
5.84604e-05
0.00043735
0.000659169
0.000693242
0.00068902
0.00068266
0.000677674
0.000675092
0.000672611
0.000671676
0.000670261
0.00066975
0.000668733
0.000668407
0.000667412
0.000665891
0.000635994
0.000654337
0.00113897
0.00146429
0.00169428
0.00165696
0.0016828
0.00176902
0.00182156
0.00182508
0.00178199
0.00173645
0.00166626
0.00156422
0.00144005
0.00139802
0.00138064
0.00133496
0.00124707
0.00110393
0.000879045
0.0005104
8.66202e-05
2.46819e-05
0.000326682
0.000630557
0.000692495
0.00069165
0.00068484
0.000679134
0.000676157
0.000673464
0.000672376
0.000670789
0.000670289
0.000669156
0.000668855
0.000667745
0.000664952
0.000607679
9.45748e-05
0.00100944
0.00135111
0.00160428
0.00179597
0.00175104
0.00175865
0.00182929
0.00187227
0.00187434
0.00182949
0.00177904
0.00171503
0.0016215
0.00149968
0.00144263
0.00142535
0.00138734
0.00131104
0.00118092
0.00097252
0.00065165
0.000173523
1.57439e-05
0.000210361
0.000586348
0.000688749
0.000694102
0.000687172
0.000680746
0.000677326
0.000674405
0.000673155
0.000671345
0.000670854
0.000669584
0.000669307
0.000668034
0.000663514
0.000583718
9.38334e-05
0.00128601
0.00152857
0.00172836
0.00188882
0.00184089
0.0018337
0.00188798
0.0019253
0.00192228
0.00187889
0.00182681
0.00175571
0.00167143
0.00155763
0.00148929
0.00147138
0.00143714
0.00136999
0.00125363
0.00106221
0.000770123
0.000289322
2.33499e-05
0.000115931
0.000521557
0.000680625
0.000696094
0.000689632
0.000682524
0.00067861
0.000675475
0.000673991
0.000671929
0.000671445
0.000670024
0.000669769
0.000668292
0.000661653
0.000562791
9.31146e-05
0.00148943
0.00167417
0.00183658
0.00197237
0.00192456
0.00190725
0.00194587
0.00197526
0.00197032
0.00192626
0.00187696
0.00180535
0.00170869
0.00160831
0.00153545
0.00151924
0.00148754
0.00142601
0.00132139
0.00114655
0.000876791
0.000421831
5.06221e-05
5.54826e-05
0.000435346
0.000664558
0.00069725
0.000692171
0.000684453
0.000680003
0.000676561
0.000674907
0.000672535
0.000672062
0.000670481
0.000670247
0.000668662
0.00065943
0.000544322
9.24151e-05
0.00164635
0.00179542
0.00193102
0.00204715
0.00200112
0.00197788
0.00200284
0.00202425
0.00201728
0.00197315
0.0019243
0.00185766
0.00176304
0.0016386
0.00157621
0.00156662
0.00153932
0.00148179
0.00138524
0.00122565
0.000976692
0.000575485
0.00010518
2.60802e-05
0.000330506
0.000638379
0.000696861
0.000694715
0.000686526
0.000681499
0.00067765
0.000675857
0.000673104
0.00067267
0.000670955
0.000670743
0.000668907
0.000656947
0.000527877
9.17512e-05
0.00177417
0.00189867
0.0020139
0.00211392
0.00207052
0.00204429
0.00205832
0.00207197
0.00206269
0.00201916
0.00197079
0.00190543
0.0018187
0.00170298
0.00161436
0.00160922
0.00159003
0.00153825
0.00144759
0.00130045
0.00107066
0.000717898
0.000195221
1.83025e-05
0.000220603
0.00059866
0.000694143
0.000697134
0.000688704
0.000683098
0.000678759
0.000676824
0.000673717
0.000673293
0.000671441
0.00067125
0.000669019
0.000654264
0.000513092
9.10505e-05
0.00188197
0.00198799
0.0020869
0.00217332
0.00213305
0.00210575
0.00211151
0.00211821
0.00210578
0.00206342
0.00201643
0.00195232
0.0018672
0.00176334
0.00166143
0.00165114
0.00163728
0.00159315
0.00150959
0.00137254
0.00115899
0.000838521
0.000311625
2.61389e-05
0.000128263
0.000541262
0.00068735
0.000699248
0.000690988
0.0006848
0.000679907
0.000677797
0.000674396
0.000673949
0.000671939
0.000671762
0.00066903
0.00065143
0.000499686
9.03824e-05
0.00197465
0.00206591
0.00215121
0.00222598
0.00218905
0.002162
0.00216178
0.00216263
0.00214727
0.00210589
0.00206012
0.00199835
0.00191534
0.00181139
0.0017122
0.00169806
0.00168412
0.00164544
0.00156958
0.00144284
0.00124303
0.00094491
0.000439951
5.20589e-05
6.65714e-05
0.000464001
0.000674797
0.000700751
0.000693357
0.000686606
0.000681107
0.000678777
0.000675137
0.000674645
0.000672449
0.000672278
0.00066896
0.000648474
0.000487438
8.97584e-05
0.00205511
0.00213407
0.0022078
0.00227251
0.00223895
0.00221293
0.00220865
0.00220494
0.00218698
0.00214638
0.00210229
0.00204185
0.00196273
0.00186017
0.00175785
0.00174946
0.0017334
0.00169758
0.00162726
0.00151045
0.00132391
0.00104514
0.000592866
0.000101038
3.34732e-05
0.000368355
0.000654337
0.000701227
0.00069577
0.000688517
0.000682375
0.000679776
0.00067593
0.000675379
0.000672972
0.000672795
0.000668816
0.000645413
0.000476169
8.91707e-05
0.00212526
0.00219372
0.00225753
0.00231359
0.00228321
0.00225868
0.0022517
0.00224478
0.00222485
0.00218497
0.00214222
0.0020843
0.00200653
0.0019077
0.001801
0.00179687
0.00178515
0.00175052
0.00168502
0.00157577
0.00140149
0.00114093
0.000739176
0.000181988
2.16044e-05
0.000264266
0.000623207
0.000700101
0.000698155
0.000690542
0.000683731
0.000680811
0.000676781
0.000676146
0.000673507
0.000673312
0.000668612
0.000642261
0.000465733
8.86121e-05
0.00218649
0.00224593
0.00230122
0.00234985
0.00232243
0.00229952
0.00229082
0.0022816
0.00226065
0.00222179
0.00218016
0.00212412
0.00205002
0.00195231
0.00184446
0.00183864
0.00183483
0.00180408
0.0017426
0.00164014
0.0014764
0.00123209
0.000868615
0.000290762
2.45835e-05
0.000169365
0.000578113
0.000696667
0.000700403
0.000692682
0.000685141
0.000681852
0.000677739
0.000676947
0.000674057
0.00067379
0.000668262
0.000639031
0.00045602
8.80781e-05
0.00223996
0.00229163
0.00233959
0.00238169
0.00235717
0.00233593
0.00232604
0.00231529
0.00229362
0.00225667
0.0022164
0.00216187
0.00209039
0.00199708
0.00188813
0.0018808
0.00188031
0.00185631
0.00179945
0.00170359
0.00154972
0.0013191
0.000980574
0.000413362
4.2644e-05
9.81273e-05
0.000516634
0.000689338
0.000702368
0.000694924
0.000686638
0.000682939
0.000678729
0.000677796
0.000674576
0.000674249
0.000667846
0.000635737
0.000446934
8.75659e-05
0.00228669
0.00233163
0.00237314
0.0024093
0.00238777
0.00236837
0.00235777
0.00234576
0.00232395
0.00228856
0.00225081
0.00219805
0.00212859
0.00203888
0.00193447
0.00192319
0.0019249
0.00190572
0.00185498
0.00176526
0.00162104
0.00140319
0.00108484
0.000556528
7.92223e-05
5.33512e-05
0.000437889
0.000676176
0.000703814
0.000697242
0.000688236
0.000684088
0.000679728
0.000678671
0.000675097
0.000674701
0.000667387
0.000632392
0.000438401
8.70733e-05
0.00232753
0.00236652
0.00240217
0.00243268
0.00241435
0.00239709
0.00238638
0.00237357
0.00235135
0.00231805
0.00228208
0.00223262
0.00216548
0.00207859
0.00197795
0.00196985
0.00196922
0.00195356
0.00190844
0.0018251
0.00168987
0.00148446
0.00118467
0.000708525
0.000141797
3.06768e-05
0.000345722
0.000655636
0.000704241
0.000699602
0.000689944
0.000685313
0.000680732
0.000679558
0.00067564
0.000675211
0.000666887
0.000629007
0.000430366
8.65986e-05
0.00236311
0.00239665
0.00242673
0.00245179
0.00243686
0.00242212
0.00241193
0.00239899
0.0023768
0.00234456
0.00231116
0.0022636
0.00220107
0.00211698
0.00201963
0.00201185
0.0020155
0.00200069
0.00196019
0.00188308
0.00175658
0.00156274
0.00128069
0.00085151
0.000232615
2.43143e-05
0.000249361
0.000625438
0.000703058
0.000701942
0.000691753
0.000686616
0.000681749
0.000680455
0.000676215
0.000675722
0.000666348
0.000625589
0.000422776
8.61418e-05
0.0023938
0.00242215
0.00244682
0.00246669
0.00245523
0.00244332
0.00243429
0.00242187
0.0024004
0.00236961
0.00233717
0.00229283
0.00223244
0.00215418
0.00206016
0.00205246
0.00205943
0.00204834
0.00201078
0.00193931
0.00182131
0.00163838
0.00137249
0.000977455
0.000346333
3.10885e-05
0.000163412
0.000582877
0.000699605
0.000704166
0.000693655
0.000687996
0.000682786
0.000681363
0.000676827
0.000676207
0.000665768
0.000622149
0.00041558
8.56957e-05
0.00241977
0.00244303
0.00246251
0.00247753
0.00246955
0.00246061
0.00245318
0.0024419
0.00242175
0.00239304
0.00236215
0.00231869
0.00226267
0.00218759
0.00209973
0.00209305
0.00210221
0.00209469
0.00206101
0.00199414
0.00188415
0.00171168
0.00146017
0.00108985
0.000470003
5.24319e-05
9.9329e-05
0.000525552
0.000692942
0.00070615
0.000695639
0.000689456
0.00068385
0.000682283
0.000677472
0.000676663
0.000665149
0.000618694
0.000408771
8.52959e-05
0.00244106
0.00245938
0.00247396
0.00248471
0.00247994
0.00247408
0.0024685
0.00245871
0.00244039
0.00241414
0.00238563
0.00234427
0.00228884
0.00221955
0.00213598
0.00213343
0.00214429
0.00214015
0.00211039
0.00204814
0.00194514
0.00178285
0.00154441
0.00119524
0.000616203
9.10915e-05
5.78135e-05
0.000452914
0.000681832
0.000707719
0.000697681
0.000691075
0.000684951
0.000683216
0.000678142
0.000677095
0.000664491
0.000615232
0.000402319
8.47316e-05
0.00245775
0.00247136
0.00248159
0.00248896
0.00248678
0.00248381
0.00248045
0.00247226
0.00245588
0.00243257
0.00240671
0.00236859
0.00231582
0.00224763
0.00217094
0.00217234
0.00218588
0.00218474
0.00215896
0.00210128
0.0020044
0.00185194
0.00162591
0.00129597
0.000768792
0.000154195
3.55313e-05
0.000367525
0.000664786
0.00070863
0.000699751
0.000692818
0.000686097
0.000684165
0.000678829
0.000677503
0.000663796
0.000611769
0.000396192
8.41576e-05
0.00247
0.0024794
0.00248614
0.00249113
0.00249083
0.00249019
0.00248902
0.00248294
0.0024683
0.00244779
0.00242516
0.00239017
0.00234201
0.00227706
0.00220318
0.00220918
0.00222646
0.00222855
0.00220662
0.00215359
0.00206227
0.0019191
0.001705
0.00139323
0.00091355
0.000243146
2.81315e-05
0.000276972
0.00063995
0.000708554
0.000701809
0.000694665
0.000687296
0.000685135
0.000679528
0.000677887
0.000663064
0.00060831
0.000390364
8.35928e-05
0.00247825
0.00248423
0.00248848
0.00249217
0.00249287
0.00249396
0.00249462
0.00249058
0.00247845
0.00245999
0.00244032
0.0024092
0.00236497
0.0023059
0.00223795
0.00224791
0.00226457
0.00227126
0.00225345
0.002205
0.00211905
0.00198456
0.0017818
0.00148715
0.00104345
0.000353924
3.30654e-05
0.000192446
0.000605177
0.000707057
0.000703801
0.000696592
0.000688556
0.000686131
0.000680239
0.000678248
0.000662294
0.000604858
0.000384806
8.30382e-05
0.00248323
0.00248674
0.0024896
0.00249323
0.00249387
0.00249584
0.00249799
0.00249564
0.00248577
0.00247044
0.0024525
0.00242452
0.00238535
0.00233193
0.00227522
0.00228781
0.00230451
0.00231255
0.00229927
0.00225558
0.00217492
0.00204856
0.0018565
0.00157746
0.00116061
0.000476749
5.09916e-05
0.000125143
0.000558308
0.000703626
0.000705695
0.000698535
0.000689882
0.000687154
0.000680964
0.000678587
0.000661486
0.000601417
0.000379493
8.24934e-05
0.00248584
0.00248795
0.00249064
0.00249543
0.00249497
0.0024968
0.00249972
0.00249895
0.00249079
0.00247811
0.00246334
0.00243711
0.00240224
0.00235569
0.00231355
0.00232773
0.00234531
0.0023544
0.00234399
0.00230523
0.00223006
0.00211114
0.00192936
0.00166444
0.00127051
0.000616921
8.43975e-05
7.78797e-05
0.000498012
0.000696468
0.000707426
0.000700516
0.000691273
0.000688214
0.0006817
0.000678904
0.00066064
0.00059799
0.000374401
8.1958e-05
0.00248709
0.00248899
0.00249274
0.00249957
0.00249727
0.00249798
0.00250077
0.00250084
0.00249471
0.0024837
0.00247138
0.00244912
0.00241653
0.00237583
0.0023489
0.00236714
0.00238676
0.00239644
0.00238842
0.00235387
0.00228424
0.0021721
0.00200049
0.00174866
0.00137556
0.000771926
0.000138283
4.87398e-05
0.000425404
0.00068497
0.00070871
0.00070253
0.000692726
0.000689318
0.000682465
0.0006792
0.000659758
0.000594577
0.000369512
8.14315e-05
0.00248813
0.00249101
0.00249677
0.00250694
0.00250153
0.00250045
0.00250234
0.0025023
0.00249731
0.00248849
0.00247757
0.00245848
0.00242973
0.00239404
0.00238178
0.00240468
0.00242713
0.00243828
0.00243254
0.00240175
0.00233736
0.00223161
0.00206991
0.00183055
0.00147688
0.00092304
0.000216736
3.47048e-05
0.000343091
0.000667939
0.000709296
0.000704558
0.000694237
0.000690467
0.000683266
0.000679476
0.00065884
0.000591183
0.000364808
8.09138e-05
0.00249011
0.00249492
0.00250401
0.00252047
0.00250901
0.00250487
0.00250536
0.00250479
0.00249984
0.00249211
0.00248334
0.00246655
0.00244178
0.00241152
0.0024141
0.00243942
0.00246543
0.00247944
0.00247614
0.00244891
0.00238947
0.00228981
0.00213764
0.00191031
0.00157534
0.00106444
0.000318113
3.31926e-05
0.000258161
0.000643684
0.000708867
0.000706569
0.000695804
0.000691657
0.000684067
0.000679734
0.00065789
0.000587808
0.000360275
8.04043e-05
0.00249396
0.002502
0.002517
0.00254091
0.00252304
0.00251251
0.00251048
0.00250906
0.00250409
0.0024963
0.00248783
0.00247434
0.00245433
0.00243216
0.00244673
0.00247357
0.00250063
0.00251911
0.00251889
0.00249524
0.0024406
0.00234691
0.00220372
0.00198799
0.00167049
0.00119079
0.000437163
4.32835e-05
0.000181736
0.000610087
0.000707011
0.000708522
0.000697417
0.000692886
0.000684848
0.000679972
0.000656909
0.000584456
0.000355901
7.99029e-05
0.00250096
0.00251457
0.00253675
0.00257015
0.00254414
0.00252732
0.00251859
0.00251572
0.00251087
0.0025025
0.00249366
0.00248113
0.00246734
0.00246192
0.00248157
0.0025073
0.00253567
0.00255647
0.00256037
0.00254058
0.00249067
0.00240292
0.00226791
0.0020636
0.00176224
0.00130875
0.000564895
6.66363e-05
0.000121671
0.000565209
0.000703179
0.000710358
0.000699069
0.000694149
0.000685608
0.000680191
0.000655898
0.000581127
0.000351676
7.94092e-05
0.00251332
0.00253377
0.00256513
0.0026178
0.0025747
0.00254951
0.00253617
0.00252498
0.00252115
0.00251309
0.00250214
0.00249275
0.00248207
0.00249485
0.00251571
0.00254481
0.00257158
0.00259295
0.00260017
0.00258475
0.00253962
0.00245767
0.0023301
0.00213709
0.00185087
0.00142066
0.000716629
0.000105442
7.90686e-05
0.000507947
0.000696667
0.000711995
0.000700749
0.000695447
0.000686352
0.000680394
0.000654866
0.000577825
0.00034759
7.89231e-05
0.00253225
0.0025615
0.00260942
0.00270888
0.00262782
0.00258243
0.00256197
0.00254925
0.00253944
0.00253208
0.0025175
0.0025095
0.00251347
0.00252711
0.00255238
0.00257882
0.00260825
0.00262957
0.00263888
0.0026276
0.00258746
0.00251117
0.0023906
0.00220852
0.00193673
0.00152824
0.000875422
0.000165838
5.24048e-05
0.000438297
0.000686611
0.000713318
0.000702445
0.000696776
0.000687086
0.000680579
0.000653816
0.00057455
0.000343636
7.84442e-05
0.00255964
0.00260441
0.00269365
0.00280859
0.0027207
0.00264626
0.00260663
0.00259065
0.0025865
0.00256978
0.00254804
0.00254499
0.00255062
0.00256464
0.00258744
0.00261639
0.00264338
0.00266643
0.0026772
0.00266938
0.00263422
0.00256365
0.00244969
0.00227804
0.00202009
0.00163243
0.00102903
0.000249778
3.94281e-05
0.000359717
0.000671897
0.00071418
0.000704139
0.000698134
0.000687817
0.000680747
0.00065274
0.000571295
0.000339804
7.79724e-05
0.00260201
0.00268201
0.00279566
0.00290256
0.00281856
0.00273979
0.00269017
0.0026614
0.00265122
0.00262494
0.00259732
0.00258925
0.00259332
0.00260647
0.00262519
0.00265269
0.00268016
0.00270265
0.0027154
0.00271048
0.00267999
0.00261522
0.00250797
0.00234578
0.00210112
0.00173368
0.00117177
0.000355304
3.84292e-05
0.000277695
0.000651145
0.000714409
0.000705816
0.000699516
0.000688548
0.000680898
0.000651636
0.000568063
0.000336064
7.75074e-05
0.00267598
0.00278605
0.00289195
0.00298861
0.00291085
0.00283468
0.00277983
0.00274344
0.002722
0.00269027
0.00265531
0.00264267
0.00264015
0.00265027
0.00266757
0.00269033
0.00271685
0.00273964
0.00275328
0.0027512
0.00272496
0.00266587
0.00256538
0.00241158
0.00217986
0.00183148
0.00130153
0.000477262
4.87551e-05
0.000202172
0.000622581
0.000713773
0.000707362
0.000700822
0.000689281
0.000681032
0.000650505
0.000564851
0.00033243
7.70489e-05
0.0027811
0.00288394
0.00297949
0.00306694
0.00299576
0.00292432
0.00286864
0.00282797
0.00279966
0.00275996
0.00272027
0.00270022
0.00269375
0.0026972
0.00271124
0.00273125
0.00275462
0.00277706
0.00279157
0.00279167
0.00276937
0.00271568
0.00262184
0.00247586
0.00225639
0.00192569
0.00142337
0.000607971
7.17923e-05
0.000140694
0.000584499
0.000712021
0.000708794
0.000702114
0.000690022
0.00068115
0.000649348
0.000561657
0.000328901
7.65969e-05
0.00287983
0.00297262
0.0030589
0.00313778
0.00307324
0.0030074
0.00295334
0.00291055
0.002878
0.00283428
0.00278866
0.00276382
0.00275035
0.00274919
0.00275756
0.00277416
0.0027948
0.0028155
0.00283043
0.00283232
0.00281345
0.00276482
0.0026774
0.00253895
0.00233096
0.00201658
0.00153902
0.000761577
0.000109489
9.51567e-05
0.000536331
0.000708314
0.000710079
0.000703402
0.000690772
0.000681253
0.000648159
0.000558482
0.000325471
7.6151e-05
0.00296909
0.00305285
0.00313055
0.00320165
0.00314344
0.00308354
0.00303269
0.00298994
0.00295489
0.00290922
0.00286048
0.00282987
0.00281133
0.00280406
0.00280769
0.00281959
0.00283713
0.00285578
0.00287022
0.00287347
0.00285752
0.0028135
0.00273222
0.00260111
0.00240374
0.00210455
0.00165005
0.000923638
0.000167227
6.47749e-05
0.000477082
0.000701708
0.000711115
0.000704678
0.000691529
0.00068134
0.000646925
0.000555324
0.000322134
7.5711e-05
0.00304975
0.00312515
0.00319502
0.00325939
0.00320682
0.00315273
0.00310594
0.0030649
0.00302917
0.00298291
0.00293291
0.00289844
0.00287475
0.00286244
0.00286071
0.00286819
0.00288188
0.00289808
0.00291144
0.00291539
0.00290186
0.00286193
0.00278637
0.00266257
0.00247478
0.00218994
0.00175732
0.00108153
0.000247352
4.78058e-05
0.000407327
0.000691647
0.000711816
0.000706001
0.000692291
0.000681412
0.00064565
0.000552183
0.000318886
7.52768e-05
0.00312238
0.00319012
0.0032532
0.00331231
0.0032642
0.00321535
0.00317291
0.00313463
0.00309974
0.00305423
0.00300424
0.00296754
0.00294011
0.00292314
0.00291664
0.00291946
0.00292931
0.00294254
0.00295434
0.00295834
0.00294667
0.00291028
0.00283991
0.00272308
0.00254392
0.00227291
0.00186152
0.00123049
0.000348707
4.28652e-05
0.000330274
0.000677076
0.000712068
0.000707408
0.000693058
0.000681471
0.000644335
0.000549072
0.000315724
7.48482e-05
0.0031876
0.00324867
0.00330643
0.00336209
0.00331687
0.0032722
0.00323384
0.0031988
0.00316581
0.00312217
0.00307336
0.00303564
0.00300584
0.00298535
0.00297465
0.00297316
0.00297907
0.00298921
0.002999
0.0030025
0.00299208
0.00295868
0.00289294
0.00278254
0.00261146
0.00235347
0.00196231
0.00136547
0.000467494
4.88896e-05
0.000253728
0.000656513
0.000711629
0.000708853
0.000693831
0.000681517
0.000642983
0.000545992
0.000312643
7.44252e-05
0.00324635
0.00330217
0.00335644
0.00341066
0.00336647
0.00332447
0.00328944
0.00325758
0.00322703
0.003186
0.00313935
0.00310171
0.00307058
0.00304768
0.00303376
0.00302855
0.00303076
0.00303774
0.00304534
0.00304788
0.00303812
0.00300715
0.00294549
0.00284099
0.00267751
0.00243171
0.00205941
0.00149301
0.000597229
6.63723e-05
0.000186377
0.000628332
0.000710243
0.000710336
0.000694609
0.000681553
0.000641596
0.000542946
0.000309641
7.40074e-05
0.00329997
0.00335235
0.00340518
0.00345986
0.00341491
0.0033738
0.00334083
0.00331157
0.00328349
0.00324538