/*--------------------------------*- C++ -*----------------------------------*\
| =========                 |                                                 |
| \\      /  F ield         | OpenFOAM: The Open Source CFD Toolbox           |
|  \\    /   O peration     | Version:  1.6.x                                 |
|   \\  /    A nd           | Web:      www.OpenFOAM.org                      |
|    \\/     M anipulation  |                                                 |
\*---------------------------------------------------------------------------*/
FoamFile
{
    version     2.0;
    format      ascii;
    class       volScalarField;
    location    "2";
    object      CH4;
}
// * * * * * * * * * * * * * * * * * * * * * * * * * * * * * * * * * * * * * //

dimensions      [0 0 0 0 0 0 0];

internalField   nonuniform List<scalar> 
4608
(
0.156091
0.1561
0.156099
0.150968
0.1561
0.1561
0.1561
0.155839
0.148104
0.125259
0.1561
0.1561
0.1561
0.1561
0.156086
0.15546
0.146002
0.123725
0.055336
0.1561
0.1561
0.1561
0.1561
0.156099
0.15605
0.154993
0.144361
0.123505
0.0648265
5.70246e-05
0.00885086
0.1561
0.1561
0.1561
0.1561
0.156094
0.155992
0.154456
0.142912
0.1236
0.0694851
0.025239
7.67684e-06
2.31161e-08
0.000124513
0.1561
0.1561
0.1561
0.1561
0.156085
0.155907
0.153865
0.14153
0.123202
0.0727389
0.0344385
0.000610111
1.44805e-07
4.64195e-09
9.21384e-12
1.39373e-06
0.1561
0.1561
0.1561
0.1561
0.15607
0.155794
0.153232
0.140167
0.122402
0.0750189
0.0406715
0.00584083
8.21977e-06
1.781e-09
1.40817e-10
2.91425e-12
8.07305e-14
6.74731e-07
0.1561
0.1561
0.1561
0.1561
0.156046
0.155652
0.152562
0.13878
0.121412
0.0764909
0.0449432
0.0130901
9.99082e-05
2.64391e-06
1.83282e-12
1.24506e-13
3.08499e-14
7.22362e-16
3.58341e-07
0.1561
0.1561
0.1561
0.1561
0.156011
0.15548
0.151855
0.137341
0.120277
0.0775147
0.0480095
0.0188764
0.000355444
2.43464e-05
1.5963e-06
4.23489e-14
5.25689e-15
3.43378e-16
6.58748e-18
1.18758e-07
0.1561
0.1561
0.1561
0.1561
0.155964
0.15528
0.151106
0.135834
0.119047
0.0782092
0.0503688
0.0233091
0.000692444
4.53356e-05
1.22699e-05
7.70586e-07
1.49538e-15
1.01067e-16
3.75047e-18
6.13538e-20
2.06469e-08
0.1561
0.1561
0.1561
0.1561
0.155903
0.155049
0.150307
0.134256
0.117725
0.0786686
0.052233
0.0267648
0.00112136
8.00269e-05
1.71693e-05
5.43159e-06
2.64758e-07
3.57779e-17
1.58926e-18
4.07105e-20
5.8432e-22
1.91175e-09
0.1561
0.1561
0.1561
0.1561
0.155826
0.154786
0.149449
0.132615
0.116331
0.0789483
0.0537899
0.0294814
0.00504957
0.000156147
9.36376e-06
9.51909e-06
1.97973e-06
4.48165e-08
6.91648e-19
2.28802e-20
4.42532e-22
5.68993e-24
2.73456e-10
0.1561
0.1561
0.1561
0.1561
0.155731
0.154489
0.148519
0.130911
0.114886
0.0790755
0.0550582
0.0320191
0.00811301
0.000811206
1.36366e-05
6.7792e-06
4.38682e-06
4.37356e-07
3.55844e-09
1.18332e-20
3.14122e-22
4.83352e-24
5.65753e-26
7.31931e-11
0.1561
0.1561
0.1561
0.1561
0.155616
0.154154
0.147505
0.129144
0.113377
0.0790761
0.0560709
0.0341862
0.0117404
0.00150669
8.35906e-05
3.54128e-06
4.52446e-06
1.35256e-06
4.0895e-08
4.24226e-10
1.87409e-22
4.18871e-24
5.30988e-26
5.72743e-28
2.70774e-11
0.1561
0.1561
0.1561
0.1561
0.155479
0.153776
0.146397
0.127312
0.111796
0.07898
0.0568859
0.0360291
0.0147985
0.00240277
0.000184301
7.39995e-06
3.28284e-06
2.11792e-06
1.89383e-07
2.99904e-09
1.10717e-10
2.81569e-24
5.4876e-26
5.85735e-28
5.87681e-30
1.11352e-11
0.1561
0.1561
0.1561
0.1561
0.155318
0.153349
0.145187
0.125402
0.110142
0.0787969
0.0575394
0.0375833
0.0174496
0.00479616
0.000328981
1.26906e-05
4.11319e-06
2.14948e-06
5.23353e-07
1.29365e-08
4.82392e-10
4.33489e-11
4.0758e-26
7.09659e-28
6.45805e-30
6.07622e-32
4.72817e-12
0.1561
0.1561
0.1561
0.1561
0.155131
0.152865
0.143865
0.123396
0.108385
0.0785478
0.058044
0.0389112
0.0196775
0.00719209
0.000726598
2.5702e-05
3.34535e-06
2.62825e-06
8.78195e-07
4.76782e-08
1.52038e-09
1.46951e-10
1.99645e-11
5.73166e-28
9.00287e-30
7.08019e-32
6.29351e-34
2.1121e-12
0.1561
0.1561
0.1561
0.1561
0.154914
0.152316
0.142423
0.121255
0.106483
0.0782519
0.0584418
0.0400348
0.0217048
0.00944542
0.00120695
6.34461e-05
2.46782e-06
2.50135e-06
1.32607e-06
1.50977e-07
3.88326e-09
3.90564e-10
6.32129e-11
1.0161e-11
7.84477e-30
1.11066e-31
7.69481e-34
6.4962e-36
1.07171e-12
0.1561
0.1561
0.1561
0.1561
0.154663
0.151692
0.140854
0.118923
0.104332
0.0779002
0.0587537
0.04102
0.0233499
0.0117899
0.00252436
0.000120005
4.1116e-06
1.88187e-06
1.54938e-06
3.81842e-07
1.0595e-08
8.28123e-10
1.64125e-10
3.37096e-11
5.90102e-12
1.04353e-31
1.32979e-33
8.26745e-36
6.66416e-38
6.54832e-13
0.1561
0.1561
0.1561
0.1561
0.154372
0.150979
0.139159
0.116221
0.101825
0.0774331
0.058995
0.0418707
0.0249856
0.013321
0.00484048
0.000274898
8.44209e-06
1.43169e-06
1.42685e-06
6.76415e-07
3.96276e-08
1.61056e-09
3.62658e-10
9.41601e-11
2.15192e-11
3.97735e-12
1.34665e-33
1.54026e-35
8.78146e-38
6.79592e-40
4.59523e-13
0.1561
0.1561
0.1561
0.154036
0.150167
0.137314
0.113382
0.0987129
0.0769785
0.0591876
0.0426056
0.0263909
0.0155398
0.00598695
0.000573886
2.15297e-05
1.04134e-06
1.20931e-06
8.2385e-07
1.39806e-07
3.68021e-09
7.51043e-10
2.3665e-10
6.64882e-11
1.57203e-11
2.93126e-12
1.67913e-35
1.71161e-37
9.25834e-40
6.88794e-42
3.32307e-13
0.1561
0.1561
0.153645
0.149235
0.135402
0.0996686
0.096461
0.0764653
0.0593815
0.0432832
0.0276114
0.0173179
0.00867836
0.000780472
4.97963e-05
1.46164e-06
9.18499e-07
8.35046e-07
2.92431e-07
1.1994e-08
1.6392e-09
5.69922e-10
1.8712e-10
5.23309e-11
1.21085e-11
2.15979e-12
2.00607e-37
1.81923e-39
9.7797e-42
6.93051e-44
2.27381e-13
0.1561
0.153189
0.148181
0.13232
0.0942367
0.0894208
0.0765559
0.0596044
0.0439365
0.0287422
0.0188367
0.010677
0.00120167
7.47039e-05
3.1703e-06
7.52636e-07
7.43394e-07
4.17005e-07
4.37385e-08
3.82879e-09
1.3713e-09
4.98239e-10
1.57486e-10
4.19119e-11
9.0917e-12
1.48748e-12
2.26802e-39
1.85623e-41
1.04657e-43
6.97346e-46
1.40036e-13
0.152657
0.146982
0.129174
0.092181
0.0860327
0.0751973
0.0604032
0.044609
0.0297813
0.0202568
0.012412
0.00235436
0.000123622
5.21687e-06
6.51101e-07
6.49666e-07
4.67425e-07
1.13462e-07
9.48375e-09
3.27265e-09
1.27526e-09
4.41367e-10
1.30301e-10
3.20183e-11
6.3093e-12
9.18469e-13
2.39477e-41
1.8497e-43
1.1536e-45
6.88437e-48
7.52668e-14
0.152043
0.145673
0.125835
0.0907575
0.0843242
0.0741973
0.0606793
0.0457624
0.0308475
0.0214826
0.0140078
0.00415093
0.000258626
9.35498e-06
4.84159e-07
5.75868e-07
4.75163e-07
2.01781e-07
2.50851e-08
7.68171e-09
3.12942e-09
1.16626e-09
3.74202e-10
1.01037e-10
2.23929e-11
3.91037e-12
4.94488e-13
2.33773e-43
1.85182e-45
1.32204e-47
3.45169e-14
0.151348
0.144163
0.1222
0.089966
0.0830794
0.0732726
0.0603258
0.0467137
0.0323067
0.0227802
0.0153388
0.00584379
0.000491323
2.10736e-05
5.57679e-07
4.60772e-07
4.69771e-07
2.77263e-07
6.42681e-08
1.7743e-08
7.35008e-09
2.91403e-09
1.00562e-09
2.93757e-10
7.12021e-11
1.39422e-11
2.11151e-12
2.27201e-13
2.11392e-45
1.89653e-47
1.32684e-14
0.150554
0.142323
0.118423
0.0878966
0.0824923
0.0723343
0.0596752
0.0469057
0.0336709
0.024448
0.0167912
0.00723169
0.000742758
4.46015e-05
1.24762e-06
3.12004e-07
4.45403e-07
3.3769e-07
1.34136e-07
4.04845e-08
1.65642e-08
6.89743e-09
2.54405e-09
7.97594e-10
2.08568e-10
4.45673e-11
7.55989e-12
9.73564e-13
8.75776e-14
1.73968e-47
4.21374e-15
0.149622
0.14012
0.104496
0.0855533
0.0814805
0.0717817
0.0590283
0.0466753
0.0343249
0.0260136
0.0185675
0.00877163
0.000986602
7.07314e-05
2.84955e-06
2.54094e-07
3.99757e-07
3.86589e-07
2.30477e-07
9.03598e-08
3.61252e-08
1.55118e-08
6.07993e-09
2.03705e-09
5.70635e-10
1.31351e-10
2.42967e-11
3.50381e-12
3.7706e-13
2.79071e-14
1.09378e-15
0.148503
0.13684
0.0986164
0.08339
0.0795283
0.0712286
0.0587038
0.0464001
0.0345236
0.0268562
0.020265
0.0106237
0.00131931
0.000100216
4.92331e-06
2.71734e-07
3.77648e-07
4.31149e-07
3.42831e-07
1.88201e-07
7.7013e-08
3.33362e-08
1.37692e-08
4.91531e-09
1.46949e-09
3.61937e-10
7.20908e-11
1.13391e-11
1.36643e-12
1.2091e-13
7.28127e-15
2.30191e-16
0.147094
0.132666
0.0950603
0.0816212
0.0776667
0.0701675
0.0584436
0.0463383
0.0346216
0.0273217
0.0212518
0.0124478
0.00288488
0.000142498
7.56911e-06
3.07742e-07
3.7441e-07
4.93081e-07
4.72565e-07
3.46889e-07
1.61392e-07
6.89978e-08
2.96711e-08
1.12432e-08
3.57893e-09
9.39797e-10
2.00268e-10
3.39384e-11
4.46307e-12
4.42277e-13
3.18167e-14
1.5407e-15
3.90622e-17
0.145262
0.127411
0.0926885
0.0798419
0.076202
0.0689143
0.0578101
0.0463288
0.0348564
0.0276649
0.0219575
0.0134311
0.00467037
0.000329696
1.15512e-05
4.25849e-07
3.34853e-07
5.8203e-07
6.32953e-07
5.66215e-07
3.28613e-07
1.3885e-07
6.11599e-08
2.44616e-08
8.27275e-09
2.31091e-09
5.25026e-10
9.52762e-11
1.35137e-11
1.46264e-12
1.1781e-13
6.80171e-15
2.6358e-16
5.32884e-18
0.142722
0.121221
0.0892288
0.0773128
0.0746839
0.0678283
0.0569827
0.0460506
0.035115
0.0281074
0.0224976
0.0145075
0.00520191
0.000571157
2.81964e-05
6.85094e-07
2.38686e-07
6.78719e-07
8.37176e-07
8.49498e-07
6.26064e-07
2.7391e-07
1.21364e-07
5.08251e-08
1.82082e-08
5.40064e-09
1.30546e-09
2.52882e-10
3.84711e-11
4.49786e-12
3.95826e-13
2.55648e-14
1.17921e-15
3.62338e-17
5.81873e-19
0.1392
0.103334
0.08554
0.0744586
0.0724723
0.0666644
0.0562584
0.0455945
0.0351592
0.0285423
0.0230789
0.0153395
0.00694943
0.00067321
5.24579e-05
1.77634e-06
1.60275e-07
7.55832e-07
1.08289e-06
1.20334e-06
1.07596e-06
5.30324e-07
2.33471e-07
1.01347e-07
3.82976e-08
1.20347e-08
3.08981e-09
6.37782e-10
1.03791e-10
1.30432e-11
1.24124e-12
8.75924e-14
4.51554e-15
1.64465e-16
4.00187e-18
5.09594e-20
0.132848
0.0961455
0.0818101
0.0713595
0.0699862
0.0650541
0.0554501
0.0451797
0.035033
0.0287621
0.0236363
0.0161403
0.00789138
0.000928841
6.57737e-05
3.58459e-06
1.71363e-07
8.14803e-07
1.3534e-06
1.62757e-06
1.65989e-06
9.94302e-07
4.37959e-07
1.94939e-07
7.73222e-08
2.56617e-08
6.98405e-09
1.534e-09
2.66697e-10
3.59481e-11
3.68336e-12
2.81349e-13
1.58409e-14
6.43029e-16
1.85033e-17
3.54058e-19
3.55291e-21
0.122813
0.0895563
0.0778726
0.0681875
0.0672622
0.0631572
0.054311
0.0446822
0.0349054
0.0288238
0.0240118
0.0168757
0.00884576
0.00111816
9.61129e-05
4.95184e-06
2.2381e-07
8.33702e-07
1.64226e-06
2.11454e-06
2.35048e-06
1.75349e-06
8.02993e-07
3.63264e-07
1.5055e-07
5.26042e-08
1.51308e-08
3.5303e-09
6.55046e-10
9.46204e-11
1.04229e-11
8.58651e-13
5.23323e-14
2.31632e-15
7.41737e-17
1.66751e-18
2.5049e-20
1.98311e-22
0.100089
0.0842085
0.0739349
0.0649606
0.0644636
0.0610266
0.0529434
0.0439233
0.0346869
0.028872
0.0242325
0.0174334
0.00975048
0.00179016
0.000125749
7.41955e-06
2.89098e-07
7.29557e-07
1.92782e-06
2.65696e-06
3.13327e-06
2.82317e-06
1.43061e-06
6.57442e-07
2.83823e-07
1.04187e-07
3.15765e-08
7.80302e-09
1.54295e-09
2.3869e-10
2.82543e-11
2.50781e-12
1.64943e-13
7.89672e-15
2.75489e-16
6.858e-18
1.20708e-19
1.41488e-21
7.6835e-24
0.0889133
0.0791424
0.0699676
0.0616689
0.0616063
0.0587815
0.0513878
0.0429674
0.0342383
0.0287997
0.0244103
0.0178493
0.0104887
0.00276746
0.000198445
1.01792e-05
4.30951e-07
5.20361e-07
2.15925e-06
3.22742e-06
3.98336e-06
4.11406e-06
2.44003e-06
1.15392e-06
5.18982e-07
2.00314e-07
6.38385e-08
1.66534e-08
3.49909e-09
5.78931e-10
7.36122e-11
7.03877e-12
4.99268e-13
2.57941e-14
9.72797e-16
2.62853e-17
5.11585e-19
6.95573e-21
5.50548e-23
7.0031e-26
0.0824535
0.0742568
0.0659936
0.0583542
0.0586759
0.0564579
0.0497337
0.0418608
0.033619
0.0285113
0.0244345
0.0182052
0.0110868
0.0036002
0.000323085
1.6788e-05
6.16815e-07
3.27794e-07
2.30964e-06
3.78931e-06
4.87116e-06
5.48041e-06
3.91257e-06
1.95277e-06
9.18141e-07
3.74634e-07
1.25754e-07
3.45385e-08
7.68335e-09
1.35544e-09
1.84894e-10
1.90401e-11
1.45658e-12
8.11956e-14
3.30305e-15
9.6226e-17
2.03198e-18
3.02748e-20
2.71613e-22
6.39864e-25
0.0767257
0.0695309
0.0620809
0.0550737
0.055701
0.0540526
0.0480165
0.0406733
0.0328815
0.0280799
0.0242763
0.018306
0.0116157
0.00431485
0.00044339
2.86906e-05
1.06347e-06
2.05184e-07
2.36906e-06
4.32174e-06
5.77231e-06
6.84253e-06
5.81699e-06
3.15897e-06
1.56154e-06
6.79466e-07
2.42064e-07
7.00749e-08
1.64494e-08
3.08175e-09
4.49476e-10
4.978e-11
4.10586e-12
2.47025e-13
1.08384e-14
3.39919e-16
7.73994e-18
1.24093e-19
1.19189e-21
3.36017e-24
0.0714599
0.065029
0.0582954
0.0518766
0.0527276
0.0515778
0.0462317
0.0394352
0.0320834
0.0275481
0.0239976
0.0183241
0.0116644
0.0049466
0.000543529
4.22366e-05
1.91908e-06
1.61046e-07
2.30335e-06
4.80095e-06
6.67271e-06
8.17753e-06
7.97936e-06
4.8442e-06
2.53468e-06
1.18526e-06
4.53803e-07
1.39572e-07
3.4589e-08
6.855e-09
1.06412e-09
1.26286e-10
1.12117e-11
7.27809e-13
3.44509e-14
1.16367e-15
2.85316e-17
4.89509e-19
4.95284e-21
1.51306e-23
0.0665864
0.0607846
0.0546784
0.0487966
0.0498001
0.0490623
0.0443808
0.0381427
0.0312427
0.0269659
0.0236209
0.0182625
0.0119469
0.00469991
0.000648379
5.25016e-05
3.10681e-06
1.70876e-07
2.06727e-06
5.19243e-06
7.54063e-06
9.47129e-06
1.0166e-05
7.01247e-06
3.90592e-06
1.96922e-06
8.20431e-07
2.71895e-07
7.17031e-08
1.50354e-08
2.47287e-09
3.12899e-10
2.97754e-11
2.08169e-12
1.06247e-13
3.86752e-15
1.02135e-16
1.87371e-18
1.99126e-20
6.3887e-23
0.0620743
0.0568077
0.0512506
0.0458519
0.046953
0.0465416
0.0424742
0.0367942
0.0303529
0.0263437
0.0231977
0.0180866
0.0121485
0.00552359
0.000642456
7.19555e-05
3.90758e-06
2.15321e-07
1.65536e-06
5.45776e-06
8.34369e-06
1.07131e-05
1.21953e-05
9.58945e-06
5.70795e-06
3.09398e-06
1.4129e-06
5.12136e-07
1.45887e-07
3.26382e-08
5.68768e-09
7.63629e-10
7.74416e-11
5.8044e-12
3.18679e-13
1.24961e-14
3.55565e-16
6.98098e-18
7.80904e-20
2.60858e-22
0.0578974
0.0530934
0.0480171
0.0430486
0.0442079
0.0440489
0.0405296
0.0353917
0.0294113
0.0256709
0.0227328
0.0178764
0.0121516
0.00596668
0.000773912
8.7186e-05
5.49762e-06
2.50454e-07
1.16873e-06
5.56396e-06
9.06155e-06
1.18982e-05
1.40328e-05
1.24287e-05
7.93226e-06
4.58952e-06
2.29618e-06
9.19259e-07
2.87494e-07
6.97324e-08
1.29937e-08
1.85187e-09
1.99065e-10
1.58979e-11
9.33904e-13
3.93502e-14
1.20551e-15
2.53581e-17
2.99774e-19
1.04314e-21
0.0540287
0.0496286
0.0449729
0.0403837
0.0415751
0.0416096
0.0385685
0.0339409
0.0284186
0.024944
0.0222146
0.0176243
0.0121742
0.0060551
0.000841061
0.000101707
7.19747e-06
3.35968e-07
7.47941e-07
5.50733e-06
9.67316e-06
1.30278e-05
1.57257e-05
1.53397e-05
1.05384e-05
6.45212e-06
3.50956e-06
1.55461e-06
5.39703e-07
1.44416e-07
2.92845e-08
4.47692e-09
5.10451e-10
4.32055e-11
2.69646e-12
1.21386e-13
3.99197e-15
8.99857e-17
1.12942e-18
4.1156e-21
0.0504418
0.0463952
0.042106
0.0378483
0.0390559
0.0392394
0.0366111
0.0324531
0.0273743
0.0241676
0.0216391
0.0173104
0.0121412
0.00625008
0.000873067
9.35854e-05
8.40234e-06
4.43828e-07
4.60662e-07
5.30481e-06
1.01644e-05
1.40835e-05
1.73079e-05
1.81495e-05
1.34758e-05
8.65824e-06
5.05816e-06
2.46533e-06
9.5267e-07
2.84537e-07
6.39901e-08
1.06975e-08
1.30932e-09
1.1766e-10
7.75567e-12
3.70226e-13
1.29865e-14
3.13115e-16
4.1915e-18
1.61485e-20
0.0471101
0.0433721
0.0394
0.0354296
0.0366454
0.0369457
0.0346724
0.0309404
0.0262831
0.0233378
0.0210149
0.0169323
0.0120262
0.00637606
0.000926726
9.89344e-05
8.07243e-06
5.5031e-07
2.97155e-07
4.94819e-06
1.05342e-05
1.50495e-05
1.87997e-05
2.07296e-05
1.66933e-05
1.11848e-05
6.92097e-06
3.67255e-06
1.57209e-06
5.25652e-07
1.32779e-07
2.47669e-08
3.32491e-09
3.21708e-10
2.2451e-11
1.13e-12
4.19337e-14
1.07563e-15
1.5414e-17
6.37365e-20
0.0440066
0.0405358
0.0368362
0.0331128
0.0343345
0.0347294
0.0327621
0.0294138
0.0251507
0.0224574
0.0203368
0.0165078
0.011842
0.0064363
0.000996819
0.00013115
8.71676e-06
5.37141e-07
2.13037e-07
4.41673e-06
1.07728e-05
1.59258e-05
2.02152e-05
2.30566e-05
2.01252e-05
1.40227e-05
9.07111e-06
5.17164e-06
2.42811e-06
9.04551e-07
2.575e-07
5.42938e-08
8.17409e-09
8.71907e-10
6.54676e-11
3.48797e-12
1.36153e-13
3.68855e-15
5.66638e-17
2.56979e-19
0.0411039
0.0378624
0.034395
0.0308815
0.0321109
0.0325863
0.0308857
0.0278809
0.0239854
0.021528
0.0196056
0.0160292
0.0116129
0.00643758
0.00109676
0.000146185
1.3295e-05
5.93696e-07
1.6404e-07
3.73196e-06
1.08622e-05
1.67107e-05
2.15768e-05
2.51899e-05
2.36666e-05
1.71733e-05
1.14963e-05
6.94417e-06
3.53125e-06
1.45116e-06
4.63336e-07
1.10781e-07
1.89729e-08
2.28353e-09
1.89369e-10
1.08814e-11
4.49069e-13
1.2787e-14
2.10625e-16
1.07423e-18
0.038375
0.0353282
0.0320566
0.0287217
0.0299606
0.0305087
0.0290441
0.0263483
0.0227908
0.0205604
0.0188204
0.0154939
0.0113348
0.00639033
0.00121378
0.000162227
1.36284e-05
9.77356e-07
1.35467e-07
2.9583e-06
1.07956e-05
1.73957e-05
2.28857e-05
2.71903e-05
2.71926e-05
2.06338e-05
1.42048e-05
8.97458e-06
4.8772e-06
2.18332e-06
7.74008e-07
2.08771e-07
4.08226e-08
5.6236e-09
5.28197e-10
3.36815e-11
1.4999e-12
4.51799e-14
7.99165e-16
4.68318e-18
0.035794
0.0329105
0.0298039
0.026623
0.0278714
0.0284855
0.0272341
0.0248196
0.0215742
0.0195539
0.017994
0.0148961
0.0109948
0.00630012
0.0013174
0.00015184
1.54616e-05
9.88693e-07
1.29018e-07
2.19986e-06
1.0572e-05
1.79755e-05
2.41303e-05
2.90985e-05
3.05771e-05
2.43895e-05
1.72145e-05
1.12598e-05
6.45804e-06
3.10738e-06
1.20749e-06
3.63603e-07
8.07587e-08
1.2773e-08
1.37974e-09
1.00235e-10
4.96087e-12
1.6161e-13
3.09872e-15
2.10454e-17
0.0333365
0.0305896
0.0276236
0.0245785
0.025835
0.0265078
0.0254472
0.0232929
0.0203391
0.0185168
0.0171232
0.0142579
0.0105814
0.00615152
0.00138501
0.000173125
1.50013e-05
1.14774e-06
1.0941e-07
1.55251e-06
1.01998e-05
1.8445e-05
2.53023e-05
3.0935e-05
3.37338e-05
2.84109e-05
2.05399e-05
1.3808e-05
8.27205e-06
4.22417e-06
1.77464e-06
5.88795e-07
1.46968e-07
2.65351e-08
3.30803e-09
2.77979e-10
1.56956e-11
5.70205e-13
1.20957e-14
9.50368e-17
0.0309814
0.0283499
0.0255066
0.0225838
0.0238465
0.0245703
0.0236794
0.0217601
0.0190831
0.0174519
0.0162161
0.0135685
0.0101345
0.00594204
0.00140458
0.000182527
1.73542e-05
1.15737e-06
1.03821e-07
1.06348e-06
9.69367e-06
1.87977e-05
2.64027e-05
3.2714e-05
3.66515e-05
3.26426e-05
2.41809e-05
1.66345e-05
1.03256e-05
5.53656e-06
2.48163e-06
8.94473e-07
2.47543e-07
5.04551e-08
7.21811e-09
7.03583e-10
4.59894e-11
1.91291e-12
4.60584e-14
4.17613e-16
0.0287122
0.0261804
0.0234467
0.0206349
0.0219023
0.0226705
0.0219307
0.0202216
0.0177962
0.0163539
0.0152756
0.012838
0.0096181
0.00568205
0.00137169
0.000187425
1.87621e-05
1.62511e-06
9.97489e-08
7.24049e-07
9.05537e-06
1.9029e-05
2.74269e-05
3.44567e-05
3.93842e-05
3.69941e-05
2.81179e-05
1.97553e-05
1.26302e-05
7.05234e-06
3.33444e-06
1.28795e-06
3.89425e-07
8.83732e-08
1.4345e-08
1.61161e-09
1.2225e-10
5.90575e-12
1.6474e-13
1.73021e-15
0.0265167
0.0240736
0.0214391
0.0187296
0.0199991
0.0208069
0.0202031
0.0186824
0.0164836
0.0152093
0.014292
0.0120705
0.00907488
0.00537291
0.00130151
0.000186497
1.97258e-05
1.5312e-06
1.17423e-07
4.98929e-07
8.2732e-06
1.91321e-05
2.83674e-05
3.61586e-05
4.19793e-05
4.13565e-05
3.23342e-05
2.31704e-05
1.51982e-05
8.78362e-06
4.34159e-06
1.77601e-06
5.78269e-07
1.43932e-07
2.61366e-08
3.3444e-09
2.92527e-10
1.64495e-11
5.36733e-13
6.58395e-15
0.0243867
0.022024
0.019481
0.0168683
0.0181349
0.0189764
0.0184974
0.0171494
0.0151539
0.0140341
0.0132516
0.0112438
0.00849343
0.00502455
0.00118298
0.000177468
2.07887e-05
1.64243e-06
1.11123e-07
3.53237e-07
7.3421e-06
1.90919e-05
2.92144e-05
3.78059e-05
4.44769e-05
4.56091e-05
3.68275e-05
2.68675e-05
1.8035e-05
1.07452e-05
5.51447e-06
2.36673e-06
8.1935e-07
2.2039e-07
4.40806e-08
6.33129e-09
6.31106e-10
4.10557e-11
1.56601e-12
2.25973e-14
0.0223163
0.0200281
0.0175718
0.0150524
0.0163111
0.0171779
0.0168108
0.0156251
0.0138198
0.0128327
0.0121795
0.0103465
0.00782776
0.00463954
0.00102862
0.000173808
1.95306e-05
1.77295e-06
1.17367e-07
2.58905e-07
6.28358e-06
1.88878e-05
2.99551e-05
3.93826e-05
4.69e-05
4.96594e-05
4.15921e-05
3.08383e-05
2.11381e-05
1.29481e-05
6.86715e-06
3.06996e-06
1.11851e-06
3.20931e-07
6.96038e-08
1.10445e-08
1.23644e-09
9.20338e-11
4.0734e-12
6.92917e-14
0.0203018
0.0180846
0.0157123
0.0132801
0.0145296
0.0154139
0.0151429
0.0141049
0.0124836
0.0116232
0.0110743
0.00942568
0.00708081
0.00415304
0.000871333
0.000145015
1.93907e-05
1.71499e-06
1.26907e-07
1.97351e-07
5.16407e-06
1.84992e-05
3.0575e-05
4.08836e-05
4.92596e-05
5.34776e-05
4.6597e-05
3.50816e-05
2.45059e-05
1.53959e-05
8.41283e-06
3.89768e-06
1.48262e-06
4.49065e-07
1.04149e-07
1.79662e-08
2.22286e-09
1.86678e-10
9.48153e-12
1.89483e-13
0.0183414
0.0161938
0.0139003
0.0115497
0.0127884
0.0136873
0.0134993
0.0125891
0.0111364
0.0104056
0.0099587
0.00845867
0.0063421
0.00355359
0.000733754
0.000123824
1.66034e-05
1.73328e-06
1.43889e-07
1.56346e-07
4.07478e-06
1.7921e-05
3.10591e-05
4.23037e-05
5.15715e-05
5.70943e-05
5.17815e-05
3.96003e-05
2.81392e-05
1.80903e-05
1.01603e-05
4.86224e-06
1.92002e-06
6.08853e-07
1.49319e-07
2.76055e-08
3.71326e-09
3.46174e-10
1.9907e-11
4.6383e-13
0.0164352
0.0143533
0.0121337
0.00985518
0.0110867
0.0119957
0.0118843
0.011088
0.00977765
0.00916867
0.00882974
0.00748196
0.00554731
0.00305308
0.000619822
0.000105199
1.43558e-05
1.52611e-06
1.28009e-07
1.21851e-07
3.10519e-06
1.71654e-05
3.13965e-05
4.36323e-05
5.38382e-05
6.055e-05
5.70693e-05
4.44086e-05
3.20359e-05
2.10337e-05
1.21174e-05
5.97342e-06
2.44003e-06
8.05268e-07
2.06977e-07
4.05437e-08
5.84218e-09
5.94426e-10
3.80714e-11
1.02369e-12
0.0145807
0.0125607
0.0104065
0.00819178
0.0094178
0.0103397
0.0102934
0.00960669
0.00842954
0.0079145
0.0076746
0.00648057
0.00472797
0.00248211
0.000533653
8.95604e-05
1.2347e-05
1.34199e-06
1.14656e-07
9.43336e-08
2.30454e-06
1.62493e-05
3.15813e-05
4.4855e-05
5.60459e-05
6.38829e-05
6.23755e-05
4.95285e-05
3.61981e-05
2.42278e-05
1.42927e-05
7.24035e-06
3.0513e-06
1.04411e-06
2.79442e-07
5.74697e-08
8.7678e-09
9.58587e-10
6.71518e-11
2.054e-12
0.0127752
0.0108101
0.00871324
0.00654328
0.00777796
0.00871174
0.00873177
0.00813306
0.0070943
0.00666641
0.00650148
0.0054433
0.00387035
0.00188554
0.000436621
7.73104e-05
1.06144e-05
1.1727e-06
1.025e-07
7.11483e-08
1.68404e-06
1.51907e-05
3.16085e-05
4.59622e-05
5.81782e-05
6.71246e-05
6.76123e-05
5.49825e-05
4.06363e-05
2.76781e-05
1.6695e-05
8.67378e-06
3.76254e-06
1.33104e-06
3.69565e-07
7.92569e-08
1.26831e-08
1.47096e-09
1.10915e-10
3.78428e-12
0.0110131
0.00909548
0.00704147
0.00492287
0.00614726
0.00710962
0.00718666
0.00668766
0.0057505
0.00543084
0.00533283
0.00441633
0.00297774
0.00124419
0.000334269
6.38171e-05
9.23658e-06
1.02156e-06
9.09652e-08
5.4853e-08
1.22589e-06
1.40054e-05
3.14766e-05
4.69491e-05
6.02244e-05
7.02927e-05
7.2717e-05
6.07807e-05
4.53815e-05
3.1392e-05
1.93355e-05
1.02855e-05
4.58391e-06
1.67189e-06
4.80331e-07
1.07011e-07
1.78401e-08
2.17157e-09
1.73978e-10
6.49342e-12
0.00928801
0.00740636
0.00539512
0.00332321
0.00454862
0.005507
0.00566539
0.00524462
0.00443345
0.00419234
0.00417556
0.00337077
0.002178
0.000670746
0.000222514
5.38038e-05
7.7116e-06
8.9981e-07
8.03667e-08
4.23958e-08
8.97941e-07
1.27152e-05
3.11813e-05
4.78122e-05
6.21836e-05
7.33975e-05
7.76621e-05
6.69104e-05
5.04729e-05
3.53857e-05
2.22255e-05
1.20895e-05
5.52675e-06
2.07371e-06
6.15004e-07
1.41941e-07
2.45698e-08
3.11423e-09
2.62187e-10
1.0531e-11
0.00759024
0.00574233
0.00376825
0.00172904
0.00297396
0.00394444
0.00411651
0.00383195
0.00313274
0.00297355
0.00302593
0.00235787
0.00136552
0.00045782
0.000122404
3.35505e-05
6.53385e-06
7.61814e-07
7.19771e-08
3.35273e-08
6.66792e-07
1.13491e-05
3.07145e-05
4.85448e-05
6.40523e-05
7.64534e-05
8.24554e-05
7.334e-05
5.59494e-05
3.9683e-05
2.53799e-05
1.41007e-05
6.60408e-06
2.54458e-06
7.77569e-07
1.85408e-07
3.32481e-08
4.37117e-09
3.8378e-10
1.63419e-11
0.00591761
0.00409745
0.00214805
0.000326541
0.00142211
0.00241293
0.00265518
0.00235043
0.00187505
0.00182316
0.00190517
0.00142694
0.000643068
0.000288208
9.52236e-05
1.87525e-05
4.20014e-06
6.50931e-07
6.2088e-08
3.06218e-08
5.04612e-07
9.95257e-06
3.00796e-05
4.91404e-05
6.58275e-05
7.94554e-05
8.71006e-05
8.00168e-05
6.18501e-05
4.43185e-05
2.88181e-05
1.63367e-05
7.82992e-06
3.09395e-06
9.72676e-07
2.39103e-07
4.43117e-08
6.02869e-09
5.4976e-10
2.45347e-11
0.00426408
0.00245958
0.000616893
3.36671e-05
0.000216849
0.000940239
0.00125273
0.00111674
0.000693531
0.000859469
0.000927113
0.000594721
0.0003518
0.00013908
5.24301e-05
1.41673e-05
2.39527e-06
4.31118e-07
5.35715e-08
2.74229e-08
3.90732e-07
8.58499e-06
2.92884e-05
4.95988e-05
6.75045e-05
8.23947e-05
9.16228e-05
8.68636e-05
6.82174e-05
4.93347e-05
3.25655e-05
1.88183e-05
9.22008e-06
3.73229e-06
1.2058e-06
3.05058e-07
5.83145e-08
8.19298e-09
7.73456e-10
3.59359e-11
0.00261804
0.000877531
5.18272e-05
2.72506e-06
2.38059e-05
0.000102375
0.000207374
0.000233341
0.000200661
0.000285329
0.000333086
0.000267369
0.000149682
8.73019e-05
2.56936e-05
8.0537e-06
1.77333e-06
2.51635e-07
3.66023e-08
2.18542e-08
3.09809e-07
7.30434e-06
2.83633e-05
4.99223e-05
6.90816e-05
8.52623e-05
9.60494e-05
9.3786e-05
7.50852e-05
5.47801e-05
3.66532e-05
2.15705e-05
1.07929e-05
4.47147e-06
1.4831e-06
3.8572e-07
7.59443e-08
1.10005e-08
1.07206e-09
5.1615e-11
0.00101723
7.16804e-05
4.13451e-06
2.16631e-07
1.99841e-06
1.10856e-05
2.69084e-05
5.02462e-05
4.50775e-05
8.42853e-05
0.000111366
9.65878e-05
7.66972e-05
3.33145e-05
1.5688e-05
4.02517e-06
1.03549e-06
2.06207e-07
2.21588e-08
1.53116e-08
2.51273e-07
6.15414e-06
2.73293e-05
5.01146e-05
7.05609e-05
8.80569e-05
0.000100401
0.00010069
8.24766e-05
6.07024e-05
4.11184e-05
2.46232e-05
1.25703e-05
5.32523e-06
1.81166e-06
4.83941e-07
9.80554e-08
1.46233e-08
1.46832e-09
7.28932e-11
8.35776e-05
5.61946e-06
3.20092e-07
1.69345e-08
1.63238e-07
1.06625e-06
3.18017e-06
6.63162e-06
9.78044e-06
1.93615e-05
3.51156e-05
3.29827e-05
2.51435e-05
1.63848e-05
6.35224e-06
2.41038e-06
5.28269e-07
1.11248e-07
1.79187e-08
1.25603e-08
2.081e-07
5.15966e-06
2.62126e-05
5.01863e-05
7.19438e-05
9.07845e-05
0.000104695
0.000107506
9.03986e-05
6.71451e-05
4.60063e-05
2.80109e-05
1.4579e-05
6.31012e-06
2.19974e-06
6.03069e-07
1.25663e-07
1.92805e-08
1.99136e-09
1.01499e-10
6.56327e-06
4.28346e-07
2.42768e-08
1.30092e-09
1.30606e-08
9.54758e-08
3.41268e-07
8.20928e-07
1.59346e-06
4.23659e-06
8.03807e-06
1.03432e-05
8.51325e-06
5.67211e-06
3.0381e-06
1.12708e-06
3.12268e-07
5.74703e-08
1.10231e-08
1.08887e-08
1.77921e-07
4.32756e-06
2.50427e-05
5.01551e-05
7.32375e-05
9.34529e-05
0.000108955
0.000114214
9.88259e-05
7.41609e-05
5.13678e-05
3.17739e-05
1.68506e-05
7.44638e-06
2.65747e-06
7.47142e-07
1.59992e-07
2.52415e-08
2.67886e-09
1.39815e-10
5.02049e-07
3.19491e-08
1.81117e-09
9.81774e-11
1.02358e-09
8.13846e-09
3.38411e-08
9.43761e-08
2.09247e-07
7.22496e-07
1.77306e-06
2.50104e-06
2.70036e-06
1.92593e-06
1.09999e-06
4.88824e-07
1.50339e-07
3.36687e-08
5.73647e-09
9.33034e-09
1.53518e-07
3.64907e-06
2.38503e-05
5.00399e-05
7.44517e-05
9.60696e-05
0.000113189
0.0001208
0.000107712
8.18103e-05
5.72593e-05
3.5958e-05
1.94226e-05
8.75865e-06
3.19753e-06
9.2121e-07
2.02572e-07
3.28432e-08
3.57909e-09
1.91015e-10
3.75392e-08
2.34094e-09
1.33139e-10
7.27928e-12
7.85714e-11
6.67963e-10
3.15013e-09
1.0088e-08
2.55024e-08
1.00172e-07
3.18452e-07
5.61977e-07
6.84793e-07
6.17941e-07
3.777e-07
1.81914e-07
6.62468e-08
1.66495e-08
3.53976e-09
8.1107e-09
1.33764e-07
3.10498e-06
2.26636e-05
4.98628e-05
7.5602e-05
9.86434e-05
0.000117402
0.000127282
0.000116987
9.01582e-05
6.37435e-05
4.06168e-05
2.23387e-05
1.02767e-05
3.83582e-06
1.13175e-06
2.55368e-07
4.25203e-08
4.75519e-09
2.59183e-10
2.75009e-09
1.68941e-10
9.6484e-12
5.31024e-13
5.90988e-12
5.31288e-11
2.78522e-10
1.01006e-09
2.89218e-09
1.26159e-08
4.70507e-08
1.06099e-07
1.57689e-07
1.63405e-07
1.2255e-07
6.33203e-08
2.53053e-08
7.49491e-09
2.0402e-09
7.28451e-09
1.18598e-07
2.67351e-06
2.15064e-05
4.96423e-05
7.67025e-05
0.000101186
0.000121602
0.000133696
0.000126539
9.92718e-05
7.08866e-05
4.58122e-05
2.56507e-05
1.20366e-05
4.59209e-06
1.38704e-06
3.20955e-07
5.48483e-08
6.29145e-09
3.49828e-10
1.97847e-10
1.20273e-11
6.90059e-13
6.83983e-14
4.36718e-13
4.11214e-12
2.35908e-11
9.55337e-11
3.0682e-10
1.47095e-09
6.19566e-09
1.67233e-08
3.11292e-08
3.86958e-08
3.36163e-08
2.07941e-08
8.95301e-09
2.96616e-09
1.20426e-09
6.6731e-09
1.06967e-07
2.33539e-06
2.04015e-05
4.93948e-05
7.77746e-05
0.000103714
0.0001258
0.000140082
0.000136264
0.000109201
7.87674e-05
5.16149e-05
2.94199e-05
1.40822e-05
5.49106e-06
1.69775e-06
4.02729e-07
7.06015e-08
8.3028e-09
4.70602e-10
1.40066e-11
8.45706e-13
9.93802e-14
7.68194e-14
8.15231e-14
3.11598e-13
1.92638e-12
8.60122e-12
3.06596e-11
1.60099e-10
7.48881e-10
2.32406e-09
5.20298e-09
7.95737e-09
8.19977e-09
5.89183e-09
2.98309e-09
1.10083e-09
7.7986e-10
6.24778e-09
9.8129e-08
2.07401e-06
1.93721e-05
4.91384e-05
7.88425e-05
0.000106248
0.000130019
0.00014648
0.000146082
0.000119977
8.74781e-05
5.81076e-05
3.37181e-05
1.64667e-05
6.56357e-06
2.07754e-06
5.0519e-07
9.08318e-08
1.0948e-08
6.32246e-10
9.77782e-13
7.60148e-14
7.90901e-14
7.56607e-14
7.61542e-14
8.72619e-14
1.53689e-13
7.43137e-13
2.90635e-12
1.63883e-11
8.41824e-11
2.93886e-10
7.63542e-10
1.40277e-09
1.75174e-09
1.48153e-09
8.74769e-10
4.06584e-10
5.99824e-10
5.97883e-09
9.16789e-08
1.8756e-06
1.84399e-05
4.88945e-05
7.99279e-05
0.000108813
0.000134288
0.000152934
0.000155959
0.000131606
9.71188e-05
6.53878e-05
3.86307e-05
1.92544e-05
7.84819e-06
2.54407e-06
6.34302e-07
1.16975e-07
1.44479e-08
8.50037e-10
7.54886e-14
8.02572e-14
7.62572e-14
7.52966e-14
7.53472e-14
7.56956e-14
8.93972e-14
6.44463e-14
2.70596e-13
1.58997e-12
8.87912e-12
3.43905e-11
1.01296e-10
2.17136e-10
3.24331e-10
3.28929e-10
2.31808e-10
1.60075e-10
5.36287e-10
5.84617e-09
8.73231e-08
1.72946e-06
1.7623e-05
4.86866e-05
8.10514e-05
0.000111432
0.000138633
0.000159486
0.000165888
0.000144069
0.000107799
7.35643e-05
4.42564e-05
2.25233e-05
9.39293e-06
3.12001e-06
7.97969e-07
1.50989e-07
1.91124e-08
1.14594e-09
8.09851e-14
7.68268e-14
7.56481e-14
7.46001e-14
7.50565e-14
7.49234e-14
7.64624e-14
8.21175e-14
3.72495e-14
1.76572e-13
8.87101e-13
3.76737e-12
1.23844e-11
3.03014e-11
5.30283e-11
6.46675e-11
5.9101e-11
8.48115e-11
5.24315e-10
5.83613e-09
8.48583e-08
1.62765e-06
1.69361e-05
4.85394e-05
8.22359e-05
0.000114132
0.000143083
0.000166169
0.000175878
0.000157328
0.00011963
8.2759e-05
5.07081e-05
2.63663e-05
1.12574e-05
3.83439e-06
1.00664e-06