/*--------------------------------*- C++ -*----------------------------------*\
| =========                 |                                                 |
| \\      /  F ield         | OpenFOAM: The Open Source CFD Toolbox           |
|  \\    /   O peration     | Version:  1.6.x                                 |
|   \\  /    A nd           | Web:      www.OpenFOAM.org                      |
|    \\/     M anipulation  |                                                 |
\*---------------------------------------------------------------------------*/
FoamFile
{
    version     2.0;
    format      ascii;
    class       volScalarField;
    location    "2";
    object      dQ;
}
// * * * * * * * * * * * * * * * * * * * * * * * * * * * * * * * * * * * * * //

dimensions      [1 2 -3 0 0 0 0];

internalField   nonuniform List<scalar> 
4608
(
0
0
0
0
0
0
0
0
8.6883e-15
1.20876e-05
0
0
0
0
0
0
1.13718e-12
9.85452e-05
5.62892
7.23735e-27
0
0
0
0
0
0
3.35617e-11
0.000250643
3.34368
0.0631283
1.37847
7.20528e-27
5.36774e-27
3.54346e-27
0
0
0
0
4.95518e-10
0.000426086
2.62836
0.343801
0.0114588
3.65608e-05
0.214204
7.19786e-27
5.40047e-27
3.35411e-27
1.1426e-27
0
0
0
4.84578e-09
0.000763018
2.45408
0.19566
0.948158
0.00034575
3.92838e-05
1.62987e-07
0.00338872
7.19304e-27
5.44252e-27
3.40928e-27
1.1641e-27
0
0
0
3.47067e-08
0.0014071
2.33215
0.178572
0.969875
0.0199858
2.80611e-05
3.09788e-06
6.52239e-08
0
1.73458e-05
7.19028e-27
5.48658e-27
3.46667e-27
1.19362e-27
0
0
0
1.9778e-07
0.00248838
2.23502
0.164817
0.540456
0.228494
0.000238841
6.63233e-08
2.24869e-09
0
0
3.45924e-09
7.18908e-27
5.53233e-27
3.52579e-27
1.22404e-27
0
0
0
9.54826e-07
0.00424526
2.17201
0.151283
0.439976
0.732225
0.0035467
3.40975e-06
0
0
0
0
-4.5314e-19
7.18923e-27
5.57974e-27
3.58658e-27
1.25535e-27
0
0
0
4.07681e-06
0.00705494
2.12807
0.145738
0.134337
1.33914
0.0221226
0.000157919
6.14286e-11
0
0
0
0
0
7.19086e-27
5.62898e-27
3.64907e-27
1.28756e-27
0
0
0
1.56562e-05
0.0115127
2.08908
0.158173
0.0768155
1.85208
0.0539042
0.00251104
5.4672e-08
0
0
0
0
0
0
7.19445e-27
5.68018e-27
3.71343e-27
1.32069e-27
0
0
6.22822e-15
5.42622e-05
0.0184688
2.05104
0.142272
0.0592981
1.24665
0.0991198
0.0105816
6.96207e-06
3.06743e-14
0
0
0
0
0
0
7.20044e-27
5.73364e-27
3.77983e-27
1.35484e-27
0
0
8.26302e-14
0.000170558
0.0290433
2.01464
0.143256
0.0364078
0.867731
0.470241
0.0235087
0.000204789
1.96934e-10
0
0
0
0
0
0
0
7.20845e-27
5.78978e-27
3.84854e-27
1.39007e-27
0
0
1.08778e-12
0.000490317
0.0449637
1.97227
0.160101
0.0333483
0.469938
0.822688
0.133206
0.00141519
1.31154e-07
0
0
0
0
0
0
0
0
7.21715e-27
5.84846e-27
3.91989e-27
1.4265e-27
0
0
1.1872e-11
0.00129502
0.0692198
1.9283
0.158406
0.0291011
0.28551
1.21712
0.27212
0.00991262
8.38635e-06
1.53681e-13
0
0
0
0
0
0
0
0
7.22317e-27
5.90845e-27
3.99372e-27
1.46425e-27
0
0
1.17179e-10
0.0031895
0.104118
1.92967
0.1417
0.01791
0.169315
0.897092
0.476303
0.026458
0.000184057
5.95154e-10
0
0
0
0
0
0
0
0
0
7.22198e-27
5.96735e-27
4.06932e-27
1.50331e-27
0
0
1.0386e-09
0.00744755
0.154588
1.86822
0.161423
0.0250886
0.0897994
0.477333
0.976126
0.0512113
0.00121396
1.79134e-07
-1.04588e-18
0
0
0
0
0
0
0
0
0
7.21314e-27
6.02159e-27
4.14511e-27
1.54342e-27
0
0
8.20877e-09
0.0169827
0.228262
1.80438
0.159804
0.0168877
0.0668009
0.214476
1.55146
0.121321
0.00358477
7.01328e-06
5.98437e-13
0
0
0
0
0
0
0
0
0
0
7.20747e-27
6.07119e-27
4.2184e-27
1.584e-27
0
0
5.81963e-08
0.0389562
0.342761
1.73089
0.144742
0.0166317
0.0486313
0.158621
1.67251
0.214208
0.0100483
7.69954e-05
9.09988e-10
0
0
0
0
0
0
0
0
0
0
0
7.22578e-27
6.12445e-27
4.28949e-27
1.62398e-27
0
0
3.71439e-07
0.0946015
0.523553
1.65646
0.147205
0.0178909
0.0320134
0.120659
1.21071
0.463865
0.0211599
0.000410697
1.02479e-07
-8.81081e-18
0
0
0
0
0
0
0
0
0
0
0
6.18165e-27
4.36502e-27
1.66347e-27
0
0
2.22034e-06
0.218827
0.799241
1.5596
0.144225
0.0196236
0.0237676
0.069606
1.41463
0.921951
0.0509054
0.00122657
2.42863e-06
9.36835e-13
0
0
0
0
0
0
0
0
0
0
0
0
4.44927e-27
1.70511e-27
0
2.70764e-14
1.17202e-05
2.63072
0.98871
1.33791
0.139006
0.019818
0.0233381
0.0627971
0.512429
1.20632
0.110861
0.0035462
2.21397e-05
4.497e-10
0
0
0
0
0
0
0
0
0
0
0
0
0
1.7499e-27
0
3.40249e-13
0.000160579
2.01536
0.660075
1.20738
0.137917
0.01719
0.0204116
0.0327177
0.233273
1.82047
0.153524
0.00973872
0.000115635
2.8213e-08
-1.51606e-17
0
0
0
0
0
0
0
0
0
0
0
0
0
0
5.6462e-12
0.00139841
1.54292
0.283601
0.807358
0.124103
0.0154394
0.0169498
0.0269367
0.201347
1.8904
0.254555
0.0158031
0.000422493
5.41514e-07
4.00726e-13
0
0
0
0
0
0
0
0
0
0
0
0
0
0
0
9.20252e-11
0.00791395
1.39417
0.194493
0.164721
0.0675035
0.0165979
0.0118191
0.0207284
0.157434
1.47597
0.502803
0.0270403
0.000934059
5.21325e-06
8.91918e-11
0
0
0
0
0
0
0
0
0
0
0
0
0
0
0
1.48224e-09
0.0329549
1.41508
0.172189
0.106912
0.0352769
0.00974826
0.00929196
0.00922402
0.15881
1.08182
0.945703
0.0578401
0.00186752
2.80341e-05
4.6741e-09
-4.56927e-18
0
0
0
0
0
0
0
0
0
0
0
0
0
0
2.43551e-08
0.105399
0.660198
0.181501
0.106708
0.0194179
0.00813028
0.0064505
0.00763873
0.0984185
0.635582
1.38266
0.118934
0.0047659
8.90067e-05
9.25727e-08
8.28326e-14
0
0
0
0
0
0
0
0
0
0
0
0
0
6.77932e-15
3.57876e-07
1.61682
0.278024
0.0952635
0.117227
0.0163604
0.00393371
0.00417981
0.0069537
0.0404653
0.382599
1.80616
0.169243
0.0106118
0.000235915
8.8516e-07
1.01058e-11
0
0
0
0
0
0
0
0
0
0
0
0
0
1.41594e-13
1.25114e-05
1.48563
0.277115
0.0404957
0.0667306
0.0177575
0.00246403
0.00351358
0.00742429
0.0324748
0.255685
2.22943
0.248008
0.0173417
0.000577926
5.4098e-06
5.22378e-10
0
0
0
0
0
0
0
0
0
0
0
0
0
0
4.3803e-12
0.000330471
1.05274
0.27281
0.0192381
0.0338082
0.0102845
0.00256989
0.00188498
0.00641507
0.0277031
0.188289
1.85612
0.365222
0.0255605
0.00112262
2.42146e-05
1.1598e-08
-3.58442e-16
0
0
0
0
0
0
0
0
0
0
0
0
0
0
1.80109e-10
0.00512313
0.984297
0.0798772
0.0190693
0.0219342
0.00537677
0.00219238
0.00154861
0.00437209
0.0250274
0.237242
1.40774
0.771551
0.0373784
0.00196187
7.77469e-05
1.45917e-07
6.74818e-13
0
0
0
0
0
0
0
0
0
0
0
0
0
0
0
9.88448e-09
0.0447806
0.382869
0.0315863
0.0123384
0.0209606
0.00522966
0.000942412
0.00132011
0.00297594
0.0231827
0.133327
1.79586
1.33702
0.0861798
0.00315719
0.000174222
1.16993e-06
4.36503e-11
0
0
0
0
0
0
0
0
0
0
0
0
0
0
0
0
5.68292e-07
1.41339
0.223681
0.0117855
0.00519262
0.0132466
0.00446681
0.000669029
0.00115372
0.00228491
0.0179558
0.0857816
0.617591
1.48723
0.162141
0.00796656
0.000301617
6.6175e-06
1.22538e-09
-1.33192e-17
0
0
0
0
0
0
0
0
0
0
0
0
0
0
0
0
0.000133224
0.649344
0.0438082
0.00339339
0.00219762
0.00503232
0.00210765
0.000492532
0.00112827
0.00175669
0.0155335
0.0673178
0.360186
1.99219
0.199083
0.0152762
0.000599872
2.81126e-05
1.96585e-08
-2.53065e-15
0
0
0
0
0
0
0
0
0
0
0
0
0
0
0
0
0
0.0118409
0.250972
0.0119415
0.00171431
0.000681047
0.00361327
0.00126651
0.00106603
0.000941657
0.00176949
0.0132378
0.0592331
0.285007
2.37793
0.280299
0.0209408
0.00113192
9.57254e-05
1.99954e-07
2.10484e-12
0
0
0
0
0
0
0
0
0
0
0
0
0
0
0
0
0
0
0.456388
0.039248
0.00384418
0.000386977
0.00032019
0.00111341
0.000472856
0.000753638
0.00229319
0.00155451
0.0123539
0.0410402
0.252809
2.3019
0.364483
0.0284568
0.00166482
0.0002519
1.425e-06
7.44642e-11
0
0
0
0
0
0
0
0
0
0
0
0
0
0
0
0
0
0
0
0.111626
0.00808651
0.00120629
0.000207161
8.24244e-05
0.000371514
0.000546274
0.000522413
0.00227265
0.0013048
0.0106019
0.0347639
0.236029
1.95002
0.562456
0.0389378
0.00242677
0.000466285
7.63923e-06
1.48991e-09
-3.86293e-17
0
0
0
0
0
0
0
0
0
0
0
0
0
0
0
0
0
0
0
0.0107921
0.00201956
0.000155171
5.919e-05
4.68281e-05
0.000284637
0.000245795
0.000425263
0.00205904
0.00151259
0.00951348
0.0310384
0.202568
1.69544
0.889615
0.0638966
0.00330587
0.000650497
3.04172e-05
1.92879e-08
-3.81143e-15
0
0
0
0
0
0
0
0
0
0
0
0
0
0
0
0
0
0
0
0.00170868
0.000452451
0.000103116
1.46561e-05
1.3439e-05
9.6452e-05
0.000109825
0.00032525
0.00215538
0.000909023
0.0069994
0.0413743
0.177469
1.46137
1.2072
0.108017
0.00580382
0.000768151
9.35181e-05
1.64588e-07
1.98179e-12
0
0
0
0
0
0
0
0
0
0
0
0
0
0
0
0
0
0
0
0.000341701
6.3467e-05
2.44923e-05
3.34201e-06
3.48581e-06
3.01242e-05
5.87961e-05
0.000282363
0.00179806
0.00142797
0.00613131
0.0399856
0.171109
1.21999
1.45909
0.165811
0.00999738
0.000905247
0.000235408
9.79743e-07
4.83037e-11
0
0
0
0
0
0
0
0
0
0
0
0
0
0
0
0
0
0
0
4.9915e-05
3.08485e-05
5.04156e-06
9.29906e-07
9.77276e-07
1.09394e-05
4.04932e-05
0.000274527
0.00162169
0.000776479
0.00762115
0.028322
0.16196
1.75921
1.75823
0.189125
0.0158351
0.00115319
0.000495767
4.42876e-06
7.24305e-10
-3.11446e-17
0
0
0
0
0
0
0
0
0
0
0
0
0
0
0
0
0
0
1.66157e-05
6.05878e-06
9.63376e-07
5.03149e-07
4.72848e-07
6.18011e-06
4.05981e-05
0.000252943
0.00160359
0.000952244
0.00509963
0.0291496
0.188124
1.01227
1.72632
0.257699
0.0180989
0.00147651
0.00086556
1.60791e-05
7.30015e-09
-1.40151e-15
0
0
0
0
0
0
0
0
0
0
0
0
0
0
0
0
0
0
3.10511e-06
1.05107e-06
2.35548e-07
5.18717e-07
3.90606e-07
5.55e-06
4.01276e-05
0.000281963
0.00146481
0.00067919
0.00425721
0.0271496
0.138077
0.587372
2.01641
0.309661
0.0265075
0.00171575
0.00124392
4.85609e-05
5.31682e-08
5.15484e-13
0
0
0
0
0
0
0
0
0
0
0
0
0
0
0
0
0
0
5.13563e-07
1.76968e-07
1.23546e-07
5.16348e-07
4.51927e-07
5.48777e-06
4.22762e-05
0.000282906
0.00161001
0.000615084
0.00437863
0.0231999
0.14615
0.583778
2.16281
0.349803
0.0342796
0.00219042
0.00150725
0.000124744
2.94984e-07
9.21951e-12
0
0
0
0
0
0
0
0
0
0
0
0
0
0
0
0
0
0
7.88579e-08
3.4733e-08
1.30892e-07
6.40146e-07
4.46832e-07
6.5167e-06
4.223e-05
0.000294136
0.00159787
0.000665525
0.00344592
0.0227238
0.0798116
0.543939
2.25475
0.220232
0.0378187
0.00300949
0.00162298
0.000278703
1.30007e-06
1.20257e-10
0
0
0
0
0
0
0
0
0
0
0
0
0
0
0
0
0
0
1.11277e-08
2.38948e-08
1.34602e-07
6.64453e-07
5.54928e-07
6.39944e-06
4.97093e-05
0.000287496
0.00162945
0.000656053
0.00422903
0.0200363
0.0825011
0.443103
2.36675
0.233107
0.0369264
0.00358552
0.00161562
0.000555439
4.71603e-06
1.12858e-09
-1.50737e-16
0
0
0
0
0
0
0
0
0
0
0
0
0
0
0
0
0
4.54709e-09
2.3636e-08
1.67141e-07
8.46108e-07
5.65941e-07
7.88342e-06
4.80339e-05
0.000333139
0.00155508
0.000910902
0.00415282
0.0214877
0.0711025
0.317583
2.41685
0.447879
0.0292978
0.00319171
0.00153079
0.000987412
1.46123e-05
8.00326e-09
-3.54231e-15
0
0
0
0
0
0
0
0
0
0
0
0
0
0
0
0
0
4.45901e-09
2.90078e-08
1.95465e-07
1.06772e-06
7.18026e-07
7.96846e-06
5.8336e-05
0.000316977
0.00176657
0.000618066
0.00406318
0.0210086
0.0764845
0.367218
2.38638
0.497713
0.0602061
0.00366007
0.00135675
0.00153957
3.93717e-05
4.48074e-08
6.15356e-13
0
0
0
0
0
0
0
0
0
0
0
0
0
0
0
0
0
4.76548e-09
4.08772e-08
2.61434e-07
1.39581e-06
8.99176e-07
1.0019e-05
5.8223e-05
0.000378667
0.00165247
0.000689356
0.00369658
0.0207953
0.0747041
0.290877
2.33763
0.551491
0.0462568
0.00592098
0.00114522
0.00212737
9.27957e-05
2.04267e-07
8.48002e-12
0
0
0
0
0
0
0
0
0
0
0
0
0
0
0
0
0
5.72e-09
4.54834e-08
3.52696e-07
1.79353e-06
1.162e-06
1.24591e-05
7.20225e-05
0.000373123
0.0019328
0.000636754
0.00461949
0.0188928
0.0695506
0.28378
2.2634
0.428102
0.0533576
0.0059075
0.00108235
0.00264952
0.000195132
7.73297e-07
7.91732e-11
0
0
0
0
0
0
0
0
0
0
0
0
0
0
0
0
0
7.63551e-09
7.51279e-08
4.61026e-07
2.39352e-06
1.47614e-06
1.59244e-05
8.85842e-05
0.000451952
0.00187407
0.000732038
0.0041763
0.021047
0.0619755
0.277378
2.20101
0.537637
0.0539555
0.00541725
0.000900776
0.00301496
0.000373978
2.4963e-06
5.78564e-10
-1.82497e-16
0
0
0
0
0
0
0
0
0
0
0
0
0
0
0
0
1.21769e-08
9.96524e-08
5.5563e-07
2.69123e-06
1.96912e-06
1.99984e-05
0.000110855
0.000547266
0.00220643
0.000700925
0.00451189
0.0189941
0.0739526
0.33114
2.14848
0.616117
0.0621855
0.00494132
0.000826034
0.0031838
0.000662534
7.06123e-06
3.38453e-09
-1.82497e-15
0
0
0
0
0
0
0
0
0
0
0
0
0
0
0
0
1.36887e-08
1.21993e-07
7.42153e-07
3.77242e-06
2.16957e-06
2.64435e-05
0.000136074
0.000666514
0.00112256
0.00119576
0.00429627
0.0219725
0.065693
0.267841
2.09966
0.611399
0.0678319
0.00952397
0.000799795
0.00316631
0.00109216
1.78795e-05
1.63339e-08
2.49889e-13
0
0
0
0
0
0
0
0
0
0
0
0
0
0
0
0
1.67368e-08
1.64062e-07
9.29043e-07
5.83569e-06
3.03634e-06
2.88018e-05
0.000176891
0.000794646
0.00162125
0.00153422
0.00705404
0.016427
0.0770926
0.33199
2.07605
0.626425
0.0846946
0.00900972
0.000871616
0.00299144
0.00168179
4.11003e-05
6.69623e-08
2.50366e-12
0
0
0
0
0
0
0
0
0
0
0
0
0
0
0
0
2.73209e-08
2.08809e-07
1.43551e-06
8.33064e-06
4.67948e-06
3.98449e-05
0.000188469
0.00100786
0.00148102
0.0021138
0.00950915
0.0172935
0.102148
0.598114
2.03136
0.58239
0.088562
0.00786128
0.000859159
0.00270937
0.00242613
8.67805e-05
2.38371e-07
1.95276e-11
0
0
0
0
0
0
0
0
0
0
0
0
0
0
0
0
3.52071e-08
3.2381e-07
2.21507e-06
1.29735e-05
6.54652e-06
6.07952e-05
0.000254215
0.00104425
0.0021768
0.00277943
0.0106493
0.0212452
0.083108
0.37687
2.04461
0.563633
0.0831802
0.00995634
0.000896704
0.00235591
0.00327961
0.000170052
7.49804e-07
1.25884e-10
0
0
0
0
0
0
0
0
0
0
0
0
0
0
0
0
5.45959e-08
5.07768e-07
3.37019e-06
2.10608e-05
1.00471e-05
8.34172e-05
0.000378991
0.00135852
0.0026891
0.00363462
0.0100117
0.0284851
0.106948
0.463665
2.00459
0.478197
0.122123
0.0149962
0.000665881
0.00197389
0.00415277
0.000312127
2.11556e-06
6.85939e-10
-4.42134e-16
0
0
0
0
0
0
0
0
0
0
0
0
0
0
0
8.64622e-08
7.87769e-07
6.20178e-06
3.66075e-05
1.58954e-05
0.000125298
0.000498389
0.000823278
0.00443941
0.0035889
0.0119208
0.0544761
0.132885
0.592743
1.84531
0.272655
0.109751
0.015131
0.00108995
0.00157341
0.00492992
0.000539869
5.42886e-06
3.20074e-09
-3.53707e-15
0
0
0
0
0
0
0
0
0
0
0
0
0
0
0
1.35858e-07
1.47498e-06
1.06084e-05
6.6383e-05
2.69106e-05
0.000193283
0.000713984
0.00113904
0.00780086
0.00344761
0.0120947
0.0685466
0.161824
0.728541
1.58727
0.242287
0.094986
0.00906345
0.000774924
0.00123879
0.00551196
0.00088459
1.28107e-05
1.30064e-08
3.00933e-13
0
0
0
0
0
0
0
0
0
0
0
0
0
0
0
2.5666e-07
2.60445e-06
2.25247e-05
5.7847e-05
4.68234e-05
0.000316001
0.000584081
0.00255947
0.00775589
0.00542908
0.015994
0.0472685
0.15575
0.877242
1.37797
0.295554
0.055302
0.0073563
0.00124181
0.00093753
0.00584908
0.00138149
2.80435e-05
4.67861e-08
2.42648e-12
0
0
0
0
0
0
0
0
0
0
0
0
0
0
0
4.62632e-07
5.72825e-06
4.10414e-05
0.000148053
3.84539e-05
0.000222351
0.00100559
0.00472427
0.010147
0.0123957
0.0297925
0.0607505
0.23017
1.05355
1.16564
0.255014
0.0459501
0.0146574
0.00117633
0.000737571
0.00593324
0.0020577
5.74166e-05
1.50942e-07
1.51625e-11
0
0
0
0
0
0
0
0
0
0
0
0
0
0
0
1.03879e-06
1.09846e-05
3.584e-05
0.000444884
0.000154172
0.000818368
0.00257686
0.00531454
0.0288604
0.0124179
0.0367874
0.0897917
0.313521
1.23209
0.87519
0.215235
0.0456377
0.0135557
0.00065774
0.000547329
0.00578998
0.00292337
0.000110571
4.41457e-07
8.21657e-11
0
0
0
0
0
0
0
0
0
0
0
0
0
0
0
2.0612e-06
2.39388e-05
0.000194077
0.00144573
0.000291761
0.00123729
0.00379033
0.0125703
0.0321025
0.0230916
0.0504213
0.147563
0.529161
1.29514
0.583
0.149198
0.0721502
0.00492241
0.00130884
0.000386635
0.0054667
0.00395646
0.000201035
1.18069e-06
3.88938e-10
0
0
0
0
0
0
0
0
0
0
0
0
0
0
0
4.67993e-06
2.8198e-05
0.000475346
0.0112075
0.0011561
0.00636573
0.0137198
0.0262547
0.0779283
0.0416206
0.120311
0.253697
0.791665
0.980024
0.301903
0.174941
0.0639289
0.00414768
0.00126701
0.00032305
0.00502136
0.00510375
0.000346704
2.90795e-06
1.62577e-09
-2.14317e-15
0
0
0
0
0
0
0
0
0
0
0
0
0
0
6.27634e-06
0.000125669
0.00188917
0.0578407
0.00561686
0.0162992
0.0346918
0.119516
0.191308
0.0936655
0.217472
0.501205
0.961577
0.61368
0.258848
0.0626968
0.0279162
0.00360098
0.000724717
0.000292101
0.00450884
0.00629255
0.000569587
6.64036e-06
6.0501e-09
-1.5538e-14
0
0
0
0
0
0
0
0
0
0
0
0
0
0
3.07136e-05
0.000448483
0.0185826
0.0143055
0.0280234
0.0757651
0.128245
0.265101
0.482209
0.228191
0.473682
0.721718
0.615843
0.315383
0.142583
0.104502
0.0103134
0.00410376
0.000734802
0.00026328
0.00397687
0.00743968
0.000892209
1.41556e-05
2.02536e-08
1.10583e-12
0
0
0
0
0
0
0
0
0
0
0
0
0
0
9.24193e-05
0.00535292
0.0169812
0.0020925
0.00353245
0.0866912
0.250449
0.355802
0.332751
0.142313
0.408643
0.401223
0.270735
0.196927
0.110152
0.0413254
0.0131602
0.00175191
0.000442689
0.000210481
0.00345761
0.0084641
0.00133574
2.82988e-05
6.15408e-08
5.88202e-12
0
0
0
0
0
0
0
0
0
0
0
0
0
0
0.0012241
0.0153449
0.00330917
0.000146607
0.000472914
0.0148406
0.0232363
0.0813153
0.0516156
0.045042
0.139036
0.151317
0.142964
0.0736859
0.0943278
0.0138899
0.00601645
0.00112732
0.000172172
0.000144628
0.00297504
0.00930553
0.00191252
5.33104e-05
1.70995e-07
2.82871e-11
0
0
0
0
0
0
0
0
0
0
0
0
0
0
0.00656354
0.00121291
0.000142167
6.31366e-05
4.66359e-05
0.00238548
0.00413285
0.0256558
0.0376598
0.0160509
0.0450611
0.05233
0.0732951
0.0374967
0.0339265
0.0128456
0.00238906
0.000736543
0.000104296
0.000184335
0.00254719
0.00993324
0.00262959
9.54426e-05
4.3752e-07
1.21966e-10
0
0
0
0
0
0
0
0
0
0
0
0
0
0
0.00052942
0.000113415
6.61323e-05
7.37678e-06
1.88211e-05
0.000478894
0.000615932
0.00134252
0.00234243
0.00401483
0.0157639
0.0385744
0.0158718
0.0241935
0.0131085
0.00982497
0.00129263
0.000335962
7.27528e-05
0.000160083
0.00218308
0.0103453
0.00348336
0.000162499
1.03857e-06
4.70214e-10
0
0
0
0
0
0
0
0
0
0
0
0
0
0
6.26901e-05
5.43941e-05
7.89233e-06
6.88811e-07
2.17683e-06
7.69665e-05
0.000336824
0.000870065
0.000655371
0.000582846
0.00589664
0.00452155
0.00648222
0.00360577
0.00279801
0.00300701
0.00075068
0.000184524
4.56235e-05
9.34e-05
0.00188795
0.0105641
0.00445714
0.000263429
2.29841e-06
1.63548e-09
-3.89754e-15
0
0
0
0
0
0
0
0
0
0
0
0
0
2.26954e-05
6.65241e-06
7.34268e-07
3.16016e-08
1.78331e-07
8.84798e-06
5.00608e-05
0.000163592
0.000361148
0.000299096
0.000625884
0.0010667
0.00196266
0.0021485
0.00129933
0.000640225
0.000290548
0.000138787
3.17249e-05
7.53897e-05
0.00164883
0.0106238
0.00552226
0.000407269
4.76152e-06
5.1691e-09
4.64871e-13
0
0
0
0
0
0
0
0
0
0
0
0
0
2.84627e-06
5.14463e-07
3.34231e-08
2.38088e-09
9.43935e-09
7.49111e-07
5.73136e-06
2.2869e-05
6.10327e-05
6.35e-05
0.000421383
0.000889464
0.000570269
0.000666215
0.000616455
0.000424703
0.000150549
8.16423e-05
2.21783e-05
6.7749e-05
0.00146028
0.0105626
0.00664516
0.000601866
9.28091e-06
1.4953e-08
1.35434e-12
0
0
0
0
0
0
0
0
0
0
0
0
0
2.67682e-07
2.80692e-08
2.47632e-09
0
7.20911e-10
3.93767e-08
5.07952e-07
2.6216e-06
8.24094e-06
1.03658e-05
8.57279e-05
0.000226045
0.000427396
0.000581095
0.000590521
0.000448083
0.00024313
9.76774e-05
1.01484e-05
6.32213e-05
0.00131633
0.0104203
0.00779035
0.000854794
1.71357e-05
3.98352e-08
4.88231e-12
0
0
0
0
0
0
0
0
0
0
0
0
0
1.21752e-08
2.05034e-09
3.65632e-10
0
0
3.07628e-09
2.70536e-08
1.47334e-07
9.51113e-07
1.38851e-06
1.37572e-05
4.4209e-05
0.000102973
0.00016961
0.000198085
0.000168155
0.000102884
4.52785e-05
1.12782e-05
5.82904e-05
0.00120933
0.0102415
0.00892349
0.00117138
2.99891e-05
9.83267e-08
2.04993e-11
0
0
0
0
0
0
0
0
0
0
0
0
0
8.84939e-10
0
0
0
0
0
2.22277e-09
1.31762e-08
5.40913e-08
1.53497e-07
1.53328e-06
7.01611e-06
1.96905e-05
3.94566e-05
5.52085e-05
5.40423e-05
3.76661e-05
2.01587e-05
2.10765e-05
5.59621e-05
0.00112884
0.0100522
0.010023
0.00155385
4.99155e-05
2.25859e-07
7.39425e-11
0
0
0
0
0
0
0
0
0
0
0
0
0
0
0
0
0
0
0
0
0
5.18225e-09
9.259e-09
1.22774e-07
9.50234e-07
3.12794e-06
7.48894e-06
1.26222e-05
1.4715e-05
1.20821e-05
9.15787e-06
7.72316e-06
6.27852e-05
0.00107578
0.0098822
0.0110642
0.00200263
7.93072e-05
4.85075e-07
2.43627e-10
0
0
0
0
0
0
0
0
0
0
0
0
0
0
0
0
0
0
0
0
0
0
1.05624e-09
1.2685e-08
6.36622e-08
3.8873e-07
1.01385e-06
2.41549e-06
3.40031e-06
3.58218e-06
5.21189e-06
4.55946e-06
5.94499e-05
0.00104626
0.00975274
0.0120386
0.0025129
0.000120825
9.78615e-07
7.35312e-10
-3.15152e-15
0
0
0
0
0
0
0
0
0
0
0
0
0
0
0
0
0
0
0
0
0
0
2.12923e-09
6.86628e-09
2.95317e-08
1.71817e-07
4.08174e-07
5.99878e-07
1.24874e-06
4.10568e-06
4.10897e-06
8.8762e-05
0.00103974
0.00967932
0.0129435
0.00307844
0.000176995
1.86502e-06
2.04477e-09
-9.45457e-15
0
0
0
0
0
0
0
0
0
0
0
0
0
0
0
0
0
0
0
0
0
0
0
1.89675e-09
3.65646e-09
1.35891e-08
4.10791e-08
2.13145e-07
7.91187e-07
3.92618e-06
4.32292e-06
9.21306e-05
0.00105244
0.00967244
0.0137807
0.00369065
0.000250268
3.37176e-06
5.27108e-09
5.46394e-13
0
0
0
0
0
0
0
0
0
0
0
0
0
0
0
0
0
0
0
0
0
0
0
0
0
3.64529e-09
1.551e-08
1.28765e-07
7.78501e-07
4.12686e-06
4.75764e-06
6.37348e-05
0.00108688
0.00973834
0.0145554
0.00433932
0.000342768
5.80793e-06
1.26542e-08
1.60484e-12
0
0
0
0
0
0
0
0
0
0
0
0
0
0
0
0
0
0
0
0
0
0
0
0
0
3.17159e-09
1.42926e-08
1.17375e-07
7.63194e-07
4.34883e-06
9.04161e-06
5.54524e-05
0.00114523
0.00987961
0.0152741
0.00501336
0.000456064
9.56614e-06
2.8435e-08
5.92013e-12
0
0
0
0
0
0
0
0
0
0
0
0
0
0
0
0
0
0
0
0
0
0
0
0
0
3.58991e-09
1.67038e-08
1.55854e-07
8.52121e-07
4.11269e-06
6.43156e-06
7.61013e-05
0.00123615
0.0100957
0.0159427
0.00570153
0.000591071
1.51213e-05
6.00909e-08
1.94314e-11
0
0
0
0
0
0
0
0
0
0
0
0
0
0
0
0
0
0
0
0
0
0
0
0
0
4.60827e-09
3.36575e-08
1.79764e-07
9.54399e-07
4.22579e-06
1.63945e-05
7.38828e-05
0.00134046
0.0103841
0.0165655
0.00639283
0.000747939
2.30194e-05
1.19971e-07
5.72454e-11
0
0
0
0
0
0
0
0
0
0
0
0
0
0
0
0
0
0
0
0
0
0
0
0
0
7.2651e-09
3.92825e-08
2.11965e-07
1.04327e-06
4.3234e-06
1.15568e-05
9.54982e-05
0.00146962
0.0107394
0.017145
0.00707672
0.000926029
3.38524e-05
2.27272e-07
1.56132e-10
0
0
0
0
0
0
0
0
0
0
0
0
0
0
0
0
0
0
0
0
0
0
0
0
2.27256e-09
1.23701e-08
6.94041e-08
2.56131e-07
1.15368e-06
1.77345e-06
9.64885e-06
0.00012107
0.00166903
0.0111555
0.0176817
0.0077434
0.0011239
4.82268e-05
4.10163e-07
3.9488e-10
-3.82364e-15
0
0
0
0
0
0
0
0
0
0
0
0
0
0
0
0
0
0
0
0
0
0
1.69274e-09
4.97573e-09
1.50704e-08
7.04807e-08
3.75333e-07
1.28343e-06
1.2135e-06
1.14938e-05
0.000127973
0.0018973
0.011625
0.0181737
0.00838374
0.00133938
6.67257e-05
7.07805e-07
9.37243e-10
-7.64728e-15
0
0
0
0
0
0
0
0
0
0
0
0
0
0
0
0
0
0
0
0
0
0
0
5.67804e-09
2.16878e-08
8.66826e-08
3.61475e-07
1.67459e-06
1.70959e-06
1.3984e-05
0.000161507
0.0021714
0.0121406
0.0186179
0.00898915
0.00156933
8.98596e-05
1.17194e-06
2.09434e-09
-2.67655e-14
0
0
0
0
0
0
0
0
0
0
0
0
0
0
0
0
0
0
0
0
0
2.36239e-09
2.72344e-09
7.44416e-09
2.74506e-08
1.05343e-07
4.14858e-07
1.48335e-06
6.62031e-06
2.79244e-05
0.000198323
0.00249821
0.0126921
0.0190102
0.00955198
0.00181013
0.00011794
1.86797e-06
4.42532e-09
6.3629e-13
0
0
0
0
0
0
0
0
0
0
0
0
0
0
0
0
0
0
0
0
0
0
3.28844e-09
1.11638e-08
3.90544e-08
1.26734e-07
4.68677e-07
6.24992e-07
3.51111e-06
2.7659e-05
0.00025272
0.00288433
0.0132686
0.019346
0.0100656
0.00205786
0.000151189
2.87816e-06
8.87438e-09
2.6331e-12
0
0
0
0
0
0
0
0
0
0
0
0
0
0
0
0
0
0
0
0
0
0
4.93359e-09
1.42226e-08
4.74056e-08
1.69093e-07
5.1326e-07
6.17653e-07
6.40512e-06
2.08313e-05
0.000315877
0.00333318
0.0138579
0.0196207
0.0105241
0.00230839
0.000189694
4.29669e-06
1.69581e-08
6.53494e-12
0
0
0
0
0
0
0
0
0
0
0
0
0
0
0
0
0
0
0
0
1.05843e-09
2.89563e-09
6.77336e-09
1.86904e-08
5.74178e-08
1.90524e-07
6.07878e-07
6.34148e-07
1.09737e-05
3.96836e-05
0.000414954
0.00384785
0.0144471
0.01983
0.0109225
0.00255734
0.000233353
6.2244e-06
3.09858e-08
1.70329e-11
0
0
0
0
0
0
0
0
0
0
0
0
0
0
0
0
0
0
0
3.39994e-09
1.40983e-09
4.12505e-09
9.51806e-09
2.47835e-08
7.09048e-08
2.11045e-07
1.67671e-07
1.22625e-06
9.65974e-06
5.07165e-05
0.000541244
0.00442915
0.0150222
0.0199696
0.0112567
0.00280018
0.000281838
8.76419e-06
5.42971e-08
4.06276e-11
0
0
0
0
0
0
0
0
0
0
0
0
0
0
0
0
0
1.67502e-09
0
3.45876e-09
1.95823e-09
6.12987e-09
1.32088e-08
3.27205e-08
8.62939e-08
2.34432e-07
2.51615e-07
1.391e-06
1.02333e-05
7.26701e-05
0.000709319
0.00507426
0.0155683
0.0200362
0.0115236
0.00303242
0.000334554
1.20125e-05
9.1499e-08
9.17684e-11
0
0
0
0
0
0
0
0
0
0
0
0
0
0
0
0
0
0
2.84739e-09
4.25064e-09
2.95518e-09
7.84728e-09
1.88177e-08
4.18977e-08
1.02877e-07
7.40233e-08
5.11673e-07
4.43499e-06
1.36561e-05
0.000103806
0.000942994
0.0057737
0.0160703
0.0200267
0.0117212
0.00324988
0.000390741
1.60363e-05
1.48699e-07
1.95982e-10
0
0
0
0
0
0
0
0
0
0
0
0
0
0
0
0
0
1.571e-09
2.355e-09
6.79481e-09
3.51136e-09
1.18647e-08
2.20679e-08
5.38877e-08
3.13008e-08
1.15132e-07
8.94772e-07
4.34472e-06
1.96193e-05
0.000140622
0.00123491
0.00651906
0.0165095
0.0199382
0.0118485
0.00344879
0.0004495
2.09043e-05
2.34032e-07
3.98472e-10
-9.28148e-15
0
0
0
0
0
0
0
0
0
0
0
0
0
2.65884e-10
0
0
1.2437e-09
3.52505e-09
8.28995e-09
1.38294e-09
1.34085e-08
8.15219e-09
1.60032e-08
1.0195e-07
2.47736e-07
1.92815e-06
3.27597e-06
2.58202e-05
0.000207243
0.00159937
0.00728931
0.0168812
0.0197648
0.0119052
0.00362577
0.000509809
2.66612e-05
3.56949e-07
7.76028e-10
-1.8563e-14
0
0
0
0
0
0
0
0
0
0
0
0
0
1.04699e-10
1.13394e-10
6.39043e-10
1.9074e-09
1.37419e-09
3.06198e-09
2.40809e-09
5.50205e-09
1.38385e-08
3.40409e-08
9.75353e-08
5.49997e-07
2.08536e-06
6.65858e-06
4.04702e-05
0.000301466
0.00203944
0.0080636
0.0171618
0.0195168
0.0118893
0.00377792
0.000570547
3.33222e-05
5.28298e-07
1.44647e-09
8.32592e-13
0
0
0
0
0
0
0
0
0
0
0
0
8.30935e-11
1.45975e-10
3.71569e-11
3.77702e-10
1.04236e-09
2.83922e-09
8.07263e-09
3.12451e-09
8.5524e-09
2.34636e-08
7.84833e-08
2.74139e-07
5.58988e-07
1.7618e-06
1.02675e-05
6.25821e-05
0.000451404
0.00255342
0.00881729
0.017343
0.0191819
0.0118095
0.00390207
0.000630497
4.0866e-05
7.59875e-07
2.59149e-09
7.67622e-13
0
0
0
0
0
0
0
0
0
0
0
1.2531e-10
4.60695e-11
9.19704e-10
1.0911e-10
5.11272e-10
2.22212e-09
5.47751e-09
1.48622e-08
8.32776e-09
2.01922e-08
4.08489e-08
2.59606e-07
2.69681e-07
1.0853e-06
3.68833e-06
1.75464e-05
0.000102984
0.000653899
0.00313159
0.00952493
0.0174161
0.0187652
0.0116608
0.00399882
0.000688267
4.92254e-05
1.06374e-06
4.46923e-09
2.3864e-12
0
0
0
0
0
0
0
0
0
0
0
0
1.13889e-10
2.63122e-09
9.32439e-10
3.71292e-09
3.97149e-09
3.24689e-08
5.69774e-08
3.29818e-08
4.47119e-08
1.29925e-07
2.84235e-07
4.46354e-07
1.65795e-06
6.38715e-06
3.05402e-05
0.000167215
0.000922679
0.0037581
0.0101625
0.0173759
0.0182697
0.0114488
0.00406467
0.000743075
5.82824e-05
1.45011e-06
7.43822e-09
5.60539e-12
0
0
0
0
0
0
0
0
0
0
0
4.44596e-11
1.18598e-09
6.86081e-09
1.46567e-09
8.5685e-09
1.40057e-08
3.12778e-08
9.18626e-08
4.48846e-08
1.09291e-07
1.8133e-07
3.10109e-07
1.09413e-06
3.01846e-06
1.18722e-05
5.28094e-05
0.000272555
0.00126056
0.00440987
0.010709
0.0172213
0.0177003
0.0111777
0.00409993
0.000793363
6.79359e-05
1.92865e-06
1.199e-08
1.11643e-11
0
0
0
0
0
0
0
0
0
0
1.36826e-11
2.15525e-10
1.51706e-09
2.66131e-08
5.21245e-09
1.9464e-08
4.98891e-08
1.17219e-07
2.42138e-07
1.07301e-07
2.18463e-07
4.00519e-07
8.0126e-07
2.08444e-06
6.31128e-06
2.21475e-05
9.41667e-05
0.000425728
0.0016637
0.00506025
0.0111484
0.016955
0.0170642
0.0108526
0.00410479
0.000838243
7.79821e-05
2.50869e-06
1.8731e-08
2.14775e-11
0
0
0
0
0
0
0
0
0
0
1.8735e-11
7.59741e-10
6.9706e-09
1.17771e-07
2.19296e-08
7.38145e-08
1.66603e-07
4.01193e-07
7.43218e-07
3.07059e-07
5.8137e-07
9.59549e-07
1.95333e-06
4.46551e-06
1.2647e-05
4.26198e-05
0.000167096
0.000635489
0.00211998
0.00568182
0.01147
0.0165832
0.0163698
0.0104798
0.00408012
0.00087683
8.82384e-05
3.19421e-06
2.84133e-08
4.05327e-11
0
0
0
0
0
0
0
0
0
0
1.93396e-10
1.78632e-09
3.27833e-08
5.53515e-07
9.95517e-08
2.96987e-07
6.2082e-07
1.3545e-06
2.43112e-06
9.17857e-07
1.5787e-06
2.42533e-06
4.49956e-06
1.00858e-05
2.65127e-05
8.40004e-05
0.000279031
0.000903167
0.00260982
0.00624929
0.0116683
0.016115
0.0156269
0.0100659
0.00402739
0.000908411
9.84892e-05
3.98692e-06
4.18713e-08
7.47644e-11
0
0
0
0
0
0
0
0
0
0
3.67259e-10
7.54668e-09
1.75242e-07
2.01036e-06
4.04548e-07
1.25423e-06
2.412e-06
4.81318e-06
7.94437e-06
2.80629e-06
4.61556e-06
6.54258e-06
1.13302e-05
2.34325e-05
5.6564e-05
0.000153214
0.000437162
0.0012219
0.00310911
0.00674117
0.0117429
0.0155613
0.0148459
0.00961824
0.00394861
0.000932472
0.000108507
4.88342e-06
6.00326e-08
1.32029e-10
0
0
0
0
0
0
0
0
0
0
1.29142e-09
4.28186e-08
8.19615e-07
5.38161e-06
1.23806e-06
4.34524e-06
7.84754e-06
1.43066e-05
2.15445e-05
7.33797e-06
1.26876e-05
1.71239e-05
2.72341e-05
5.07973e-05
0.000108844
0.000257981
0.000641791
0.00157706
0.00359254
0.00714142
0.0116976
0.0149343
0.0140371
0.00914396
0.00384622
0.000948706
0.000118062
5.87476e-06
8.38416e-08
2.25079e-10
-1.12682e-14
0
0
0
0
0
0
0
0
0
7.44679e-09
2.53379e-07
2.7142e-06
1.12379e-05
2.91624e-06
1.15589e-05
2.00711e-05
3.40182e-05
4.75113e-05
1.58293e-05
2.94098e-05
3.83289e-05
5.73621e-05
9.82185e-05
0.000189576
0.000400273
0.000885379
0.00194883
0.0040366
0.00743954
0.0115396
0.0142467
0.0132106
0.0086502
0.00372296
0.000957024
0.000126938
6.94727e-06
1.14114e-07
3.72305e-10
-1.12682e-14
0
0
0
0
0
0
0
0
0
5.00958e-08
1.08805e-06
6.59218e-06
1.93241e-05
5.57816e-06
2.44107e-05
4.14646e-05
6.65558e-05
8.76955e-05
2.88903e-05
5.74469e-05
7.35419e-05
0.000105364
0.000168906
0.000299698
0.000575408
0.00115416
0.0023155
0.0044216
0.00763054
0.0112786
0.0135112
0.0123756
0.00814367
0.00358179
0.000957529
0.000134936
8.08305e-06
1.51633e-07
5.9498e-10
-3.38047e-14
0
0
0
0
0
0
0
0
0
2.72813e-07
3.19205e-06
1.25594e-05
2.81819e-05
9.04177e-06
4.29798e-05
7.23067e-05
0.000111579
0.000140693
4.61701e-05
9.70544e-05
0.000123279
0.00017149
0.00026153
0.000434615
0.00077307
0.00143098
0.00265659
0.00473315
0.00771456
0.0109267
0.0127402
0.0115407
0.00763062
0.0034257
0.000950508
0.000141886
9.26057e-06
1.97025e-07
9.25125e-10
9.88276e-13
0
0
0
0
0
0
0
0
0
9.48636e-07
6.86532e-06
1.95719e-05
3.4993e-05
1.26935e-05
6.54691e-05
0.000110488
0.000165991
0.000202544
6.65114e-05
0.000146036
0.000185061
0.000252241
0.000370831
0.000585351
0.000979795
0.00169835
0.00295496
0.00496241
0.00769611
0.0104969
0.0119458
0.0107138
0.00711674
0.00325772
0.000936399
0.000147646
1.04552e-05
2.50682e-07
1.39681e-09
9.43204e-13
0
0
0
0
0
0
0
0
0
2.25125e-06
1.15111e-05
2.52193e-05
1.54407e-05
8.79188e-05
0.00015167
0.000224757
0.000267902
8.82891e-05
0.000200581
0.000254277
0.000341729
0.000488654
0.000741412
0.00118134
0.00194074
0.00319814
0.00510598
0.00758333
0.0100032
0.0111393
0.00990181
0.00660719
0.00308078
0.000915763
0.000152113
1.16401e-05
3.12674e-07
2.0523e-09
1.89768e-12
0
0
0
0
0
0
0
0
0
3.98521e-06
1.54182e-05
0.00010413
0.000189286
0.000281488