/*--------------------------------*- C++ -*----------------------------------*\
| =========                 |                                                 |
| \\      /  F ield         | OpenFOAM: The Open Source CFD Toolbox           |
|  \\    /   O peration     | Version:  1.6.x                                 |
|   \\  /    A nd           | Web:      www.OpenFOAM.org                      |
|    \\/     M anipulation  |                                                 |
\*---------------------------------------------------------------------------*/
FoamFile
{
    version     2.0;
    format      ascii;
    class       volScalarField;
    location    "2";
    object      epsilon;
}
// * * * * * * * * * * * * * * * * * * * * * * * * * * * * * * * * * * * * * //

dimensions      [0 2 -3 0 0 0 0];

internalField   nonuniform List<scalar> 
4608
(
97779.8
105159
26465.8
72268.5
106572
22889.7
5225
25329.3
47092.7
13158.3
108264
22036.3
4786.3
2012.2
5517.38
22919.7
33529.7
46655.2
22988.2
110115
21105.4
4533.41
1958.44
2062.03
5721.06
20250.7
27004.5
52794.1
79011.3
722.826
6221.85
112096
20239.9
4325.83
1943.28
2128.24
5795.36
17716.2
23921.6
46624
94834.4
38751
946.865
513.088
2637.09
114179
19421.1
4153.13
1941.96
2189.02
5751.09
15534.9
21897.8
40749.3
87768
74764.7
10562.6
1796.68
821.432
521.184
1726.38
116320
18657.8
4013.98
1955.45
2237.21
5630.12
13722.5
20351.2
37033.7
78935.1
97710.1
31228
4104.83
899.834
1892.5
874.686
516.698
255.667
118445
17948.6
3906.87
1982.27
2270.99
5458.99
12225.5
19193.2
34834.3
71352.4
108122
56993.7
10247.4
2011.43
898.424
1885.39
867.206
513.108
172.138
120442
17288.9
3830.24
2021.98
2290.86
5253.12
10992.8
18386.8
33580.4
66586
108061
76345.9
21785.6
4786.15
1034.46
905.798
1904.09
872.831
504.297
27.7034
122158
16668.8
3782.56
2076.63
2297.25
5022.88
9982.55
17866.9
32918.2
63914.1
106250
86732.6
35737
10831.4
2240.07
279.364
916.157
1928.77
870.893
490.408
1.76407
123368
16079.3
3762.41
2147.12
2290.74
4779.88
9157.92
17575.6
32607.7
62427.8
103754
91642.9
48649.6
19892.5
5279.76
677.703
37.6851
925.201
1947.54
863.961
470.075
0.0760117
123733
15504.1
3769.1
2236.34
2272.23
4533.97
8488.18
17498.5
32502.1
61511
101226
93485.4
58590.8
29846.7
11070
1711.54
121.682
2.24968
931.259
1962.57
848.842
442.482
0.00699811
122797
14916.7
3801.93
2349.63
2242.44
4290.43
7952.59
17625.2
32547
60887.9
98864.9
93818.4
65115.6
38885.1
18533.6
4283.55
366.321
9.9807
0.106845
933.446
1971.45
822.632
407.574
0.00214493
119944
14284.7
3860.53
2493.96
2202.33
4053.3
7548.99
17956.3
32742.7
60440.2
96712
93470.8
69394.6
45957.1
26242.3
8447.28
1192.64
39.1022
0.44651
0.010106
929.626
1973.23
781.861
366.844
0.00141045
114202
13563.8
3945.79
2663.93
2153.17
3827.71
7295.54
18502.4
33079.4
60090.3
94709.8
92825.7
72149.6
51380.7
33075.3
13575.3
2985.94
193.445
1.81561
0.0290792
0.00272717
917.075
1940.94
726.001
323.77
0.00123619
103677
12677.9
4058.44
2857.21
2096.64
3619.92
7194.25
19265.5
33575.8
59814.3
92818.8
92015.3
73976.4
55540.7
38790.6
18915.1
5709.13
708.028
13.1466
0.082289
0.00515515
0.00156568
890.718
1873.67
656.266
282.099
0.00119016
86571.7
11558.8
4201.14
3092.43
2034.83
3436.23
7244.86
20184.5
34233.8
59650.3
90979.9
91052.2
75315.9
58781.7
43591
23937.4
9098.96
1805.39
85.5634
0.444248
0.00930426
0.00217677
0.00128871
838.403
1757.11
576.758
244.93
0.00117687
69774.1
10276.9
4380.45
3380.33
1969.98
3290.2
7438.28
21181
34964.7
59589.8
89230.4
89901
76133.5
61450.2
47658.1
28563.4
12741.1
3514.77
347.201
4.01327
0.0242559
0.00297561
0.00149015
0.0012109
756.202
1594.09
491.815
214.97
0.00117336
50713.9
9092.17
4609.21
3738.8
1905.06
3188.42
7765.11
22015.4
35682.3
59538.3
87583.2
88783.6
76536.7
63405.7
51167.7
32813
16422.8
5665.62
969.484
28.7186
0.128953
0.00454868
0.00175149
0.00128303
0.00118803
653.671
1383.77
407.004
194.487
0.00117228
32517.6
8030.73
4945.94
4192.92
1843.1
3135.16
8153.09
22869.8
36183
59437.7
86002.5
87639.8
76765.3
64915.9
53916.8
36677.6
20061.7
8093.29
1981.44
148.433
0.935745
0.0102568
0.00212087
0.00138734
0.00121461
0.00118067
538.713
1125.92
330.15
184.43
0.00117199
7324.4
5614.06
4776.49
1787.71
3124.67
8638.51
21849
36630.9
59211.1
84451.2
86455.3
76722.3
66123.7
56185.9
40116.1
23547.2
10702.7
3290.03
455.936
8.86377
0.0351023
0.00292477
0.00152164
0.00125763
0.00119151
0.00117752
418.214
847.95
266.807
185.536
0.00117198
6491.37
5524.79
1741.46
3161.81
8980.77
19768.8
34670
58760.7
82942.3
85211.5
76480
66898.1
58087.3
43113.2
26927
13367.2
4852.78
1002.88
50.5138
0.24964
0.00491393
0.00173765
0.00131606
0.0012096
0.00118257
0.00117564
314.703
587.993
220.571
210.441
0.00117226
6459.3
1707.99
3242.38
8608.12
20047.8
32800.8
56182.4
80999.6
83990.4
76046.7
67399.1
59467.4
45760.1
30083.5
16130
6580.91
1774.45
178.661
2.06846
0.0134635
0.00211456
0.00139872
0.00123594
0.00119079
0.00117809
0.0011742
244.365
386.475
185.024
271.377
0.00117236
1689.02
3247.81
7972.29
22656.3
34418.6
54951
78731
82433.5
75561.8
67615
60513.2
47989.5
32958.2
18895.4
8494.97
2715.11
444.524
12.9658
0.0609174
0.00306532
0.00151748
0.00127292
0.00120313
0.00118213
0.00117507
0.00117316
209.157
260.851
169.74
363.234
0.00117181
1670.7
3148.78
7969.88
26233.9
37514.7
56879.4
77999.8
80895.9
74662.1
67705.6
61203.7
49825.2
35561.5
21523.3
10550.4
3840.41
857.365
56.4564
0.377941
0.00597094
0.00173339
0.00132355
0.0012207
0.00118825
0.00117692
0.00117295
0.00117229
205.587
202.003
161.464
0.00117184
1643.35
3044.31
8939.86
28028.1
40408.5
58979.9
77953.2
80570.7
73925.6
67393.9
61715.2
51221
37902.5
24013.5
12617.3
5139.16
1410.71
161.14
2.6566
0.0164182
0.00218309
0.00139668
0.00124487
0.00119701
0.00117994
0.00117348
0.00117121
0.00117157
274.603
178.319
0.00117041
1610.35
3060.88
9738.32
29693
41560.7
59945
77109.1
80424.2
74278.3
67199.7
61837.2
52376.8
39896.3
26382.3
14664.6
6536.07
2102.49
356.133
12.6467
0.0726684
0.00319414
0.00151756
0.00127721
0.00120916
0.00118438
0.00117475
0.00117056
0.00117008
0.00117067
382.334
0.00117133
1585.78
3185.95
10244
33517.9
42730.7
59741
75399.2
79534.5
74609.2
67855.3
62026.3
53165.2
41666.5
28560.3
16697.9
7996.22
2908.9
653.631
45.7487
0.379968
0.0062002
0.00172685
0.00132247
0.00122521
0.00119063
0.00117685
0.00117041
0.00116895
0.00116872
0.0011704
0.00116965
1576.3
3246.49
12300.2
37825.1
45509.9
59925.9
73505.5
77522
74095.8
68522.2
62891.7
53935.4
43125.8
30613.8
18674.6
9512.6
3808.59
1041.88
119.797
2.16465
0.0156545
0.00215199
0.00138728
0.00124613
0.00119898
0.00118
0.00117076
0.00116817
0.00116675
0.00116815
0.00116907
0.0011708
1564.17
3433.65
16491
40814.4
48312.7
61065
72558.8
75242.3
72645.1
68489.8
63814.3
55143.7
44507.5
32412.4
20633.1
11058.3
4791.78
1509.58
250.854
9.09099
0.0580597
0.00303103
0.00149496
0.00127339
0.00120969
0.00118435
0.00117175
0.00116771
0.00116496
0.00116613
0.00116661
0.00116943
0.00116895
1565.78
4301.72
20148.7
44017.4
50092.6
61779.4
72243.7
73792.1
70843.3
67547
64142.4
56456.6
46149.9
34130.7
22442.5
12659.5
5843.41
2057.22
442.889
29.9432
0.263014
0.00532052
0.0016717
0.00131106
0.00122314
0.00119002
0.00117347
0.00116764
0.00116339
0.00116427
0.00116389
0.00116671
0.00116763
0.0011699
1649.02
5507.68
24853.6
47574.8
52057.8
61750.5
71296.4
72964.4
69579.1
66190.7
63567.7
57259.7
47881.3
36145
24188.1
14222.4
6981.9
2678.4
695.903
74.558
1.28756
0.0118286
0.00199875
0.00136397
0.00124015
0.00119714
0.00117599
0.00116802
0.00116189
0.00116257
0.00116124
0.00116416
0.00116486
0.00116832
0.00116825
1845.16
7457.67
31252.4
50380.1
54161.4
62026.5
69881.5
71791.8
68786.5
65209.5
62539.5
57176.4
49138
38166.8
26224
15763.8
8157.66
3383.38
1003.5
152.089
5.00322
0.0354076
0.00263415
0.00144695
0.00126185
0.0012059
0.00117939
0.00116891
0.00116085
0.00116107
0.00115867
0.0011617
0.00116174
0.00116548
0.0011663
0.00116873
2194.39
11747.7
37315.4
51995.5
55635.7
62410
68696.7
70092.8
67684
64586.4
61782.7
56637.5
49569.7
39751.9
28272.7
17537.8
9357.44
4152.92
1375.05
268.231
15.5762
0.133552
0.00406872
0.00157741
0.00129079
0.00121659
0.00118374
0.00117035
0.00116024
0.0011597
0.00115621
0.00115934
0.00115862
0.00116266
0.00116338
0.00116699
0.00116741
3065.41
19501.7
41872.7
52068.4
56112.8
62267.2
67651.7
68509.4
66143.3
63690.7
61308.6
56255.5
49591.9
40718.1
29969.8
19361.5
10727.3
4973.63
1808.19
427.401
39.0877
0.557745
0.00767719
0.00179837
0.00133011
0.00122975
0.00118912
0.0011724
0.00115999
0.00115864
0.00115386
0.0011571
0.00115555
0.00115985
0.00116008
0.00116412
0.00116503
0.00116799
6413.83
27928.3
44284.3
50927.3
55324.1
61336.8
66223.3
67008.3
64613.8
62375.3
60583
56045.3
49658
41336.7
31242.8
20957.8
12172.7
5915.38
2296.39
628.281
81.003
2.12642
0.0179946
0.00219725
0.00138804
0.00124612
0.00119567
0.00117509
0.00116013
0.0011579
0.00115165
0.00115501
0.00115252
0.00115711
0.00115679
0.00116125
0.00116229
0.00116726
0.00122138
15464.3
34160.1
45004.7
49002.4
53540.3
59478.4
64269.8
65267
63145.4
61025.1
59444.3
55590.6
49776
41892.5
32251.2
22292.8
13510.8
6938.37
2867.09
870.245
147.655
6.52411
0.0537897
0.00297118
0.0014754
0.00126707
0.0012036
0.00117847
0.00116067
0.00115742
0.00114962
0.00115307
0.00114956
0.00115446
0.00115352
0.00115832
0.0011592
0.00116703
0.00127454
0.00810274
25618.1
37990.6
44553.9
46617.2
51113.8
56917
61754.3
63143
61536.8
59743.1
58246.6
54730.4
49637.6
42393.5
33183.6
23448.5
14714.2
7940.04
3508.13
1165.9
241.037
17.1777
0.186616
0.00467898
0.00161045
0.00129466
0.0012132
0.00118261
0.00116164
0.00115716
0.00114775
0.00115129
0.00114668
0.00115193
0.00115026
0.00115539
0.00115614
0.00116742
0.00132246
0.00791354
32873.7
39780.2
43287.1
43997
48324
53900.7
58838.8
60642.3
59638.6
58343.9
57124.7
53811
49106.8
42621.9
34037.9
24543.2
15817.8
8895.96
4172.97
1513.87
366.288
37.7181
0.686077
0.00872166
0.00183469
0.00133142
0.0012249
0.00118759
0.00116306
0.00115713
0.00114596
0.00114966
0.00114387
0.00114954
0.00114703
0.00115251
0.00115312
0.00116825
0.0013661
0.0077331
36698.7
39992.5
41479.8
41294.7
45378.1
50634.1
55657.9
57883.2
57452.9
56676.3
55891.8
52971.2
48549.8
42497.3
34633.7
25578.2
16885.8
9815.29
4844.07
1897.65
522.362
71.9267
2.22431
0.0197638
0.00222341
0.00138498
0.0012392
0.00119352
0.00116498
0.00115738
0.00114444
0.00114811
0.00114116
0.00114727
0.00114384
0.00114973
0.00114988
0.00116947
0.00140603
0.00756006
38011.9
39132
39358.4
38616.7
42417.8
47292.6
52311.1
54952.3
55067.7
54748.2
54399.3
51997.8
48050.7
42366.6
34970.8
26414.2
17921.5
10726.1
5519.25
2308.59
706.562
123.518
6.10051
0.0549288
0.00295614
0.00146279
0.00125716
0.00120051
0.00116743
0.00115795
0.00114322
0.00114668
0.00113854
0.00114513
0.0011407
0.00114707
0.00114684
0.00117103
0.00144255
0.00739822
37774
37626.6
37098
36033.1
39537.4
44006.3
48903.1
51902
52547
52635.4
52662.2
50767.8
47364.2
42244
35248.9
27076.9
18832.8
11629.9
6207
2742.69
917.968
193.091
14.5523
0.175234
0.00448928
0.00158031
0.00128007
0.00120872
0.00117052
0.00115887
0.0011423
0.00114542
0.00113601
0.0011431
0.00113761
0.00114454
0.00114402
0.00117293
0.00147605
0.00722994
36649.3
35781.2
34820.2
33583.6
36795.2
40861.2
45534
48785.8
49928.8
50396.3
50748.8
49313.4
46427.6
41875.5
35458
27669.8
19639.8
12473
6906.75
3200.24
1155.19
281.456
29.765
0.574164
0.00793844
0.00176872
0.00131114
0.0012184
0.00117424
0.00116015
0.00114167
0.00114436
0.00113358
0.00114119
0.00113458
0.00114215
0.00114137
0.00117513
0.00150689
0.00707186
35051.7
33793
32599.6
31285.4
34220
37905.1
42287.7
45666.1
47241.9
48067.6
48715
47691.3
45288.5
41271.6
35448.4
28143.8
20392.8
13265.6
7589.64
3679.56
1417.1
387.354
53.467
1.685
0.0164718
0.00208542
0.00135415
0.00123002
0.00117867
0.00116184
0.00114133
0.00114351
0.00113128
0.00113938
0.00113161
0.0011399
0.00113887
0.00117762
0.00153535
0.00692629
33232.2
31781.1
30476.5
29141.3
31820.8
35156.4
39218.8
42610.6
44521
45669
46596.9
45956.5
43988.3
40485.6
35217.8
28434.3
21026.9
14030.1
8259.33
4166.93
1702.39
510.761
87.7141
4.22636
0.0404822
0.00264926
0.00141513
0.00124432
0.00118388
0.00116395
0.00114128
0.00114288
0.0011291
0.00113767
0.0011287
0.00113778
0.0011365
0.00118036
0.00156169
0.006791
31339.4
29813.1
28469.5
27148.1
29594.7
32615.2
36352.7
39672.9
41813.9
43224.2
44408.4
44143.5
42582.9
39545.4
34811.2
28539.8
21515.2
14707.4
8924.75
4662.51
2005.51
652.568
133.218
9.46504
0.112334
0.0037392
0.00150439
0.00126229
0.00119001
0.00116653
0.0011415
0.00114244
0.00112704
0.00113607
0.00112585
0.0011358
0.00113427
0.00118332
0.00158613
0.00666405
29458.2
27924.3
26585
25299.4
27534.2
30271.7
33695.1
36885.6
39162.3
40771.2
42166.5
42258.3
41102.9
38504.9
34262.8
28486.6
21867.2
15279.2
9543.58
5169.38
2325.79
811.637
190.489
18.726
0.328172
0.00595851
0.00164101
0.00128515
0.00119725
0.0011696
0.00114201
0.00114219
0.00112503
0.00113456
0.00112308
0.00113396
0.00113215
0.00118649
0.00160884
0.00654417
27634.7
26131.9
24823.4
23586.9
25630.3
28113.9
31240.1
34265.8
36598.1
38341.9
39902.2
40311.8
39545.8
37386
33618.2
28308
22089.5
15759.8
10097.7
5662.92
2663.67
987.593
259.376
33.0739
0.904521
0.010792
0.00185685
0.00131586
0.00120587
0.00117325
0.00114284
0.00114215
0.0011232
0.00113311
0.00112039
0.00113225
0.00113016
0.00118986
0.00163
0.00643054
25892.5
24443
23181.4
22001
23872.1
26129.4
28979.3
31819.1
34145.2
35965.7
37640.6
38326.9
37919.9
36181.3
32884.1
28038.5
22204
16148.9
10597.8
6127.42
3007.31
1180.53
339.046
53.6374
2.19881
0.0223547
0.00221174
0.0013587
0.00121627
0.00117753
0.00114399
0.00114231
0.00112157
0.00113175
0.00111778
0.00113069
0.00112829
0.00119339
0.00164971
0.0063225
24242.8
22859
21653.1
20530.7
22248.1
24304.1
26902
29548.4
31819.2
33666.8
35408.9
36319.5
36241.8
34899.7
32054.2
27676.7
22233.2
16454.2
11043.2
6566.71
3346.55
1386.07
430.403
81.1663
4.82693
0.052777
0.00283107
0.00141836
0.00122924
0.00118251
0.0011455
0.00114265
0.00112016
0.0011305
0.00111525
0.00112916
0.00112653
0.00119709
0.00166809
0.00621954
22689.9
21377.7
20230.7
19165.3
20745.6
22623.6
24994
27450.6
29635.3
31465
33230.7
34313.9
34519.9
33553.6
31141.3
27217.7
22179.6
16686.5
11433.3
6980.47
3680.8
1599.32
533.101
115.986
9.57153
0.136993
0.00398186
0.001504
0.00124565
0.00118827
0.00114739
0.0011432
0.00111895
0.00112938
0.00111282
0.00112775
0.00112488
0.00120093
0.0016852
0.00612153
21233.7
19994
18905.6
17894.1
19352.6
21073.2
23239.6
25515.1
27598.2
29381.6
31128.5
32331.1
32774.8
32147.5
30153.3
26676.7
22041.3
16850.1
11770
7365.59
4009.22
1818.7
645.698
158.494
17.2011
0.357679
0.00623721
0.00163144
0.00126654
0.00119498
0.00114969
0.00114398
0.00111795
0.0011284
0.00111048
0.00112649
0.00112333
0.00120489
0.00170123
0.0060268
19870.5
18701.1
17668.5
16706.6
18057.7
19638.8
21622.3
23728.6
25702.2
27423.4
29127.1
30396.5
31024.3
30696.4
29092.9
26055.2
21826.4
16947
12055.1
7719.12
4328.76
2043.1
767.228
207.943
28.2759
0.874948
0.0108465
0.00182776
0.00129366
0.00120282
0.00115244
0.00114498
0.00111716
0.00112756
0.00110825
0.00112537
0.00112188
0.00120896
0.00171592
0.00594276
18594.7
17491.4
16510.1
15593.4
16849.6
18308.3
20127.6
22075.9
23938.3
25588
27234.6
28537.9
29296
29215.8
27969.7
25354.8
21533.1
16980.1
12292.3
8040.18
4635.69
2270.45
897.033
263.697
43.4594
1.92284
0.0211035
0.00213929
0.00132975
0.00121207
0.00115567
0.00114623
0.00111657
0.00112686
0.00110612
0.00112438
0.00112053
0.0012131
0.00172934
0.0058254
17399.3
16356.3
15422
14547
15718.7
17069.4
18742.8
20544.7
22294.9
23869.1
25450.7
26763.3
27618.2
27734.3
26798.8
24579.4
21162.6
16945.3
12482.3
8331.14
4927.77
2497.96
1034.23
325.98
63.048
3.90171
0.0457472
0.00265937
0.00137883
0.00122307
0.00115941
0.00114773
0.00111619
0.00112631
0.00110412
0.00112351
0.00111927
0.00121732
0.00174158
0.00570768
16276.4
15288.2
14396.9
13560.8
14656.9
15911.8
17455.1
19123.7
20764.1
22258.4
23771.3
25075.1
25996.4
26276.5
25605.7
23745.3
20716.8
16842.1
12620.8
8592.16
5205.4
2723.31
1177.49
395.044
87.1222
7.27238
0.108056
0.00357324
0.00144737
0.00123621
0.00116373
0.0011495
0.00111601
0.00112591
0.00110223
0.00112275
0.00111811
0.00122158
0.00175268
0.00559342
15218.7
14280.3
13429.2
12630.4
13657.4
14827
16254.2
17800.7
19337.2
20751
22190.1
23472
24436
24846.1
24409.3
22870.7
20207.4
16672.5
12705.8
8819.65
5468.07
2945.73
1325.37
470.645
116.021
12.4805
0.25833
0.00525739
0.00154584
0.00125205
0.0011687
0.00115157
0.00111603
0.00112565
0.00110047
0.00112211
0.00111704
0.00122588
0.00176273
0.0054827
14219.8
13327.5
12514.8
11753.1
12715.3
13807.4
15131.2
16567
18004.2
19340.4
20705.1
21951.4
22938.3
23449.5
23212.4
21964.1
19646.2
16442.1
12738
9010.88
5713.34
3164.36
1477
552.236
149.533
19.8886
0.58886
0.00844756
0.00169132
0.00127141
0.00117444
0.00115405
0.00111625
0.00112555
0.00109884
0.00112157
0.00111605
0.0012302
0.00177177
0.00537537
13274.7
12426
11651.2
10927.6
11828.1
12847.9
14077.5
15413.7
16759.4
18018.8
19310.9
20514.6
21504.6
22090.5
22020.2
21030.9
19035.5
16156.2
12718.9
9165.17
5938.65
3377.53
1631.59
639.361
187.113
29.8782
1.23669
0.0148527
0.00191167
0.00129766
0.00118108
0.00115687
0.00111668
0.00112559
0.00109733
0.00112112
0.00111515
0.00123455
0.00177989
0.00527125
12379.8
11573.4
10837.5
10152.8
10994
11945.6
13087.8
14331.6
15593.5
16782.4
18001.8
19158.7
20139.3
20775.1
20839
20079.3
18379.4
15814.2
12648.6
9281.31
6142.32
3583.41
1788
731.66
228.842
42.7327
2.41665
0.0287827
0.00225837
0.00133246
0.00118892
0.00116003
0.00111733
0.00112576
0.00109593
0.00112078
0.00111434
0.0012389
0.00178712
0.0051702
11533.1
10769.1
10072.8
9432.35
10211.8
11098.6
12159.2
13316.2
14497.6
15621.2
16775.1
17881.2
18843.6
19510.9
19680.4
19116.2
17686.2
15418.8
12525.1
9356.73
6322
3780.23
1944.87
828.596
274.915
58.5371
4.41518
0.0611368
0.00283141
0.0013794
0.00119823
0.00116356
0.00111821
0.00112608
0.00109462
0.00112054
0.00111361
0.00124325
0.00179352
0.00507206
10733.7
10012.5
9360.56
8771.64
9485.57
10305.2
11289.6
12365.1
13469.2
14527.8
15620.2
16680
17618.2
18303.3
18553.3
18153.7
16963.7
14976.2
12348.8
9388.08
6474.07
3965.44
2100.86
929.487
325.351
77.3761
7.5193
0.135986
0.00382514
0.00144436
0.0012094
0.0011675
0.00111933
0.00112654
0.00109346
0.0011204
0.00111295
0.0012476
0.00179913
0.00497672
9981.28
9306.79
8705.88
8171.99
8820.67
9570.2
10476.8
11475.8
12506.5
13501.2
14531.5
15544
16458.9
17154.7
17465.5
17201.9
16223.1
14493.3
12123.7
9374.28
6594.71
4135.69
2254.01
1033.55
379.984
99.5535
11.9924
0.298201
0.00559443
0.00153689
0.00122303
0.00117191
0.00112067
0.00112715
0.00109247
0.00112036
0.00111238
0.00125193
0.00180399
0.00488405
9278.94
8656.88
8110.48
7641.81
8218.21
8898.96
9727.5
10646.8
11607
12539.9
13508.6
14471
15355.7
16057.9
16416.4
16268.9
15474.1
13978.2
11854.5
9316.68
6681.74
4287.59
2401.96
1139.7
438.52
124.484
18.0379
0.62057
0.00882413
0.00167173
0.00124004
0.00117687
0.00112225
0.00112793
0.00109166
0.00112042
0.00111189
0.00125624
0.00180813
0.00479395
8631.55
8064.8
7581.91
7190.18
7686.9
8292.21
9046.51
9887.28
10771.3
11641.5
12550.2
13461
14310.9
15004.3
15402.9
15353
14721.8
13438.8
11546.7
9218.01
6734.67
4418.54
2542.36
1246.54
500.527
152.107
25.9269
1.20142
0.0150909
0.00187244
0.00126179
0.00118247
0.00112407
0.00112887
0.00109102
0.00112059
0.00111147
0.00126052
0.00181158
0.0047063
8041.24
7537.36
7133.74
6791.69
7231.1
7758.86
8433.35
9199.14
10007.6
10806.2
11653.9
12512.5
13322.9
13998.2
14422.8
14455.3
13967.4
12878.9
11204.9
9081.02
6754.19
4526.99
2672.9
1352.55
565.42
182.47
35.7747
2.20556
0.0280791
0.00218205
0.00129016
0.00118879
0.00112614
0.00112998
0.00109053
0.00112087
0.00111114
0.00126478
0.00181436
0.00462101
7514.42
7090.35
6746.86
6413.92
6822.91
7295.37
7891.66
8576.26
9308.95
10036.8
10818.7
11620.6
12387.4
13041.7
13479.5
13579
13214.2
12301.4
10831.7
8907.89
6741.19
4612.2
2791.7
1456.18
632.502
215.567
47.6113
3.81633
0.0567482
0.00268046
0.00132796
0.00119597
0.00112847
0.00113126
0.0010902
0.00112125
0.00111088
0.001269
0.00181652
0.00453798
7067.64
6710.92
6383.34
6049.34
6435.04
6871.23
7404.24
8011.13
8663.74
9326.74
10044.7
10784.4
11503
12132.3
12577.4
12727.5
12468.5
11710.9
10430.8
8699.81
6696.02
4673.79
2897.51
1555.93
700.988
251.262
61.5258
6.21464
0.118993
0.00352013
0.00137957
0.00120421
0.0011311
0.00113271
0.00109001
0.00112173
0.00111069
0.00127318
0.00181807
0.00445714
6691.65
6358.3
6029.5
5700.01
6062.98
6467.46
6947.89
7490.09
8070.41
8669.82
9327.11
10006.1
10672.6
11270.1
11715.8
11906
11735.1
11114.2
10006.8
8459.61
6618.63
4711.04
2989.26
1650.72
770.026
289.286
77.5585
9.56575
0.246005
0.00495982
0.00145198
0.00121383
0.00113405
0.00113431
0.00108997
0.00112232
0.00111058
0.00127732
0.00181905
0.00437838
6344.75
6012.87
5687.46
5366.82
5708.49
6083.61
6517.33
7003.53
7523.85
8066.01
8663.28
9283.8
9899.15
10459.9
10896.4
11116.5
11019.2
10517.6
9565.88
8191.23
6510.42
4723.01
3065.74
1739.53
838.816
329.273
95.3073
13.9856
0.486054
0.00746989
0.00155543
0.00122526
0.00113737
0.00113607
0.00109005
0.00112301
0.00111054
0.00128143
0.00181949
0.00430164
6003.84
5676.49
5359.31
5048.62
5371.67
5720.94
6113.99
6549.8
7017.4
7511.04
8053.58
8616.65
9181.35
9704.58
10124.7
10362.4
10325
9926.69
9114.83
7899.74
6374.07
4709.8
3125.6
1821.02
906.576
370.817
114.652
19.6335
0.902446
0.0120636
0.00170583
0.00124
0.0011411
0.001138
0.00109027
0.00112379
0.00111059
0.00128549
0.00181941
0.00422681
5670.48
5352.25
5044.74
4743.45
5050.86
5378.36
5737.42
6129.5
6549.19
6998.71
7494.01
8004.56
8519.12
9003.45
9403.77
9649.16
9657.39
9346.46
8659.27
7591.2
6213.15
4672.63
3168.09
1893.89
972.345
413.498
135.533
26.5687
1.598
0.0209913
0.00193128
0.00125997
0.00114535
0.00114011
0.00109063
0.00112467
0.00111076
0.00128951
0.00181885
0.00415384
5348.31
5040.51
4742.2
4449.42
4743.76
5053.41
5384.8
5740.51
6118.27
6526.6
6978.65
7443.62
7911.93
8356.62
8733.6
8980.3
9021.99
8782.96
8204.51
7270.8
6032.23
4613.49
3193.21
1957.11
1035.18
456.827
157.875
34.7765
2.6873
0.0395112
0.00228209
0.00128663
0.00115023
0.00114234
0.00109111
0.00112566
0.00111103
0.00129348
0.00181781
0.00408266
5038.08
4740.11
4450.07
4165.31
4448.33
4743.33
5052.53
5378.77
5721.44
6093
6504.68
6928.14
7355.8
7763.35
8114.47
8356.6
8422.65
8241.95
7756.73
6943.46
5835.5
4535.15
3201.59
2010
1094.25
500.268
181.547
44.256
4.28127
0.0779134
0.00285197
0.00132265
0.00115587
0.00114466
0.00109174
0.00112674
0.00111141
0.00129738
0.00181634
0.0040132
4738.81
4449.6
4167.31
3890.85
4163.25
4445.78
4737.13
5039.79
5353.91
5694.27
6069.9
6454.89
6845.31
7219.71
7545.66
7778.67
7860.96
7727.48
7321.55
6614.71
5626.93
4440.4
3194.37
2052.24
1148.78
543.269
206.344
55.0715
6.48116
0.153744
0.00379493
0.00137239
0.00116265
0.00114717
0.00109249
0.00112794
0.0011119
0.00130119
0.00181444
0.0039454
4449.16
4168.04
3893.74
3626.64
3888.14
4159.26
4435.8
4719.53
5010.77
5325.47
5670.41
6021.14
6377.01
6720.63
7023.53
7245.97
7337.91
7241.75
6903.04
6289.6
5410.89
4331.98
3172.91
2083.85
1198.06
585.263
232.002
66.9081
9.36192
0.293995
0.00536312
0.00144214
0.00117099
0.00114989
0.00109338
0.00112926
0.00111249
0.00130492
0.00181213
0.00387922
4168.25
3895.33
3630.07
3374.05
3623.56
3883.26
4146.73
4414.84
4687.66
4981.57
5301.16
5622.73
5947.75
6262.58
6543.49
6755.4
6853.32
6786.14
6503.78
5971.92
5191.42
4212.84
3138.67
2105.1
1241.57
625.661
258.209
79.6109
12.9875
0.534954
0.00803484
0.001541
0.00118139
0.00115278
0.0010944
0.0011307
0.00111318
0.00130856
0.00180943
0.00381459
3896.02
3632.24
3377.73
3134.82
3370.8
3618.21
3869.2
4123.68
4381.27
4658.18
4957.09
5254.6
5553.28
5842.26
6102.12
6302.99
6404.77
6360.88
6125.4
5664.29
4971.75
4085.82
3093.28
2116.45
1279.04
663.953
284.635
93.0894
17.4164
0.927291
0.0128082
0.00168342
0.00119461
0.00115624
0.00109555
0.00113227
0.00111397
0.00131211
0.00180636
0.00375146
3633.24
3380.23
3138.55
2910.65
3131.57
3365.3
3603.46
3845.13
4089.42
4351.96
4633.82
4911.73
5188.63
5455.43
5696.13
5885.62
5989.07
5964.33
5768.5
5368.47
4754.21
3953.3
3038.41
2118.47
1310.32
699.73
310.961
107.251
22.6347
1.54016
0.0218591
0.00189421
0.00121169
0.0011602
0.00109687
0.00113399
0.00111486
0.00131558
0.00180294
0.00368979
3381.43
3141.2
2914.3
2702.82
2907.51
3126.14
3350.52
3579.27
3811.07
4060.73
4328.02
4589.85
4848.98
5097.39
5321.54
5500.25
5603.58
5594.17
5432.27
5085.36
4540.51
3817.17
2975.53
2111.87
1335.34
732.639
336.886
121.999
28.5937
2.44094
0.039702
0.00221783
0.00123409
0.00116463
0.00109835
0.00113585
0.00111585
0.00131896
0.00179919
0.00362952
3142.49
2916.95
2706.32
2511.94
2699.85
2902.3
3111.8
3326.93
3546.2
3783.43
4037.49
4285.67
4530.2
4763.61
4974.03
5143.31
5245.7
5248.4
5115.29
4814.87
4331.77
3678.91
2905.93
2097.33
1354.15
762.367
362.121
137.209
35.3279
3.69081
0.0742436
0.00273019
0.00126401
0.00116964
0.00110002
0.00113786
0.00111693
0.00132227
0.00179513
0.00357061
2918.26
2708.87
2515.24
2337.73
2509.16
2694.92
2888.71
3089.35
3295.46
3519.97
3761.18
3997.06
4229.17
4450.25
4649.52
4811.06
4912.49
4925.05
4816.28
4556.4
4128.39
3539.63
2830.73
2075.56
1366.88
788.684
386.381
152.725
42.7183
5.33955
0.137895
0.00354714
0.00130475
0.00117537
0.00110189
0.00114002
0.00111811
0.0013255
0.00179076
0.00351301
2710.14
2517.65
2340.84
2179.16
2335.14
2504.54
2682.24
2867.73
3059.93
3270.94
3498.96
3722.98
3943.86
4154.43
4344.57
4499.96
4600.85
4621.89
4533.98
4309.43
3930.49
3400.08
2750.9
2047.24
1373.75
811.435
409.406
168.377
50.5892
7.41556
0.248178
0.00485143
0.00136086
0.00118207
0.00110398
0.00114233
0.00111938
0.00132866
0.00178612
0.00345669
2518.86
2343.09
2182.09
2034.64
2176.74
2330.81
2492.79
2662.88
2840.59
3037.3
3251.37
3463.26
3673.27
3874.27
4056.62
4207.1
4307.98
4336.64
4266.98
4073.42
3738.17
3260.8
2667.24
2013.05
1375.05
830.541
430.971
183.983
58.839
9.94933
0.427425
0.00697067
0.00143874
0.00119008
0.00110631
0.0011448
0.00112075
0.00133174
0.0017812
0.00340161
2344.22
2184.19
2037.41
1902.31
2032.37
2172.67
2319.95
2475.04
2638.1
2819.94
3019.29
3218.38
3417.23
3608.86
3784.01
3930.31
4031.53
4067.24
4013.83
3847.74
3551.53
3122.33
2580.46
1973.63
1371.1
845.962
450.887
199.372
67.3971
12.9573
0.706903
0.0105494
0.00154788
0.0011997
0.0011089
0.00114745
0.00112221
0.00133477
0.00177603
0.00334772
2185.25
2039.37
1904.94
1780.37
1900.18
2028.53
2162.62
2303.7
2452.53
2619.39
2803.54
2989.12
3176.14
3358.05
3525.96
3668.24
3769.82
3812
3773.23
3631.72
3370.58
2985.2
2491.29
1929.61
1362.27
857.749
468.996
214.385
76.1953
16.4153
1.12582
0.0169298
0.00170423
0.00121235
0.00111179
0.00115026
0.00112375
0.00133773
0.00177062
0.00329498
2040.36
1906.79
1782.86
1667.22
1778.35
1896.55
2019.17
2147.69
2283.25
2435.64
2604.55
2776.17
2950.71
3122.18
3282.36
3420.27
3521.85
3569.79
3544.19
3424.81
3195.34
2849.93
2400.46
1881.68
1348.96
866.006
485.199
228.879
85.1647
20.2798
1.72094
0.0287364
0.00193577
0.00122929
0.00111504
0.00115328
0.00112539
0.00134065
0.00176497
0.00324337
1907.73
1784.61
1669.57
1561.63
1665.31
1774.92
1887.79
2005.39
2129.06
2268
2422.24
2579.87
2741.48
2901.86
3053.52
3186.34
3287.19
3339.94
3326.08
3226.64
3025.87
2716.96
2308.7
1830.54
1331.64
870.889
499.431
242.734
94.2345
24.5689
2.52447
0.0503832
0.00228903
0.00125148
0.00111878
0.00115643
0.00112711
0.00134352
0.00175911
0.00319286
1785.5
1671.24
1563.85
1462.76
1559.84
1662.07
1766.7
1875
1988.32
2115.22
2255.9
2400.03
2548.67
2697.51
2839.94
2966.76
3065.88
3122.28
3118.63
3037.05
2862.29
2586.78
2216.69
1776.86
1310.8
872.599
511.663
255.843
103.332
29.1942
3.56191
0.0885535
0.002833
0.00128083
0.00112316
0.00115987
0.00112891
0.00134636
0.00175305
0.0031434
1672.09
1565.44
1464.84
1370.1
1461.08
1556.79
1654.36
1754.78
1859.27
1975.71
2104.26
2235.89
2372.02
2509.22
2641.92
2761.91
2858.19
2916.91
2921.86
2856.1
2704.82
2459.84
2125.06
1721.31
1286.92
871.357
521.903
268.108
112.379
34.0534
4.84823
0.152428
0.00366821
0.00132
0.00112837
0.00116367
0.0011308
0.00134918
0.00174678
0.00309496
1566.25
1466.34
1372.04
1283.38
1368.53
1458.24
1549.56
1643.22
1740.21
1847.7
1965.72
2086.16
2210.7
2336.66
2459.44
2571.99
2664.42
2724.09
2735.96
2683.98
2553.77
2336.6
2034.43
1664.51
1260.5
867.405
530.188
279.452
121.288
39.077
6.39104
0.253766
0.00495435
0.00137257
0.00113467
0.00116774
0.00113278
0.00135197
0.00174033
0.00304752
1467.12
1373.46
1285.18
1202.44
1281.93
1365.89
1451.49
1539.16
1629.69
1729.55
1838.55
1949.26
2063.41
2178.93
2292.08
2396.87
2484.69
2544.07
2561.18
2520.97
2409.47
2217.5
1945.33
1607.04
1231.99
861.011
536.58
289.819
129.979
44.2171
8.20583
0.406904
0.0069764
0.00144364
0.00114237
0.00117204
0.00113486
0.00135475
0.00173369
0.00300106
1374.18
1286.5
1204.1
1127.15
1201.1
1279.49
1359.62
1441.8
1526.59
1619.84
1721.12
1823.49
1928.6
2034.76
2138.92
2236.07
2318.76
2376.86
2397.72
2367.32
2272.23
2102.94
1858.25
1549.38
1201.82
852.442
541.16
299.175
138.384
49.4349
10.2802
0.633381
0.0102694
0.00154102
0.00115189
0.00117656
0.00113705
0.00135752
0.00172689
0.00295553
1287.18
1205.33
1128.68
1057.32
1125.92
1198.86
1273.69
1350.64
1430.15
1517.49
1612.05
1707.28
1804.63
1902.63
1998.71
2088.66
2166.12
2222.18
2245.53
2223.16
2142.28
1993.26
1773.59
1491.98
1170.38
841.945
544.016
307.498
146.442
54.6963
12.5894
0.953883
0.0159013
0.0016774
0.00116372
0.00118132
0.00113934
0.00136028
0.00171992
0.0029109
1205.97
1129.82
1058.73
992.665
1056.2
1123.86
1193.51
1265.39
1339.87
1421.74
1510.29
1599.3
1689.99
1780.97
1869.98
1953.42
2025.84
2079.5
2104.31
2088.43
2019.76
1888.68
1691.67
1435.2
1137.99
829.756
545.252
314.776
154.104
59.9654
15.1151
1.38714
0.0257283
0.00187438
0.00117857
0.00118632
0.00114174
0.00136303
0.0017128
0.00286716
1130.41
1059.78
993.964
932.803
991.628
1054.3
1118.95
1185.88
1255.47
1332.13
1415.1
1498.54
1583.41
1668.34
1751.25
1828.98
1896.8
1947.96
1973.54
1962.84
1904.59
1789.32
1612.71
1379.31
1104.95
816.092
544.971
321.021
161.331
65.2128
17.8634
1.94866
0.042636
0.00216523
0.0011974
0.00119164
0.00114425
0.00136577
0.00170553
0.00282427
1060.32
994.927
934.001
877.315
931.847
989.88
1049.79
1111.94
1176.78
1248.37
1326.02
1404.27
1483.91
1563.55
1641.19
1713.99
1777.73