/*--------------------------------*- C++ -*----------------------------------*\
| =========                 |                                                 |
| \\      /  F ield         | OpenFOAM: The Open Source CFD Toolbox           |
|  \\    /   O peration     | Version:  1.6.x                                 |
|   \\  /    A nd           | Web:      www.OpenFOAM.org                      |
|    \\/     M anipulation  |                                                 |
\*---------------------------------------------------------------------------*/
FoamFile
{
    version     2.0;
    format      ascii;
    class       volScalarField;
    location    "2";
    object      H2O;
}
// * * * * * * * * * * * * * * * * * * * * * * * * * * * * * * * * * * * * * //

dimensions      [0 0 0 0 0 0 0];

internalField   nonuniform List<scalar> 
4608
(
9.68529e-06
1.98872e-08
1.47055e-06
0.0053797
4.0918e-11
3.40581e-09
1.46292e-07
0.000273257
0.00873903
0.0323708
8.36456e-14
7.35652e-12
3.6043e-10
1.70161e-08
1.50973e-05
0.000685903
0.011443
0.0370807
0.105678
1.69795e-16
1.50343e-14
8.15925e-13
5.40914e-11
1.37055e-06
5.30463e-05
0.00121536
0.0137334
0.0394591
0.108922
0.0961276
0.119909
3.42145e-19
2.96179e-17
1.74841e-15
1.45354e-13
6.02143e-06
0.000116764
0.001846
0.0158699
0.0408729
0.109782
0.119716
0.0947068
0.0942184
0.100787
6.84004e-22
5.69193e-20
3.60956e-18
3.60095e-16
1.57668e-05
0.000211746
0.00256329
0.0179804
0.0425309
0.109776
0.118885
0.1152
0.0942849
0.0942068
0.0942002
0.0774565
1.35608e-24
1.07605e-22
7.27867e-21
8.55164e-19
3.24327e-05
0.000341473
0.00335897
0.0201242
0.0444748
0.109742
0.118177
0.121131
0.0776882
0.0940071
0.0942016
0.0942001
0.0942
0.0451908
3.01344e-27
2.01791e-25
1.44973e-23
1.99026e-21
5.90467e-05
0.00050877
0.00423046
0.0223554
0.0465472
0.109739
0.117674
0.120849
0.0830985
0.0511615
0.0941983
0.0942
0.0942
0.0942
0.0230067
3.3017e-28
7.06628e-28
2.91269e-26
4.58368e-24
9.8341e-05
0.000715904
0.00518173
0.0246925
0.0487554
0.109744
0.117345
0.120242
0.0955625
0.0567055
0.0335004
0.0942
0.0942
0.0942
0.0942
0.00723976
2.98222e-28
3.07568e-28
3.79388e-28
1.08759e-26
0.000153087
0.000965277
0.00621915
0.0271381
0.051024
0.109797
0.117131
0.120284
0.108705
0.0683013
0.040132
0.0166018
0.0942
0.0942
0.0942
0.0942
0.00120152
2.71375e-28
2.82284e-28
2.99035e-28
3.44015e-28
0.000226097
0.00125945
0.00735002
0.0296662
0.0533623
0.109842
0.116945
0.120206
0.119724
0.0819155
0.0504128
0.0229354
0.00573756
0.0942
0.0942
0.0942
0.0942
0.000112865
2.44446e-28
2.57606e-28
2.75707e-28
2.97028e-28
0.000320158
0.00160118
0.00858198
0.0322536
0.0557256
0.109902
0.116889
0.120198
0.121255
0.093869
0.0631437
0.0310846
0.0103361
0.00097845
0.0942
0.0942
0.0942
0.0942
1.56124e-05
2.17407e-28
2.3279e-28
2.52271e-28
2.74083e-28
0.000437991
0.00199367
0.00992273
0.0348911
0.0580934
0.109981
0.11679
0.11989
0.122332
0.103067
0.0749527
0.0414737
0.0161123
0.00272221
8.45226e-05
0.0942
0.0942
0.0942
0.0942
3.98671e-06
1.90266e-28
2.07802e-28
2.28557e-28
2.50924e-28
0.000582307
0.00244102
0.0113839
0.0375865
0.0604857
0.110081
0.116612
0.119642
0.121736
0.11079
0.0854304
0.0520688
0.0240832
0.00566173
0.000299188
1.13711e-05
0.0942
0.0942
0.0942
0.0942
1.38919e-06
1.63058e-28
1.82627e-28
2.04529e-28
2.27451e-28
0.000755914
0.00294978
0.0129781
0.0403451
0.0629581
0.110215
0.116511
0.119411
0.121582
0.117089
0.0948136
0.0622011
0.0328858
0.0108552
0.000887597
2.7884e-05
3.15154e-06
0.0942
0.0942
0.0942
0.0942
5.23082e-07
1.35831e-28
1.57261e-28
1.80177e-28
2.03636e-28
0.000962143
0.00352798
0.0147175
0.0432011
0.0654798
0.110477
0.116525
0.11923
0.121428
0.119387
0.103159
0.0718112
0.0417812
0.0176285
0.00267854
7.10031e-05
5.76162e-06
1.21687e-06
0.0942
0.0942
0.0942
0.0942
1.93427e-07
1.08624e-28
1.31702e-28
1.55499e-28
1.79465e-28
0.00120483
0.00418588
0.016618
0.0462056
0.0681418
0.110622
0.116529
0.119098
0.121398
0.120797
0.11038
0.0805172
0.0506326
0.0251201
0.00652806
0.000248968
1.04388e-05
2.0282e-06
5.09538e-07
0.0942
0.0942
0.0942
0.0942
6.80122e-08
8.14587e-29
1.05947e-28
1.30499e-28
1.54941e-28
0.0014888
0.0049367
0.0186967
0.0494764
0.071048
0.110751
0.116587
0.119253
0.121164
0.121675
0.116712
0.0886246
0.0590824
0.0327353
0.0120468
0.00106322
2.19553e-05
3.14259e-06
8.68746e-07
2.07051e-07
0.0942
0.0942
0.0942
0.0942
2.24712e-08
5.43243e-29
7.9971e-29
1.05171e-28
1.30067e-28
0.00182017
0.0057966
0.0209784
0.0531956
0.0744676
0.110904
0.116704
0.119308
0.121904
0.121628
0.120422
0.0961006
0.0670632
0.0402919
0.0184008
0.00335689
6.95254e-05
4.89864e-06
1.30065e-06
3.816e-07
7.82866e-08
0.0942
0.0942
0.0942
0.0942
6.93395e-09
2.71522e-29
5.37e-29
7.95019e-29
1.04843e-28
0.00220666
0.0067858
0.0234831
0.05777
0.0787189
0.111238
0.116744
0.119304
0.121774
0.123689
0.121047
0.102788
0.0745498
0.0476236
0.0248876
0.00760454
0.000331296
8.60948e-06
1.84245e-06
5.87585e-07
1.59072e-07
2.71244e-08
0.0942
0.0942
0.0942
0.0942
1.98828e-09
2.70402e-29
5.34607e-29
7.92617e-29
0.0026582
0.00792334
0.0262913
0.0629251
0.0843617
0.111673
0.116777
0.119252
0.121562
0.122953
0.124606
0.108631
0.0815223
0.0547552
0.0312707
0.0127347
0.00151432
2.12632e-05
2.57809e-06
8.27261e-07
2.60161e-07
6.08044e-08
8.56105e-09
0.0942
0.0942
0.0942
0.0942
5.26917e-10
2.69654e-29
5.33005e-29
0.00318674
0.00924292
0.0293323
0.0946369
0.0889829
0.112148
0.116808
0.119182
0.121351
0.122666
0.123297
0.114505
0.0881496
0.0615129
0.0375942
0.0181396
0.00420517
9.72336e-05
4.02125e-06
1.10072e-06
3.78956e-07
1.07144e-07
2.10098e-08
2.45273e-09
0.0942
0.0942
0.0942
0.0942
1.2823e-10
2.68783e-29
0.00380873
0.0107619
0.0352813
0.104191
0.10567
0.112412
0.116791
0.119087
0.121137
0.122376
0.123196
0.119141
0.0944369
0.0680621
0.0437257
0.0235242
0.00806487
0.000526446
8.3456e-06
1.47387e-06
5.11553e-07
1.64794e-07
4.00044e-08
6.5206e-09
6.35516e-10
0.0942
0.0942
0.0942
0.0942
2.8456e-11
0.00454264
0.0126126
0.0412722
0.106594
0.110666
0.116022
0.11676
0.119006
0.120968
0.122099
0.12288
0.121744
0.100113
0.0743039
0.0498467
0.028843
0.0124078
0.00186898
2.67798e-05
2.13457e-06
6.67537e-07
2.31722e-07
6.55801e-08
1.33745e-08
1.81085e-09
1.48282e-10
0.0942
0.0942
0.0942
0.0942
5.71654e-12
0.00540834
0.0147258
0.0473786
0.107418
0.111974
0.116111
0.117545
0.118862
0.120815
0.121915
0.122631
0.122074
0.105234
0.0800387
0.0558063
0.034192
0.0168802
0.00441533
0.000131148
3.69615e-06
8.72414e-07
3.08678e-07
9.72519e-08
2.34222e-08
3.97779e-09
4.48425e-10
3.09966e-11
0.0942
0.0942
0.0942
1.03151e-12
0.00641436
0.0172144
0.0536223
0.107377
0.112303
0.116063
0.117825
0.118999
0.120598
0.121765
0.122509
0.122218
0.109681
0.0854221
0.0613477
0.0394927
0.0213675
0.00766797
0.000617728
8.64603e-06
1.19583e-06
3.99789e-07
1.34867e-07
3.68218e-08
7.42907e-09
1.0479e-09
9.86149e-11
5.7724e-12
0.0942
0.0942
1.65864e-13
0.00759357
0.020241
0.0597942
0.111039
0.112156
0.115947
0.117904
0.119236
0.120511
0.121518
0.122406
0.122334
0.113623
0.0904767
0.0665923
0.0445796
0.0258893
0.0112589
0.00185048
2.93937e-05
1.84569e-06
5.16962e-07
1.79102e-07
5.36509e-08
1.23923e-08
2.07928e-09
2.4353e-10
1.91712e-11
9.52095e-13
0.0942
2.35811e-14
0.00900762
0.023796
0.092302
0.114399
0.113887
0.115815
0.117929
0.119419
0.12079
0.121391
0.122159
0.12268
0.11729
0.095128
0.0716076
0.0495051
0.0303412
0.0149995
0.00399109
0.00013069
3.3892e-06
6.91836e-07
2.32394e-07
7.41092e-08
1.90405e-08
3.67446e-09
5.11025e-10
4.97137e-11
3.2793e-12
1.38168e-13
2.94045e-15
0.0107201
0.0301255
0.104303
0.115748
0.115436
0.116119
0.117896
0.119519
0.121004
0.121905
0.122025
0.122667
0.120753
0.0996109
0.0763767
0.0542951
0.0347106
0.0187131
0.00667778
0.000536991
7.86555e-06
9.82598e-07
3.01327e-07
9.88064e-08
2.75384e-08
5.95676e-09
9.53897e-10
1.09784e-10
8.87648e-12
4.90713e-13
1.75317e-14
3.19566e-16
0.0129827
0.0378491
0.107533
0.115466
0.116385
0.116647
0.117921
0.119522
0.121077
0.122077
0.122783
0.122665
0.121629
0.103917
0.0809983
0.0589442
0.0390198
0.0224192
0.00961074
0.00151336
2.41782e-05
1.54675e-06
3.96505e-07
1.2934e-07
3.81244e-08
9.04405e-09
1.62944e-09
2.15689e-10
2.05276e-11
1.37897e-12
6.39241e-14
1.93165e-15
3.002e-17
0.0159698
0.0470057
0.108224
0.115491
0.116397
0.117149
0.118097
0.119498
0.12103
0.122043
0.122876
0.12415
0.122083
0.108023
0.0854143
0.0634826
0.0432712
0.0261462
0.0126541
0.00318469
9.51639e-05
2.78375e-06
5.41149e-07
1.68373e-07
5.12604e-08
1.30651e-08
2.59793e-09
3.8732e-10
4.22824e-11
3.32361e-12
1.8563e-13
7.19976e-15
1.83766e-16
2.42841e-18
0.0201161
0.0571289
0.112046
0.116304
0.116362
0.11739
0.11835
0.119547
0.120944
0.121915
0.122747
0.123913
0.125122
0.112262
0.0898855
0.0678444
0.0475419
0.0298753
0.0157319
0.00531263
0.000363275
6.00158e-06
7.76269e-07
2.21049e-07
6.77322e-08
1.81942e-08
3.92407e-09
6.47769e-10
7.95878e-11
7.14867e-12
4.64246e-13
2.15082e-14
6.98286e-16
1.50027e-17
1.67387e-19
0.0258071
0.0962284
0.115153
0.116921
0.116878
0.117465
0.118547
0.119655
0.120905
0.121773
0.12256
0.123577
0.123962
0.116239
0.0945245
0.0722322
0.0517156
0.0336378
0.0188431
0.00767467
0.0010231
1.5803e-05
1.20258e-06
2.95196e-07
8.89322e-08
2.46926e-08
5.68321e-09
1.02329e-09
1.39357e-10
1.40601e-11
1.03856e-12
5.55797e-14
2.13873e-15
5.79128e-17
1.04424e-18
9.83981e-21
0.0376953
0.107463
0.11618
0.117413
0.117352
0.117706
0.118695
0.119768
0.120917
0.121686
0.122378
0.123334
0.123849
0.118877
0.0986793
0.0767216
0.0558929
0.0373837
0.0220318
0.0101773
0.00220488
5.25628e-05
2.04489e-06
4.05635e-07
1.16964e-07
3.29778e-08
7.97222e-09
1.54409e-09
2.30032e-10
2.57147e-11
2.12702e-12
1.28833e-13
5.69129e-15
1.81135e-16
4.09268e-18
6.17894e-20
4.85442e-22
0.0549597
0.11469
0.116943
0.117851
0.117779
0.118024
0.118895
0.119924
0.120961
0.121652
0.122255
0.123117
0.123807
0.121336
0.102091
0.0808054
0.060126
0.0411723
0.0252609
0.0127763
0.00383292
0.000188194
3.96616e-06
5.76877e-07
1.55262e-07
4.3689e-08
1.0927e-08
2.24648e-09
3.61745e-10
4.42861e-11
4.05205e-12
2.73841e-13
1.36255e-14
4.94466e-16
1.30541e-17
2.45087e-19
3.07494e-21
2.02334e-23
0.101357
0.116452
0.117453
0.118238
0.118176
0.118359
0.119139
0.120119
0.121153
0.121666
0.122187
0.122955
0.123607
0.122474
0.105226
0.084356
0.0640453
0.0450625
0.0285338
0.0154179
0.00572157
0.000558752
8.91048e-06
8.63583e-07
2.08826e-07
5.78046e-08
1.47468e-08
3.1766e-09
5.46699e-10
7.25365e-11
7.26612e-12
5.41853e-13
2.99677e-14
1.21829e-15
3.64665e-17
7.94423e-19
1.23507e-20
1.28843e-22
6.38527e-25
0.115644
0.117232
0.117864
0.118596
0.118538
0.118695
0.119404
0.12033
0.121358
0.121952
0.122183
0.12286
0.123454
0.122581
0.108005
0.08766
0.0675648
0.0487252
0.0318811
0.0181235
0.00777472
0.00128399
2.39195e-05
1.38212e-06
2.86275e-07
7.67226e-08
1.97239e-08
4.39717e-09
7.99892e-10
1.13917e-10
1.23798e-11
1.00943e-12
6.14241e-14
2.7637e-15
9.22425e-17
2.26267e-18
4.06853e-20
5.22259e-22
4.0826e-24
5.75874e-27
0.117136
0.117627
0.118236
0.118934
0.118875
0.119017
0.119669
0.120541
0.121536
0.122157
0.122567
0.122846
0.123369
0.12276
0.110483
0.0907664
0.0708777
0.0520949
0.0351457
0.0209172
0.00993975
0.00242557
7.51749e-05
2.40974e-06
4.02143e-07
1.02563e-07
2.62792e-08
5.99523e-09
1.14062e-09
1.72719e-10
2.01945e-11
1.78611e-12
1.18589e-13
5.85107e-15
2.1532e-16
5.85229e-18
1.18124e-19
1.7414e-21
1.6566e-23
4.73148e-26
0.117554
0.117989
0.118595
0.119259
0.119193
0.11932
0.119922
0.120742
0.121689
0.122293
0.122763
0.123512
0.123386
0.122813
0.112684
0.0937017
0.0740455
0.0553205
0.0382543
0.0237061
0.0121844
0.00387874
0.000234124
4.68532e-06
5.82647e-07
1.38508e-07
3.50249e-08
8.09398e-09
1.59424e-09
2.54388e-10
3.17426e-11
3.02345e-12
2.17472e-13
1.16779e-14
4.69794e-16
1.40076e-17
3.122e-19
5.12983e-21
5.54052e-23
2.07596e-25
0.117882
0.11835
0.118945
0.119573
0.119498
0.119605
0.120159
0.120925
0.12182
0.122394
0.122855
0.123642
0.124626
0.123047
0.114525
0.0963755
0.0770754
0.0584363
0.0412588
0.0264324
0.0144471
0.00551963
0.000603367
1.02192e-05
8.82399e-07
1.89347e-07
4.68464e-08
1.08691e-08
2.1953e-09
3.65881e-10
4.83539e-11
4.92559e-12
3.81381e-13
2.21473e-14
9.6726e-16
3.13994e-17
7.65078e-19
1.3784e-20
1.64162e-22
7.22405e-25
0.118231
0.118714
0.119285
0.119876
0.119791
0.119876
0.120381
0.12109
0.121924
0.122473
0.122914
0.123639
0.12451
0.125334
0.116376
0.0987086
0.0798883
0.0614372
0.0441898
0.0291105
0.0167094
0.00727201
0.00126748
2.58889e-05
1.40753e-06
2.63021e-07
6.29957e-08
1.45712e-08
2.99167e-09
5.16348e-10
7.17299e-11
7.7641e-12
6.43205e-13
4.0168e-14
1.89338e-15
6.65028e-17
1.75907e-18
3.44011e-20
4.44844e-22
2.19426e-24
0.1186
0.119074
0.119615
0.12017
0.120075
0.120137
0.120593
0.121243
0.122015
0.122522
0.122952
0.123632
0.124354
0.124526
0.118405
0.101048
0.0824424
0.0642674
0.0470568
0.0317487
0.0189818
0.00908441
0.00224897
7.44648e-05
2.40381e-06
3.7174e-07
8.53189e-08
1.95534e-08
4.05041e-09
7.18066e-10
1.04079e-10
1.18941e-11
1.04849e-12
7.00375e-14
3.54505e-15
1.34022e-16
3.82646e-18
8.06759e-20
1.12215e-21
6.05481e-24
0.118968
0.119423
0.119934
0.120456
0.120351
0.120391
0.120797
0.12139
0.122099
0.122567
0.122958
0.123605
0.124306
0.124335
0.119666
0.103323
0.0849492
0.0669107
0.0498074
0.0343468
0.0212554
0.0109295
0.00346095
0.000208774
4.46405e-06
5.36853e-07
1.16398e-07
2.63164e-08
5.46557e-09
9.87784e-10
1.48301e-10
1.77804e-11
1.65885e-12
1.17964e-13
6.38066e-15
2.58481e-16
7.92695e-18
1.79272e-19
2.66508e-21
1.55049e-23
0.119327
0.11976
0.120242
0.120734
0.12062
0.120639
0.120998
0.121536
0.122185
0.122609
0.12297
0.123542
0.124169
0.12432
0.120536
0.105137
0.0873519
0.0694882
0.0524305
0.0368834
0.02352
0.0127862
0.00480597
0.000499873
8.97651e-06
7.98641e-07
1.59948e-07
3.55479e-08
7.36907e-09
1.34861e-09
2.08266e-10
2.60323e-11
2.5568e-12
1.92672e-13
1.109e-14
4.7934e-16
1.57238e-17
3.79869e-19
6.00733e-21
3.733e-23
0.119673
0.120085
0.12054
0.121006
0.120884
0.120882
0.121196
0.121682
0.122276
0.122663
0.122982
0.123518
0.124031
0.124163
0.121141
0.1064
0.0894023
0.0719497
0.0550024
0.0393467
0.0257643
0.0146587
0.00624001
0.00100399
2.01529e-05
1.22609e-06
2.21498e-07
4.81871e-08
9.94329e-09
1.83258e-09
2.89196e-10
3.74543e-11
3.85216e-12
3.06234e-13
1.86811e-14
8.58376e-16
2.99969e-17
7.71365e-19
1.29292e-20
8.5255e-23
0.120006
0.120398
0.12083
0.121273
0.121143
0.121123
0.121395
0.121831
0.122372
0.122724
0.123014
0.123489
0.124006
0.124117
0.121881
0.107505
0.0910887
0.074149
0.0574648
0.0417648
0.0279773
0.0165495
0.00773354
0.00175427
5.09292e-05
1.96437e-06
3.08546e-07
6.55053e-08
1.3437e-08
2.48402e-09
3.98213e-10
5.31167e-11
5.69075e-12
4.75131e-13
3.05979e-14
1.48939e-15
5.52613e-17
1.50719e-18
2.66972e-20
1.85891e-22
0.120327
0.120701
0.121112
0.121534
0.121398
0.121361
0.121596
0.121987
0.122475
0.122792
0.123053
0.123496
0.123936
0.124222
0.122435
0.108773
0.0925894
0.0760974
0.0597209
0.0441144
0.0301665
0.0184455
0.00926696
0.00270701
0.000132808
3.34408e-06
4.33048e-07
8.91191e-08
1.8184e-08
3.36365e-09
5.45071e-10
7.44567e-11
8.26649e-12
7.21669e-13
4.88742e-14
2.51171e-15
9.86218e-17
2.84464e-18
5.30917e-20
3.88936e-22
0.120636
0.120995
0.121388
0.12179
0.121649
0.121597
0.121798
0.122147
0.122593
0.122868
0.123102
0.12351
0.123935
0.124088
0.122802
0.109906
0.0941077
0.0778781
0.0617972
0.0463316
0.0323166
0.0203415
0.0108126
0.0037892
0.00031408
6.08181e-06
6.17254e-07
1.21143e-07
2.46163e-08
4.55378e-09
7.43114e-10
1.03417e-10
1.18379e-11
1.07589e-12
7.63342e-14
4.12816e-15
1.71002e-16
5.2016e-18
1.02054e-19
7.8411e-22
0.120936
0.121281
0.121657
0.122039
0.121894
0.121831
0.122
0.122311
0.122716
0.12297
0.123158
0.123533
0.123932
0.124147
0.12284
0.110869
0.0955129
0.0795894
0.0637425
0.0484262
0.0343932
0.022227
0.0123693
0.00495309
0.000640294
1.196e-05
8.99892e-07
1.64653e-07
3.32819e-08
6.16355e-09
1.01052e-09
1.42633e-10
1.67515e-11
1.57808e-12
1.1686e-13
6.62903e-15
2.88836e-16
9.24075e-18
1.90142e-19
1.52905e-21
0.121228
0.121559
0.121917
0.122281
0.122134
0.122061
0.122202
0.122477
0.122847
0.12307
0.123249
0.123559
0.123934
0.124134
0.12293
0.111413
0.0967825
0.081198
0.0655985
0.0504281
0.0363932
0.0240822
0.0139385
0.00617363
0.00114886
2.62758e-05
1.35213e-06
2.24057e-07
4.48947e-08
8.33481e-09
1.37174e-09
1.95687e-10
2.34736e-11
2.28227e-12
1.75744e-13
1.0424e-14
4.76368e-16
1.59889e-17
3.44261e-19
2.89198e-21
0.12151
0.121828
0.12217
0.122516
0.122368
0.122286
0.122402
0.122645
0.122978
0.123184
0.123332
0.123645
0.123917
0.12412
0.122969
0.112101
0.0977946
0.082696
0.067362
0.0523587
0.038329
0.0259003
0.0155146
0.00743449
0.00183812
6.32284e-05
2.12864e-06
3.05892e-07
6.03874e-08
1.12508e-08
1.85927e-09
2.67419e-10
3.26336e-11
3.26102e-12
2.60166e-13
1.60844e-14
7.68797e-16
2.70046e-17
6.07109e-19
5.3181e-21
0.121784
0.122089
0.122414
0.122742
0.122596
0.122508
0.1226
0.122811
0.12311
0.123292
0.123436
0.1237
0.124026
0.124024
0.122991
0.112633
0.0987949
0.0840396
0.0690312
0.0542135
0.0402114
0.0276846
0.0170861
0.00871982
0.00266779
0.000149698
3.55045e-06
4.21524e-07
8.09891e-08
1.51472e-08
2.51581e-09
3.64335e-10
4.50812e-11
4.61191e-12
3.79831e-13
2.44e-14
1.21646e-15
4.46112e-17
1.04501e-18
9.52809e-21
0.122048
0.12234
0.122649
0.122958
0.122815
0.122724
0.122797
0.122978
0.123239
0.123399
0.123525
0.123797
0.124041
0.124137
0.122982
0.113076
0.0996922
0.0853118
0.0705953
0.0559909
0.0420398
0.0294386
0.0186495
0.0100095
0.00358632
0.000320959
6.23842e-06
5.90715e-07
1.08439e-07
2.03277e-08
3.39697e-09
4.9511e-10
6.19616e-11
6.46639e-12
5.4784e-13
3.64547e-14
1.89051e-15
7.22161e-17
1.75906e-18
1.6664e-20
0.122302
0.12258
0.122873
0.123165
0.123025
0.122932
0.122991
0.123149
0.123375
0.123508
0.123612
0.123847
0.124153
0.124069
0.123012
0.113422
0.100504
0.0864931
0.0720799
0.0576891
0.043813
0.0311616
0.0202054
0.0113039
0.00456444
0.000606693
1.17447e-05
8.44827e-07
1.45253e-07
2.71903e-08
4.57489e-09
6.71219e-10
8.48122e-11
9.00154e-12
7.81874e-13
5.37283e-14
2.89047e-15
1.14747e-16
2.90068e-18
2.84986e-20
0.122546
0.12281
0.123087
0.123362
0.123227
0.123133
0.123178
0.123318
0.123522
0.123624
0.123706
0.123897
0.124138
0.124248
0.122999
0.113664
0.101216
0.0875928
0.0734831
0.0593144
0.0455343
0.0328512
0.0217529
0.0126086
0.00558406
0.00103405
2.42269e-05
1.24249e-06
1.94872e-07
3.62649e-08
6.14321e-09
9.07737e-10
1.15689e-10
1.24558e-11
1.10578e-12
7.82342e-14
4.35444e-15
1.79239e-16
4.69318e-18
4.77395e-20
0.122779
0.123029
0.12329
0.123549
0.123419
0.123326
0.123359
0.123479
0.123667
0.123758
0.123806
0.12396
0.124143
0.124141
0.123007
0.113914
0.101822
0.0886036
0.0748095
0.0608718
0.0472188
0.0345079
0.0232892
0.0139278
0.00663622
0.00160135
5.39074e-05
1.90288e-06
2.6245e-07
4.82436e-08
8.22416e-09
1.2244e-09
1.57323e-10
1.71494e-11
1.5517e-12
1.12705e-13
6.47284e-15
2.75638e-16
7.46134e-18
7.84512e-20
0.123
0.123237
0.123483
0.123728
0.123602
0.123511
0.123536
0.123636
0.123796
0.12389
0.123929
0.124033
0.124153
0.124096
0.122805
0.113919
0.10244
0.0895318
0.0760575
0.0623633
0.048859
0.0361369
0.0248121
0.0152562
0.00771438
0.00228232
0.000119202
3.05476e-06
3.56647e-07
6.40519e-08
1.09766e-08
1.647e-09
2.13326e-10
2.35105e-11
2.16291e-12
1.60844e-13
9.50677e-15
4.17873e-16
1.16717e-17
1.26645e-19
0.12321
0.123433
0.123666
0.123899
0.123777
0.123686
0.123704
0.123795
0.123927
0.123991
0.124051
0.124144
0.124174
0.123982
0.122342
0.113775
0.102815
0.0903982
0.0772285
0.0637865
0.0504504
0.0377376
0.0263217
0.0165879
0.00880679
0.00304172
0.000244703
5.10495e-06
4.91587e-07
8.5001e-08
1.46082e-08
2.20918e-09
2.88456e-10
3.21104e-11
2.99755e-12
2.27654e-13
1.3813e-14
6.25306e-16
1.79873e-17
2.01096e-19
0.123409
0.123621
0.123842
0.124066
0.123944
0.123856
0.123865
0.123943
0.124075
0.124103
0.124128
0.12425
0.124227
0.123882
0.121597
0.113485
0.103025
0.0911041
0.0783213
0.0651381
0.0519826
0.0393074
0.0278174
0.0179209
0.00990779
0.00385676
0.000453763
8.94206e-06
6.88659e-07
1.12939e-07
1.9396e-08
2.95496e-09
3.88956e-10
4.37083e-11
4.13358e-12
3.19891e-13
1.9877e-14
9.24687e-16
2.73418e-17
3.14462e-19
0.123598
0.123799
0.124013
0.124233
0.124109
0.124017
0.124022
0.124083
0.124195
0.12424
0.124227
0.124282
0.124309
0.12381
0.120914
0.113008
0.103067
0.0916691
0.0792984
0.066413
0.0534513
0.0408503
0.0292972
0.0192541
0.0110199
0.00471218
0.00076793
1.68047e-05
9.84421e-07
1.50347e-07
2.57069e-08
3.94216e-09
5.2303e-10
5.93088e-11
5.6753e-12
4.46658e-13
2.83581e-14
1.35277e-15
4.10392e-17
4.84796e-19
0.123778
0.123973
0.124183
0.124432
0.124273
0.124177
0.124169
0.124229
0.124308
0.124332
0.124354
0.124353
0.12427
0.123694
0.120179
0.112548
0.103
0.0921016
0.080155
0.0675945
0.0548534
0.0423623
0.0307599
0.0205859
0.0121464
0.00559934
0.00119684
3.41251e-05
1.44893e-06
2.00748e-07
3.40233e-08
5.24678e-09
7.01455e-10
8.02393e-11
7.76167e-12
6.20191e-13
4.01489e-14
1.95985e-15
6.08876e-17
7.37608e-19
0.123953
0.124145
0.124376
0.124607
0.124477
0.124337
0.124321
0.124353
0.124426
0.124418
0.124413
0.124414
0.124265
0.123532
0.119342
0.11206
0.10287
0.0924086
0.0808915
0.0686751
0.0561789
0.0438292
0.0322028
0.0219139
0.0132873
0.00651298
0.00172933
7.16247e-05
2.21445e-06
2.69554e-07
4.49861e-08
6.96837e-09
9.38393e-10
1.08252e-10
1.05773e-11
8.56893e-13
5.64547e-14
2.81447e-15
8.93789e-17
1.10865e-18
0.124126
0.124335
0.124558
0.124755
0.124644
0.124551
0.124467
0.124483
0.124513
0.124475
0.124472
0.124403
0.124106
0.123079
0.11841
0.111451
0.102729
0.0926133
0.081514
0.0696518
0.0574191
0.0452375
0.0336186
0.0232344
0.014437
0.00744792
0.00234212
0.00014537
3.50639e-06
3.65352e-07
5.94583e-08
9.23878e-09
1.25242e-09
1.45657e-10
1.43672e-11
1.17869e-12
7.88999e-14
4.0097e-15
1.29929e-16
1.64766e-18
0.124315
0.12452
0.124719
0.124906
0.124773
0.1247
0.124709
0.124596
0.124548
0.124497
0.124465
0.124355
0.123836
0.121944
0.117255
0.110758
0.102449
0.0927592
0.0820315
0.0705262
0.0585713
0.0465735
0.0350023
0.0245427
0.0155905
0.00839311
0.00301223
0.000274079
5.72672e-06
5.00988e-07
7.86292e-08
1.22305e-08
1.66814e-09
1.9549e-10
1.94558e-11
1.61486e-12
1.09666e-13
5.67158e-15
1.87201e-16
2.42332e-18
0.1245
0.124688
0.124883
0.124686
0.124872
0.124794
0.124762
0.12486
0.124541
0.124367
0.124393
0.124063
0.123387
0.120523
0.116042
0.109766
0.102007
0.0927969
0.0824605
0.071302
0.0596353
0.047839
0.0363572
0.0258349
0.0167442
0.00934699
0.00372512
0.00047409
9.76962e-06
6.95753e-07
1.04087e-07
1.61715e-08
2.21776e-09
2.61784e-10
2.62712e-11
2.20433e-12
1.51679e-13
7.97022e-15
2.6753e-16
3.52997e-18
0.124672
0.124858
0.124885
0.122305
0.124292
0.12479
0.124714
0.124594
0.124339
0.123864
0.124003
0.123552
0.121945
0.1191
0.114645
0.108853
0.101409
0.0926979
0.082787
0.0719831
0.060611
0.0490325
0.0376685
0.0271084
0.0178953
0.0103103
0.00446955
0.000762941
1.77237e-05
9.82864e-07
1.37905e-07
2.13595e-08
2.94377e-09
3.49826e-10
3.53832e-11
2.99875e-12
2.08852e-13
1.11346e-14
3.79494e-16
5.09653e-18
0.124844
0.124937
0.123055
0.119271
0.121693
0.123508
0.124007
0.12362
0.122702
0.12247
0.122819
0.121949
0.120268
0.117409
0.113278
0.10768
0.100768
0.0924603
0.0829942
0.0725642
0.0614973
0.0501504
0.0389281
0.0283569
0.019041
0.0112841
0.00523905
0.00114426
3.43616e-05
1.42371e-06
1.82971e-07
2.8177e-08
3.90188e-09
4.66602e-10
4.75409e-11
4.06711e-12
2.8639e-13
1.54724e-14
5.34666e-16
7.29829e-18
0.124947
0.123598
0.120041
0.116188
0.118664
0.120701
0.121364
0.121226
0.120262
0.120319
0.120736
0.119973
0.118275
0.115665
0.111801
0.106526
0.0999731
0.0921326
0.0830775
0.0730371
0.0622905
0.0511893
0.0401238
0.0295763
0.0201775
0.0122667
0.00602961
0.00160828
6.82625e-05
2.1291e-06
2.43688e-07
3.71207e-08
5.16444e-09
6.21333e-10
6.37354e-11
5.50043e-12
3.91278e-13
2.1394e-14
7.48607e-16
1.03725e-17
0.123873
0.120597
0.116912
0.113153
0.115615
0.117682
0.118463
0.118418
0.117719
0.117815
0.118415
0.117685
0.11625
0.113735
0.110164
0.105308
0.0991179
0.0916842
0.0830553
0.073399
0.0629862
0.0521464
0.0412541
0.0307698
0.0213011
0.0132529
0.00683567
0.00213708
0.000131671
3.27717e-06
3.26782e-07
4.88562e-08
6.82521e-09
8.26123e-10
8.5276e-11
7.4195e-12
5.32758e-13
2.94523e-14
1.04213e-15
1.46389e-17
0.120881
0.11745
0.113833
0.110183
0.112616
0.114689
0.115538
0.115562
0.115007
0.115307
0.115923
0.115415
0.114039
0.111814
0.108479
0.10398
0.0981959
0.0911477
0.0829237
0.073656
0.0635829
0.0530183
0.0423178
0.0319273
0.022409
0.0142384
0.00764873
0.00271303
0.000238576
5.17103e-06
4.42018e-07
6.42849e-08
9.00679e-09
1.09676e-09
1.13891e-10
9.98429e-12
7.23118e-13
4.03805e-14
1.44327e-15
2.05259e-17
0.117724
0.114341
0.110819
0.10729
0.10968
0.111746
0.112663
0.112779
0.112337
0.112731
0.113474
0.113024
0.111879
0.109823
0.106778
0.102586
0.0971832
0.0905308
0.0826963
0.0738108
0.0640826
0.0538034
0.0433115
0.0330384
0.0234964
0.0152198
0.00846625
0.00332436
0.000401559
8.44092e-06
6.03873e-07
8.45945e-08
1.18701e-08
1.45385e-09
1.51855e-10
1.34065e-11
9.78674e-13
5.51562e-14
1.98924e-15
2.86121e-17
0.1146
0.111295
0.107883
0.104487
0.106822
0.108868
0.109843
0.110055
0.109729
0.11019
0.111002
0.110698
0.109678
0.107846
0.105037
0.101156
0.0960974
0.0898292
0.0823811
0.0738705
0.064488
0.0545022
0.0442319
0.0340955
0.0245578
0.0161941
0.00928812
0.00396108
0.000634474
1.44851e-05
8.36303e-07
1.11349e-07
1.56236e-08
1.92436e-09
2.02166e-10
1.79663e-11
1.32105e-12
7.5079e-14
2.72964e-15
3.9666e-17
0.111538
0.108329
0.105039
0.10178
0.104049
0.106063
0.107085
0.107388
0.107178
0.107702
0.10856
0.108377
0.107514
0.105857
0.103292
0.0996876
0.0949595
0.0890514
0.0819814
0.073841
0.0648034
0.0551162
0.0450784
0.0350904
0.0255889
0.0171584
0.0101148
0.00461696
0.000942031
2.64065e-05
1.18181e-06
1.46693e-07
2.05356e-08
2.54343e-09
2.68761e-10
2.40337e-11
1.77891e-12
1.01874e-13
3.73038e-15
5.47132e-17
0.108558
0.105456
0.102295
0.0991745
0.101372
0.103343
0.104396
0.104779
0.104679
0.105266
0.106163
0.10608
0.105361
0.103883
0.101533
0.0981962
0.0937744
0.0882111
0.0815039
0.0737272
0.0650328
0.0556481
0.0458519
0.0360249
0.0265903
0.0181092
0.0109458
0.00528832
0.00131903
4.9834e-05
1.71568e-06
1.93752e-07
2.6955e-08
3.35665e-09
3.56794e-10
3.20977e-11
2.39016e-12
1.37831e-13
5.07885e-15
7.51174e-17
0.10567
0.102685
0.0996556
0.0966731
0.0987938
0.100713
0.101784
0.102234
0.102233
0.102878
0.103814
0.10382
0.103227
0.101917
0.0997728
0.0966832
0.0925526
0.0873152
0.0809579
0.0735353
0.0651803
0.0561002
0.0465535
0.0368997
0.0275534
0.0190429
0.0117771
0.00597177
0.00175324
9.30673e-05
2.55655e-06
2.57196e-07
3.53436e-08
4.42321e-09
4.73007e-10
4.2803e-11
3.20509e-12
1.8598e-13
6.89094e-15
1.02687e-16
0.102885
0.10002
0.0971227
0.0942742
0.0963173
0.0981782
0.0992548
0.0997566
0.0998422
0.100539
0.101509
0.101601
0.101122
0.0999645
0.0980132
0.0951571
0.0912999
0.0863722
0.08035
0.0732718
0.0652508
0.0564753
0.0471843
0.0377151
0.0284737
0.0199553
0.0126041
0.00666161
0.00223005
0.000166203
3.88849e-06
3.43684e-07
4.63203e-08
5.82011e-09
6.26198e-10
5.6998e-11
4.29018e-12
2.50338e-13
9.31993e-15
1.39818e-16
0.100208
0.0974641
0.0946951
0.0919751
0.0939412
0.0957415
0.0968139
0.0973542
0.0975117
0.0982491
0.099249
0.0994209
0.0990501
0.0980325
0.0962592
0.0936218
0.0900229
0.0853889
0.0796871
0.0729424
0.0652493
0.0567768
0.0477456
0.0384711
0.0293486
0.0208428
0.013423
0.00735255
0.00273876
0.000279218
6.04512e-06
4.62564e-07
6.06991e-08
7.64804e-09
8.27853e-10
7.57953e-11
5.73323e-12
3.3622e-13
1.25684e-14
1.89675e-16
0.09764
0.0950152
0.0923696
0.0897719
0.091663
0.0934019
0.0944633
0.0950307
0.0952465
0.0960143
0.0970352
0.0972794
0.0970101
0.0961245
0.094517
0.0920832
0.0887268
0.0843712
0.0789756
0.0725525
0.0651802
0.0570082
0.0482393
0.0391676
0.0301765
0.0217024
0.0142307
0.00804317
0.00327062
0.000442064
9.71512e-06
6.27967e-07
7.95254e-08
1.00377e-08
1.09297e-09
1.00653e-10
7.64998e-12
4.50653e-13
1.69037e-14
2.56442e-16
0.0951802
0.09267
0.0901423
0.0876597
0.089479
0.0911571
0.0922028
0.0927886
0.0930508
0.0938389
0.0948719
0.0951787
0.0950025
0.094241
0.09279
0.0905469
0.0874176
0.0833248
0.0782214
0.072108
0.0650479
0.0571729
0.0486674
0.0398051
0.0309564
0.0225318
0.0150249
0.00873298
0.00381864
0.000662934
1.63679e-05
8.63435e-07
1.04157e-07
1.31572e-08
1.44106e-09
1.33481e-10
1.01928e-11
6.02907e-13
2.26787e-14
3.45631e-16
0.0928251
0.0904246
0.0880079
0.0856341
0.0873845
0.0890038
0.0900307
0.0906282
0.0909272
0.0917271
0.0927638
0.0931226
0.0930294
0.092383
0.0910793
0.0890166
0.0861013
0.0822558
0.0774297
0.071614
0.0648571
0.0572743
0.0490322
0.0403845
0.0316873
0.0233287
0.0158033
0.00942229
0.0043785
0.000942382
2.89e-05
1.20982e-06
1.36457e-07
1.72214e-08
1.89742e-09
1.76777e-10
1.35625e-11
8.05213e-13
3.03587e-14
4.64505e-16
0.0905706
0.0882735
0.0859618
0.0836901
0.0853751
0.0869375
0.0879443
0.0885485
0.0888766
0.0896815
0.0907149
0.0911154
0.0910943
0.0905525
0.0893865
0.0874941
0.0847815
0.0811702
0.0766068
0.0710756
0.0646126
0.0573162
0.0493362
0.0409069
0.0323692
0.0240918
0.0165635
0.0101092
0.00494733
0.00127461
5.20164e-05
1.73396e-06
1.79127e-07
2.25082e-08
2.49478e-09
2.33799e-10
1.80223e-11
1.0737e-12
4.05579e-14
6.22611e-16
0.0884111
0.0862121
0.083999
0.0818228
0.0834461
0.0849541
0.0859397
0.0865476
0.0868985
0.0877034
0.0887279
0.089161
0.0892012
0.0887528
0.0877136
0.0859814
0.0834609
0.0800721
0.0757584
0.0704986
0.0643188
0.0573025
0.0495822
0.0413739
0.0330026
0.0248206
0.0173031
0.0107905
0.00552183
0.00164884
9.21464e-05
2.53478e-06
2.36017e-07
2.93844e-08
3.27539e-09
3.0879e-10
2.39173e-11
1.4296e-12
5.40842e-14
8.32512e-16
0.0863418
0.0842352
0.0821144
0.0800271
0.0815926
0.0830491
0.0840132
0.0846219
0.0849917
0.0857925
0.0868044
0.0872623
0.087354
0.0869878
0.086064
0.0844808
0.0821419
0.0789645
0.074889
0.0698887
0.0639811
0.0572372
0.0497735
0.0417875
0.0335883
0.025514
0.0180205
0.0114632
0.00609735
0.00205493
0.000156576
3.76179e-06
3.12403e-07
3.83344e-08
4.29416e-09
4.07268e-10
3.1699e-11
1.90084e-12
7.2e-14
1.11071e-15
0.0843578
0.0823375
0.0803025
0.0782978
0.0798095
0.0812177
0.0821607
0.0827685
0.0831531
0.083948
0.0849442
0.085421
0.0855558
0.0852613
0.0844413
0.0829955
0.0808269
0.0778503
0.0740021
0.0692503
0.0636046
0.0571249
0.0499133
0.04215
0.0341276