/*--------------------------------*- C++ -*----------------------------------*\
| =========                 |                                                 |
| \\      /  F ield         | OpenFOAM: The Open Source CFD Toolbox           |
|  \\    /   O peration     | Version:  1.6.x                                 |
|   \\  /    A nd           | Web:      www.OpenFOAM.org                      |
|    \\/     M anipulation  |                                                 |
\*---------------------------------------------------------------------------*/
FoamFile
{
    version     2.0;
    format      ascii;
    class       volScalarField;
    location    "2";
    object      k;
}
// * * * * * * * * * * * * * * * * * * * * * * * * * * * * * * * * * * * * * //

dimensions      [0 2 -2 0 0 0 0];

internalField   nonuniform List<scalar> 
4608
(
22.1318
23.1036
11.2473
18.7489
23.1803
10.3483
4.5858
11.2496
15.1467
18.7717
23.2932
9.87454
4.31793
3.01049
4.74942
10.8985
13.603
25.3145
21.203
23.4239
9.4157
4.18797
2.99392
3.02255
4.89474
10.4074
13.2533
24.7216
48.8639
1.15334
6.96931
23.5681
9.00044
4.09019
3.02055
3.05738
4.99903
9.87368
13.1381
22.9112
47.5907
28.2513
1.97362
0.915118
3.85153
23.721
8.61152
4.02159
3.06861
3.09579
5.05658
9.37232
13.0636
21.7675
44.7385
45.3114
10.9652
3.30056
2.04119
0.922089
2.55098
23.8761
8.25609
3.98084
3.14358
3.13284
5.07999
8.92586
13.0413
21.376
41.4978
56.6999
24.8445
5.80729
1.27076
3.4715
2.09695
0.914164
1.35561
24.0232
7.93501
3.96734
3.23937
3.16686
5.0774
8.53498
13.1195
21.4955
39.8487
61.4423
40.4382
11.2793
3.62592
1.26606
3.45839
2.08578
0.907309
0.736178
24.1476
7.64944
3.98162
3.33914
3.19744
5.05152
8.20076
13.3229
21.9646
39.5566
64.5665
51.5894
20.4711
6.50814
2.33852
1.26961
3.46906
2.09229
0.894307
0.145801
24.2293
7.3997
4.02323
3.45847
3.22348
5.00613
7.92477
13.6394
22.6659
40.1013
65.9607
59.0415
30.8458
12.1095
3.90121
0.858196
1.27585
3.49721
2.0854
0.875269
0.0138211
24.2403
7.18764
4.09209
3.59472
3.24364
4.94481
7.70509
14.0723
23.4955
41.0708
66.9629
63.7815
40.3904
19.9271
7.31142
1.64481
0.163666
1.28078
3.51698
2.06933
0.84843
0.00304631
24.1388
7.01401
4.18848
3.7495
3.25662
4.86992
7.53948
14.619
24.368
42.1857
67.8882
66.698
48.3639
28.2097
13.1626
3.22772
0.421723
0.0154729
1.28289
3.5312
2.03865
0.812515
0.00272347
23.8675
6.87852
4.31274
3.92387
3.26121
4.78396
7.43113
15.298
25.309
43.3475
68.6898
69.0066
54.1632
35.9433
20.1923
6.59432
0.982182
0.0527417
0.00311367
1.28142
3.53617
1.98858
0.766945
0.00270736
23.3485
6.78081
4.46798
4.11986
3.25682
4.69023
7.40308
16.1422
26.346
44.5452
69.5195
71.0845
58.5668
42.332
27.3381
11.4607
2.56019
0.157033
0.00492134
0.00274345
1.27444
3.52925
1.91301
0.712852
0.00271223
22.4538
6.71777
4.66371
4.34004
3.24371
4.59494
7.47771
17.1798
27.5005
45.7744
70.3667
73.1003
62.1101
47.6062
33.7825
17.0888
5.35688
0.593315
0.0120173
0.00278201
0.00273884
1.2595
3.50649
1.80621
0.653959
0.00270869
20.9169
6.67993
4.89918
4.58618
3.22264
4.50655
7.6699
18.4212
28.8058
47.0534
71.2222
74.9303
65.2262
52.0982
39.3869
22.8025
9.1479
1.78556
0.0611204
0.00291079
0.00275138
0.0027404
1.23186
3.42978
1.67225
0.594799
0.00270779
18.4274
6.6594
5.18934
4.8599
3.19517
4.43528
7.99641
19.8154
30.2669
48.4246
72.0629
76.5501
68.1023
56.0813
44.3637
28.1822
13.5462
3.93156
0.315702
0.00453709
0.00275322
0.00276558
0.00273628
1.17987
3.26128
1.52136
0.539718
0.00270535
15.8543
6.66639
5.55097
5.165
3.16355
4.39648
8.46042
21.2919
31.8109
49.8822
72.9074
77.919
70.6117
59.7646
48.8932
33.2127
18.1
6.81561
1.05756
0.0230681
0.00276971
0.00278198
0.0027616
0.0027298
1.09838
3.02102
1.36075
0.493273
0.00270405
12.7314
6.74568
5.91636
5.50426
3.13121
4.39955
9.05997
22.6247
33.365
51.3504
73.7778
79.2036
72.8017
62.9634
53.1198
37.9619
22.6176
10.1667
2.62573
0.130197
0.00312425
0.00279156
0.00278513
0.00275375
0.00272339
0.993943
2.73545
1.19684
0.460033
0.00270293
9.40327
6.91278
6.33327
5.88291
3.1022
4.45258
9.72429
23.9981
34.7396
52.7862
74.6503
80.426
74.899
65.8385
56.8289
42.4631
27.0627
13.7519
4.74324
0.572436
0.0075976
0.00280073
0.00280635
0.00277829
0.00274261
0.00271808
0.87126
2.36402
1.04442
0.442693
0.00270223
7.44335
6.82349
6.31774
3.08148
4.55131
10.5254
23.5221
36.1396
54.1072
75.5068
81.5802
76.7886
68.5644
60.1957
46.6749
31.3751
17.4759
7.22847
1.53394
0.0516429
0.0028686
0.00282864
0.00280356
0.00276466
0.00273245
0.002714
0.733878
1.93807
0.913284
0.443115
0.00270179
7.41097
6.82193
3.0726
4.70732
11.1355
21.9917
35.3159
55.3726
76.3843
82.6139
78.5114
70.9666
63.3802
50.5664
35.622
21.2236
10.0012
3.02928
0.248531
0.00398881
0.00284608
0.00283209
0.00278935
0.00275002
0.0027241
0.00271093
0.605433
1.50403
0.813047
0.480463
0.00270157
7.40849
3.07881
4.91444
10.8835
23.0065
34.3856
54.6458
76.9882
83.7348
80.0631
73.161
66.1777
54.2625
39.6988
25.0701
12.9365
4.8452
0.760253
0.0163504
0.00287782
0.00286284
0.00281833
0.00277094
0.00273697
0.00271777
0.00270856
0.510027
1.13152
0.75023
0.567488
0.0027017
3.10132
5.01432
10.3987
26.4019
36.7092
54.6755
76.781
84.3956
81.5066
75.1267
68.7319
57.6738
43.5804
28.926
16.0763
6.89621
1.7054
0.0827459
0.00309348
0.00288961
0.00285201
0.00279623
0.00275298
0.00272662
0.00271295
0.00270669
0.458467
0.875516
0.723611
0.687111
0.00270202
3.12306
4.96879
10.6621
30.7984
40.6291
57.507
77.3181
84.7709
82.5661
76.9393
71.0004
60.7985
47.2723
32.6634
19.37
9.19876
2.97555
0.314077
0.00529975
0.00290975
0.00288526
0.00282672
0.00277277
0.00273794
0.00271867
0.00270929
0.0027049
0.451937
0.758839
0.746355
0.00270233
3.12742
4.9084
12.1053
33.4128
44.6442
60.8969
78.9808
85.8784
83.5956
78.3943
73.0887
63.5599
50.775
36.291
22.6669
11.7294
4.4758
0.787271
0.0232567
0.00295799
0.00291473
0.00286
0.00279714
0.00275215
0.00272611
0.00271282
0.00270593
0.00270379
0.546554
0.749236
0.00270088
3.11875
5.02139
13.3546
35.8917
47.0121
63.6741
80.507
87.4633
85.2136
79.8228
74.8361
66.1064
53.9876
39.8301
25.9423
14.3724
6.21236
1.58988
0.0928422
0.00330191
0.00293728
0.00289334
0.00282532
0.0027699
0.00273561
0.0027175
0.0027076
0.00270389
0.00270233
0.679518
0.00270177
3.11957
5.28438
14.2133
40.562
49.244
65.3346
81.4228
88.4469
86.9904
81.7163
76.5544
68.3376
57.0082
43.2044
29.2132
17.0842
8.12403
2.64872
0.297053
0.00589029
0.00295987
0.00292376
0.00285597
0.00279113
0.00274762
0.00272355
0.00271002
0.00270457
0.00270146
0.00270179
0.00269861
3.13942
5.42597
17.2601
46.1399
53.0966
67.0157
81.923
88.6601
88.2076
83.728
78.6579
70.5188
59.7661
46.4756
32.4346
19.8634
10.1675
3.87398
0.68804
0.0222534
0.00301481
0.0029497
0.00288742
0.00281541
0.00276231
0.00273129
0.00271329
0.00270578
0.00270077
0.00270051
0.0026999
0.00270089
3.1479
5.79716
22.8724
50.5619
57.4477
69.6567
82.8449
88.7292
88.5741
85.3092
80.8588
72.9547
62.4669
49.5103
35.6541
22.6809
12.3295
5.25054
1.3201
0.0789215
0.00332435
0.0029693
0.00291763
0.00284209
0.00277963
0.00274091
0.00271765
0.00270756
0.00270042
0.00269961
0.0026982
0.00270004
0.00269719
3.17259
7.2132
27.7843
55.2524
60.9381
72.3564
84.4365
89.2651
88.7645
86.0345
82.6911
75.4955
65.3279
52.4926
38.717
25.5792
14.5884
6.77459
2.14232
0.23161
0.00528428
0.00299153
0.0029449
0.00287019
0.00279946
0.00275248
0.00272324
0.00271004
0.00270044
0.00269897
0.00269622
0.00269795
0.00269742
0.00269956
3.34034
9.09819
33.9003
60.6367
64.6091
74.4479
85.8019
90.4137
89.3614
86.4165
83.6811
77.6945
68.2728
55.7552
41.7328
28.4293
16.979
8.42739
3.09311
0.517264
0.0162328
0.00303659
0.0029687
0.00289868
0.00282151
0.00276604
0.00273017
0.00271333
0.00270091
0.00269861
0.00269434
0.00269618
0.00269524
0.00269819
0.00269576
3.7012
11.9831
42.041
65.7177
68.7035
76.7532
86.6153
91.2742
90.4039
87.1158
84.2528
79.0411
70.8511
59.0185
45.0863
31.2653
19.4184
10.2299
4.16814
0.965309
0.0529218
0.00323299
0.00298788
0.00292628
0.00284541
0.00278155
0.00273853
0.0027175
0.0027019
0.00269859
0.00269262
0.00269453
0.00269256
0.00269575
0.00269504
0.00269716
4.29862
18.566
50.3332
70.0707
72.5201
79.3055
87.6086
91.5267
91.1597
88.193
85.0721
79.9485
72.5946
61.8743
48.4445
34.4147
21.8953
12.1396
5.39087
1.57693
0.147203
0.00424855
0.00300637
0.00295166
0.00287058
0.00279899
0.00274836
0.00272261
0.00270346
0.00269891
0.00269102
0.00269303
0.0026899
0.00269349
0.00269264
0.00269582
0.00269436
5.84547
29.4342
57.7534
73.2207
75.6891
81.555
88.7545
91.8985
91.3436
89.0424
86.198
81.0176
73.9419
64.0833
51.4155
37.6148
24.6335
14.1333
6.7439
2.31245
0.33445
0.00944952
0.00303731
0.00297437
0.00289635
0.00281824
0.00275969
0.00272872
0.00270564
0.0026996
0.00268954
0.00269168
0.0026873
0.00269125
0.00268967
0.00269357
0.00269279
0.00269468
11.6468
41.5758
63.5443
75.3065
77.835
83.2242
89.6333
92.3729
91.5486
89.3407
87.1124
82.2868
75.3576
65.9539
53.9097
40.5178
27.4672
16.3399
8.20757
3.15339
0.627361
0.0283476
0.00313447
0.00299458
0.0029219
0.00283913
0.00277258
0.00273589
0.00270848
0.00270072
0.00268847
0.00269052
0.00268479
0.0026891
0.00268669
0.00269121
0.00269041
0.00269308
0.00269228
26.2827
51.89
67.8501
76.5353
79.0804
84.0879
90.03
92.6174
91.816
89.5683
87.5049
83.3369
76.8536
67.7906
56.13
43.0916
30.1258
18.67
9.8431
4.10378
1.06299
0.0763727
0.00352382
0.00300967
0.00294634
0.00286135
0.00278705
0.00274419
0.00271202
0.00270229
0.00268779
0.00268965
0.00268239
0.0026871
0.00268373
0.00268871
0.0026875
0.00269092
0.0026883
0.00267406
42.2718
59.7718
70.8442
77.0356
79.6093
84.2641
89.8913
92.4767
91.939
89.8805
87.7857
83.886
78.1004
69.5933
58.3033
45.4605
32.5844
20.9405
11.6096
5.19622
1.60955
0.182379
0.00525413
0.0030309
0.00296838
0.0028845
0.00280309
0.00275367
0.00271636
0.00270431
0.00268747
0.00268912
0.00268012
0.00268528
0.00268079
0.00268621
0.00268453
0.00268845
0.00268384
0.00263226
54.205
65.2296
72.6616
76.9241
79.541
83.9008
89.2881
92.0208
91.7488
90.0712
88.1715
84.3267
78.8616
71.1117
60.4168
47.7889
34.9122
23.1215
13.4024
6.41283
2.2549
0.364992
0.0123505
0.00307228
0.00298815
0.00290785
0.00282061
0.0027644
0.00272157
0.00270683
0.0026875
0.00268888
0.002678
0.00268366
0.0026779
0.00268378
0.00268153
0.00268563
0.00267842
0.00259209
61.7943
68.6263
73.5017
76.3245
78.9796
83.0969
88.306
91.1766
91.253
89.9537
88.4383
84.8933
79.5657
72.1853
62.2417
50.0709
37.2155
25.2434
15.1918
7.702
2.99193
0.637049
0.0332236
0.0032003
0.00300541
0.00293055
0.00283937
0.00277638
0.00272765
0.00270989
0.00268787
0.00268888
0.00267602
0.00268224
0.00267507
0.00268149
0.00267849
0.0026825
0.00267232
0.00255328
66.2937
70.4811
73.5915
75.3578
78.0278
81.9398
86.9934
90.045
90.4727
89.5371
88.3931
85.3072
80.3906
73.246
63.7373
52.1114
39.4945
27.3641
16.9819
9.04254
3.81069
1.019
0.0812839
0.00366055
0.00301952
0.00295183
0.00285907
0.0027896
0.00273464
0.00271353
0.00268859
0.00268909
0.00267407
0.00268093
0.00267233
0.00267937
0.00267543
0.00267924
0.00266559
0.0025167
68.7845
71.2514
73.1346
74.1269
76.7846
80.5106
85.404
88.6442
89.4438
88.8584
88.0526
85.3985
80.9889
74.3816
65.1665
53.9255
41.6057
29.4849
18.7971
10.4273
4.70505
1.48311
0.17689
0.00548876
0.00304019
0.00297115
0.00287937
0.00280398
0.00274258
0.00271777
0.00268969
0.00268952
0.0026723
0.00267979
0.00266967
0.00267742
0.00267235
0.00267591
0.00265833
0.00247839
69.962
71.2727
72.2894
72.7096
75.3346
78.8851
83.5987
87.0026
88.1686
87.9515
87.4611
85.2064
81.2611
75.2088
66.5631
55.6613
43.5734
31.5112
20.6366
11.8601
5.66673
2.01099
0.332063
0.0119395
0.00308295
0.0029888
0.00289981
0.00281944
0.00275149
0.00272266
0.00269122
0.0026902
0.00267079
0.00267884
0.0026671
0.00267563
0.00266927
0.00267261
0.00265063
0.00244213
70.2615
70.7761
71.1703
71.1624
73.741
77.1267
81.6435
85.1581
86.6824
86.8299
86.6549
84.7723
81.27
75.7206
67.6919
57.2795
45.4784
33.4625
22.4427
13.3375
6.69121
2.5948
0.549726
0.0291986
0.00320002
0.00300486
0.00291994
0.0028359
0.00276138
0.00272822
0.00269318
0.00269114
0.00266952
0.00267809
0.0026646
0.00267401
0.0026662
0.00266934
0.00264254
0.0024085
69.9631
69.9187
69.8585
69.5267
72.0501
75.2817
79.5946
83.1633
85.003
85.5077
85.6533
84.1409
81.044
75.9912
68.5171
58.6701
47.2384
35.3805
24.2275
14.8273
7.77409
3.23877
0.84896
0.065653
0.00355911
0.00301767
0.00293936
0.00285329
0.00277228
0.00273449
0.00269562
0.00269237
0.00266851
0.00267754
0.0026622
0.00267254
0.00266313
0.00266612
0.00263411
0.00237704
69.252
68.8087
68.4121
67.835
70.2955
73.3832
77.4915
81.0658
83.1667
83.9969
84.459
83.337
80.6379
76.0373
69.1013
59.7982
48.8068
37.1737
26.0114
16.3339
8.89875
3.94483
1.21145
0.135397
0.0047695
0.00303669
0.00295768
0.0028715
0.00278419
0.00274152
0.00269855
0.00269389
0.00266775
0.00267716
0.00265989
0.00267123
0.0026601
0.00266293
0.00262538
0.00234732
68.253
67.5213
66.8744
66.1129
68.505
71.4553
75.3629
78.9021
81.2059
82.327
83.0799
82.3506
80.0778
75.9196
69.4829
60.6992
50.1746
38.8124
27.7161
17.8661
10.0646
4.70532
1.62533
0.24839
0.00872573
0.003069
0.00297521
0.00289026
0.00279713
0.00274937
0.00270192
0.00269565
0.00266724
0.00267695
0.00265769
0.00267
0.00265692
0.00265978
0.00261639
0.00231908
67.0522
66.1112
65.2784
64.3784
66.7008
69.5197
73.2296
76.7026
79.1507
80.5197
81.541
81.1855
79.3415
75.6554
69.7169
61.4214
51.3464
40.3097
29.3112
19.3694
11.2731
5.51683
2.08089
0.406828
0.0192186
0.00314424
0.00299184
0.00290917
0.00281111
0.00275809
0.00270584
0.00269773
0.002667
0.00267691
0.00265551
0.00266889
0.00265374
0.00265666
0.00260715
0.00229216
65.7108
64.6185
63.6479
62.6421
64.8974
67.594
71.113
74.4917
77.0317
78.6008
79.856
79.8607
78.4321
75.2156
69.8005
62.0106
52.3585
41.6594
30.8149
20.8133
12.4926
6.37888
2.57886
0.621313
0.0413573
0.00333768
0.00300615
0.00292778
0.0028261
0.00276771
0.00271034
0.00270017
0.00266702
0.00267701
0.00265343
0.00266793
0.00265062
0.00265359
0.00259771
0.00226641
64.2733
63.0724
61.9983
60.9079
63.1027
65.6884
69.03
72.2984
74.8774
76.5989
78.0479
78.3796
77.3642
74.6068
69.7053
62.4532
53.245
42.8767
32.2232
22.2086
13.6989
7.27618
3.12359
0.890569
0.0835249
0.00389127
0.0030221
0.00294558
0.00284198
0.00277823
0.00271547
0.00270299
0.00266729
0.00267728
0.00265149
0.00266712
0.00264755
0.00265057
0.00258808
0.00224174
62.7721
61.4928
60.3377
59.177
61.3183
63.8068
66.9869
70.1424
72.7266
74.5449
76.1432
76.762
76.1321
73.84
69.4467
62.7243
54.0024
43.9801
33.5361
23.5548
14.8935
8.19349
3.71214
1.20376
0.154302
0.00559019
0.00304398
0.00296253
0.00285848
0.00278964
0.00272126
0.0027062
0.00266783
0.00267771
0.00264971
0.00266646
0.00264453
0.00264759
0.00257828
0.00221812
61.2296
59.8913
58.6698
57.4493
59.5436
61.9472
64.9834
68.0288
70.6004
72.4823
74.1743
75.0301
74.7524
72.9062
69.0309
62.846
54.6144
44.9737
34.7578
24.8458
16.0755
9.12714
4.33633
1.55273
0.259349
0.0102501
0.00308424
0.00297866
0.00287525
0.00280192
0.00272773
0.00270982
0.00266866
0.00267831
0.00264811
0.00266591
0.00264155
0.00264464
0.00256836
0.00219518
59.6591
58.2741
56.9965
55.7237
57.7779
60.1071
63.0139
65.956
68.5031
70.4296
72.1878
73.2189
73.2426
71.8155
68.449
62.8156
55.0916
45.8537
35.8918
26.0766
17.2382
10.0747
4.99117
1.93077
0.398458
0.0209612
0.00317137
0.00299375
0.00289199
0.00281504
0.00273488
0.00271387
0.00266978
0.00267911
0.00264669
0.00266547
0.00263861
0.00264172
0.00255819
0.00217472
58.0684
56.6443
55.3177
54.0013
56.019
58.2846
61.0746
63.9174
66.434
68.3913
70.1998
71.3773
71.6407
70.5827
67.7036
62.6253
55.4275
46.6215
36.9421
27.2468
18.3736
11.0309
5.67425
2.33726
0.581815
0.0414084
0.0033757
0.00300673
0.00290845
0.00282897
0.00274271
0.00271852
0.00267121
0.0026801
0.00264545
0.00266514
0.0026357
0.00263882
0.00254782
0.002146
56.4614
55.0034
53.6359
52.2868
54.268
56.4761
59.1636
61.9115
64.3878
66.3674
68.2144
69.5146
69.9944
69.2482
66.811
62.27
55.6172
47.2668
37.9074
28.3613
19.4779
11.9883
6.38291
2.77397
0.804688
0.0779603
0.00389848
0.00301989
0.00292437
0.00284359
0.0027512
0.00272371
0.00267297
0.00268129
0.00264437
0.0026649
0.00263284
0.00263594
0.00253726
0.00211699
54.8402
53.3543
51.9559
50.5852
52.5287
54.6822
57.276
59.938
62.3685
64.3544
66.2323
67.6354
68.3043
67.8522
65.8083
61.7706
55.6541
47.7854
38.7772
29.4191
20.5531
12.9416
7.11267
3.24221
1.05919
0.136348
0.00533792
0.00303892
0.00293967
0.00285866
0.00276036
0.00272943
0.00267508
0.0026827
0.00264346
0.00266475
0.00263
0.00263306
0.00252654
0.00208864
53.2082
51.7024
50.2843
48.9049
50.8056
52.9063
55.4131
57.992
60.378
62.3609
64.2519
65.7411
66.5749
66.3888
64.7236
61.1533
55.5532
48.1737
39.5459
30.4119
21.5986
13.8899
7.8587
3.73984
1.34063
0.220464
0.00897186
0.00307278
0.00295433
0.00287387
0.00277016
0.00273567
0.00267754
0.00268433
0.00264272
0.00266468
0.0026272
0.00263018
0.00251565
0.00206099
51.571
50.0553
48.6299
47.2571
49.1067
51.1513
53.5773
56.0781
58.4137
60.3903
62.2848
63.8334
64.8087
64.8605
63.5491
60.4245
55.3317
48.437
40.2107
31.3328
22.6084
14.8314
8.61839
4.26298
1.64546
0.33088
0.0169054
0.00314123
0.00296816
0.00288896
0.00278067
0.00274241
0.00268037
0.00268619
0.00264215
0.00266468
0.00262443
0.0026273
0.00250462
0.002034
49.9366
48.422
47.0041
45.6543
47.4429
49.4245
51.7691
54.1974
56.4849
58.443
60.3355
61.9281
63.0114
63.2697
62.2811
59.5825
54.984
48.5815
40.7701
32.1782
23.5763
15.7618
9.38952
4.80922
1.97192
0.472763
0.0317739
0.00328638
0.00298035
0.00290375
0.00279193
0.00274964
0.00268357
0.00268829
0.00264175
0.00266476
0.00262168
0.00262442
0.00249344
0.00200765
48.3143
46.8142
45.4201
44.1066
45.8269
47.7372
49.9962
52.3478
54.5891
56.5303
58.4072
60.0323
61.2018
61.6286
60.923
58.6292
54.5076
48.5981
41.2211
32.9424
24.4969
16.6763
10.1685
5.37715
2.32113
0.648014
0.0575272
0.00362043
0.00299393
0.00291803
0.00280371
0.00275734
0.00268716
0.00269064
0.00264153
0.00266492
0.00261896
0.00262151
0.00248212
0.00198191
46.7158
45.2452
43.8885
42.6406
44.2676
46.1012
48.2701
50.5394
52.7243
54.6463
56.5124
58.1538
59.3929
59.9589
59.496
57.5669
53.9057
48.4836
41.5538
33.6171
25.3628
17.5695
10.9513
5.96475
2.69424
0.849432
0.0988658
0.00445571
0.00301063
0.00293183
0.00281582
0.0027655
0.00269114
0.00269325
0.00264149
0.00266516
0.00261626
0.00261859
0.00247067
0.00195675
45.1546
43.7264
42.4342
41.2889
42.7939
44.5246
46.6017
48.7846
50.9046
52.7916
54.6417
56.3034
57.5976
58.2806
58.0216
56.4158
53.1827
48.2404
41.7631
34.1915
26.1637
18.4339
11.7334
6.56922
3.09144
1.07353
0.15922
0.0065089
0.00303553
0.00294509
0.00282805
0.00277411
0.0026955
0.00269611
0.00264162
0.00266549
0.00261359
0.00261565
0.0024591
0.00193215
43.6425
42.2813
41.0889
40.0665
41.4386
43.0393
44.9982
47.0931
49.1427
50.983
52.7992
54.4677
55.8185
56.6076
56.5211
55.1971
52.3555
47.8722
41.8497
34.6591
26.8885
19.2598
12.5083
7.18715
3.51056
1.31754
0.240552
0.0110392
0.00308026
0.00295762
0.0028402
0.00278317
0.00270024
0.00269922
0.00264191
0.00266589
0.00261096
0.00261269
0.00244741
0.00190809
42.2023
40.9407
39.8689
39.0197
40.2155
41.6785
43.4991
45.4738
47.4477
49.2328
51.003
52.6587
54.0406
54.9312
54.9971
53.9302
51.4434
47.3895
41.8163
35.0182
27.5296
20.0369
13.2682
7.814
3.94916
1.57866
0.34254
0.0198593
0.00316563
0.00296903
0.00285212
0.00279266
0.00270532
0.0027026
0.00264239
0.00266639
0.00260836
0.00260971
0.00243562
0.00188455
40.8643
39.7223
38.817
38.2031
39.1724
40.4544
42.1356
43.9743
45.834
47.5497
49.2647
50.8935
52.2852
53.2349
53.447
52.6106
50.4564
46.8065
41.6678
35.2698
28.0832
20.7572
14.0055
8.44417
4.40473
1.85674
0.472598
0.0350261
0.00333784
0.0029788
0.00286366
0.0028025
0.00271075
0.00270624
0.00264303
0.00266697
0.0026058
0.0026067
0.00242372
0.00186151
39.6468
38.6657
38.0082
37.5103
38.3432
39.4156
40.9144
42.6159
44.3444
45.9454
47.5918
49.18
50.5631
51.5405
51.8685
51.2416
49.393
46.1287
41.4113
35.4152
28.5482
21.4154
14.7129
9.07214
4.87437
2.15238
0.626851
0.0601602
0.00370793
0.0029871
0.00287469
0.00281258
0.00271651
0.00271014
0.00264384
0.00266764
0.0026033
0.00260367
0.00241174
0.00183895
38.5879
37.8563
37.3629
36.7807
37.6107
38.5618
39.8632
41.3831
42.968
44.4422
45.9914
47.5169
48.8701
49.8673
50.275
49.8337
48.26
45.358
41.049
35.4554
28.9232
22.0083
15.3844
9.69211
5.35483
2.46567
0.800774
0.098465
0.00457544
0.00299934
0.00288508
0.00282276
0.00272258
0.0027143
0.00264483
0.00266841
0.00260084
0.0026006
0.00239967
0.00181685
37.7765
37.2418
36.6931
35.9725
36.8393
37.7641
38.923
40.257
41.6659
43.0272
44.4739
45.9083
47.2114
48.2131
48.6896
48.3945
47.0723
44.5019
40.5848
35.3899
29.206
22.5332
16.0161
10.2987
5.84241
2.79564
0.991721
0.152301
0.00655005
0.00302006
0.00289483
0.0028329
0.00272898
0.00271871
0.00264599
0.00266927
0.00259841
0.00259749
0.00238743
0.00179521
37.1762
36.6185
35.9276
35.0999
36.0012
36.9271
37.994
39.1882
40.4367
41.6811
43.031
44.369
45.6027
46.5848
47.1145
46.9461
45.8394
43.575
40.0257
35.2214
29.3933
22.9855
16.6037
10.8882
6.33314
3.13971
1.19744
0.222906
0.0106349
0.0030589
0.00290396
0.00284292
0.00273552
0.00272315
0.00264733
0.00267022
0.00259601
0.00259434
0.00237512
0.001774
36.5776
35.8867
35.0827
34.1782
35.1086
36.0418
37.0462
38.1354
39.2644
40.4065
41.6561
42.8986
44.0585
45.0031
45.5574
45.4969
44.5791
42.59
39.384
34.956
29.4855
23.3606
17.1422
11.4566
6.82342
3.49511
1.41545
0.30989
0.0182158
0.00313186
0.00291226
0.00285275
0.00274228
0.00272776
0.00264885
0.00267125
0.00259364
0.00259113
0.00236275
0.00175321
35.8639
35.0636
34.1797
33.2158
34.1733
35.1177
36.0808
37.0879
38.1227
39.1922
40.353
41.4979
42.5801
43.4813
44.0397
44.0572
43.3036
41.5612
38.6736
34.6032
29.4866
23.6564
17.6261
11.9987
7.30986
3.85935
1.6449
0.418767
0.0308444
0.0032736
0.00292146
0.00286237
0.00274925
0.00273257
0.00265054
0.00267237
0.00259132
0.00258787
0.00235033
0.00173282
35.0524
34.1752
33.23
32.2178
33.2013
34.1609
35.1005
36.0481
37.0049
38.0157
39.1121
40.1696
41.1718
42.0218
42.5749
42.6461
42.0264
40.5022
37.9068
34.1754
29.4031
23.874
18.0516
12.5092
7.78817
4.23014
1.88565
0.546686
0.0511699
0.00356371
0.00293182
0.00287184
0.00275637
0.00273757
0.0026524
0.00267358
0.00258903
0.00258456
0.00233788
0.00171282
34.1717
33.2359
32.2409
31.1898
32.1968
33.1741
34.1042
35.0136
35.911
36.8706
37.9139
38.9051
39.8355
40.6299
41.1662
41.2768
40.7646
39.4283
37.0965
33.6835
29.2444
24.0168
18.4173
12.9839
8.25407
4.60491
2.13732
0.689534
0.0816143
0.00420237
0.00294484
0.00288117
0.00276358
0.0027428
0.00265444
0.00267487
0.00258678
0.0025812
0.00232539
0.00169319
33.2379
32.2542
31.2188
30.1397
31.1644
32.1596
33.09
33.9784
34.8361
35.7555
36.7516
37.6878
38.5628
39.307
39.819
39.9543
39.5308
38.3549
36.2577
33.1383
29.0189
24.0904
18.7231
13.419
8.70374
4.98069
2.39914
0.84503
0.123957
0.00559327
0.00296444
0.00289029
0.00277083
0.00274831
0.00265666
0.00267627
0.00258457
0.00257777
0.00231287
0.00167393
32.2602
31.2374
30.1724
29.0788
30.1118
31.1208
32.0567
32.9368
33.7716
34.6646
35.6232
36.5109
37.3393
38.045
38.5349
38.6838
38.3311
37.294
35.4044
32.5526
28.735
24.1001
18.9711
13.8124
9.13342
5.35437
2.66917
1.01095
0.179241
0.00840554
0.00299732
0.00289908
0.00277808
0.00275412
0.00265905
0.00267776
0.00258241
0.0025743
0.00230035
0.00165503
31.2463
30.1946
29.1133
28.0203
29.0494
30.0645
31.006
31.8853
32.7101
33.5892
34.5225
35.3716
36.1587
36.8318
37.3064
37.467
37.1708
36.2522
34.5474
31.9388
28.4025
24.0515
19.1635
14.1629
9.53949
5.72274
2.94504
1.18563
0.247365
0.0135822
0.00305405
0.00290736
0.00278529
0.00276025
0.0026616
0.00267938
0.00258029
0.00257076
0.0022878
0.00163647
30.2054
29.1377
28.0556
26.9789
27.9907
29.0006
29.9432
30.8237
31.6464
32.5209
33.4403
34.2631
35.0174
35.6615
36.1234
36.2978
36.0519
35.2349
33.6935
31.306
28.0309
23.9511
19.303
14.4705
9.91924
6.08255
3.2244
1.36717
0.329893
0.0222365
0.00315393
0.00291492
0.00279244
0.00276669
0.00266433
0.00268113
0.00257822
0.00256717
0.00227526
0.00161824
29.1498
28.0811
27.014
25.968
26.9495
27.9416
28.8769
29.756
30.5792
31.4543
32.3682
33.1765
33.9089
34.5303
34.9806
35.1679
34.9697
34.2441
32.8477
30.6606
27.6276
23.8051
19.3927
14.7352
10.271
6.43095
3.50503
1.5551
0.428714
0.0358589
0.0033368
0.00292145
0.00279948
0.0027734
0.00266723
0.00268302
0.00257619
0.00256353
0.00226272
0.00160034
28.0938
27.0398
26.0025
24.998
25.9394
26.9012
27.8186
28.6895
29.5112
30.3876
31.3004
32.1033
32.8244
33.4319
33.8744
34.0729
33.918
33.2771
32.0124
30.007
27.198
23.6189
19.4362
14.9578
10.5933
6.76569
3.78491
1.74884
0.539591
0.0564267
0.00369339
0.00292762
0.00280638
0.0027803
0.00267032
0.00268507
0.00257421
0.00255984
0.00225017
0.00158275
27.0527
26.028
25.0316
24.0749
24.9703
25.8923
26.781
27.6346
28.4489
29.323
30.2349
31.0377
31.7558
32.3584
32.7993
33.0098
32.8934
32.3293
31.1863
29.348
26.746
23.3967
19.4367
15.1393
10.8851
7.08471
4.06218
1.94786
0.660177
0.085439
0.00442573
0.00293743
0.00281307
0.00278734
0.0026736
0.00268727
0.00257227
0.00255609
0.00223764
0.00156547
26.0408
25.0564
24.1075
23.2002
24.0481
24.9246
25.7761
26.6029
27.4015
28.2664
29.1736
29.9772
30.6974
31.3023
31.7484
31.9739
31.8937
31.3989
30.367
28.6837
26.2746
23.1417
19.3969
15.281
11.1455
7.38604
4.33494
2.15106
0.788332
0.123926
0.0058929
0.00295407
0.00281967
0.00279448
0.00267708
0.00268964
0.00257039
0.00255231
0.00222512
0.00154848
25.069
24.1315
23.2318
22.3715
23.1744
24.0039
24.8129
25.6052
26.3795
27.2266
28.122
28.9236
29.647
30.2584
30.7151
30.9598
30.9156
30.4846
29.554
28.0136
25.785
22.8569
19.3192
15.3842
11.3744
7.66811
4.60122
2.35685
0.922568
0.172143
0.00864018
0.00298322
0.00282632
0.0028017
0.00268075
0.00269217
0.00256855
0.00254848
0.0022126
0.00153178
24.1437
23.255
22.4021
21.5837
22.3466
23.1316
23.8968
24.6499
25.3929
26.2133
27.0885
27.882
28.6058
29.2247
29.6952
29.9624
29.9553
29.5847
28.7472
27.3383
25.2781
22.5441
19.2063
15.4504
11.5718
7.92971
4.85922
2.56353
1.06143
0.229785
0.013371
0.00303374
0.00283319
0.00280904
0.0026846
0.00269488
0.00256676
0.00254461
0.0022001
0.00151537
23.2668
22.4245
21.6135
20.831
21.5597
22.3051
23.0288
23.7416
24.4488
25.2359
26.0822
26.86
27.5788
28.2023
28.6868
28.9782
29.0091
28.6971
27.9465
26.6592
24.7557
22.2052
19.0601
15.4813
11.7383
8.17004
5.10739
2.76957
1.20352
0.298434
0.0208861
0.00312107
0.0028405
0.00281654
0.00268864
0.00269777
0.00256502
0.00254071
0.00218762
0.00149923
22.436
21.6351
20.8597
20.1078
20.8078
21.5196
22.2064
22.8809
23.5513
24.301
25.1122
25.8663
26.5728
27.1958
27.6915
28.0063
28.0751
27.8199
27.1514
25.9775
24.2202
21.8429
18.8829
15.4788
11.8744
8.38841
5.34441
2.97356
1.34837
0.378515
0.0323042
0.00327599
0.00284866
0.00282423
0.00269283
0.00270086
0.00256333
0.00253677
0.00217516
0.00148335
21.6462
20.8807
20.1355
19.4101
20.0855
20.7691
21.4247
22.0652
22.7007
23.4122
24.1846
24.909
25.5958
26.2115
26.7133
27.0483
27.153
26.9524
26.3621
25.2946
23.6742
21.4602
18.6777
15.4448
11.9813
8.58463
5.5691
3.17431
1.49549
0.466809
0.048955
0.0035659
0.00285843
0.00283206
0.00269716
0.00270417
0.00256169
0.00253281
0.00216271
0.00146773
20.8914
20.1558
19.4367
18.7356
19.3887
20.0482
20.6779
21.2897
21.8943
22.5697
23.3027
23.9939
24.6553
25.2568
25.7581
26.1081
26.2447
26.0955
25.5791
24.612
23.1202
21.0604
18.4476
15.3818
12.0602
8.75879
5.78065
3.37076
1.64444
0.561468
0.0718242
0.00412825
0.00287135
0.00283989
0.00270162
0.00270772
0.00256009
0.00252884
0.00215029
0.00145236
20.1662
19.4563
18.7612
18.0839
18.7152
19.353
19.9607
20.5487
21.1272
21.7705
22.4665
23.1238
23.7564
24.3381
24.8323
25.1909
25.3541
25.2514
24.8042
23.9314
22.5608
20.6469
18.196
15.2926
12.1127
8.91128
5.97844
3.56195
1.79455
0.660822
0.101569
0.00519872
0.00289026
0.00284747
0.00270617
0.0027115
0.00255853
0.00252486
0.00213789
0.00143724
19.4663
18.7799
18.1082
17.4554
18.0644
18.6811
19.2693
19.8371
20.394
21.01
21.6731
22.2983
22.9013
23.4599
23.9417
24.3024
24.4857
24.4236
24.0399
23.2554
21.9989
20.2228
17.9265
15.1803
12.1408
9.04276
6.16203
3.74696
1.94493
0.763709
0.138315
0.00712936
0.00291919
0.00285443
0.00271081
0.00271552
0.00255702
0.00252087
0.00212551
0.00142236
18.7896
18.1262
17.4785
16.8513
17.437
18.032
18.6013
19.1512
19.6898
20.2828
20.9178
21.5146
22.0896
22.6241
23.0901
23.4477
23.6446
23.6165
23.2896
22.5869
21.4373
19.7915
17.6423
15.0477
12.1465
9.15397
6.33121
3.92493
2.09462
0.869356
0.181934
0.0103723
0.00296383
0.00286118
0.0027155
0.00271977
0.00255556
0.00251689
0.00211315
0.00140771
18.1355
17.4957
16.8732
16.2724
16.8338
17.4062
17.9561
18.4888
19.011
19.5843
20.1954
20.7681
21.3183
21.8299
22.2788
22.6296
22.8347
22.834
22.5571
21.9289
20.8789
19.3558
17.3464
14.8975
12.1317
9.24581
6.48592
4.09514
2.24266
0.976338
0.232285
0.0154592
0.00303331
0.00286809
0.00272025
0.0027242
0.00255414
0.00251292
0.00210082
0.00139329
17.5046
16.8895
16.2932
15.719
16.2559
16.8047
17.3342
17.8492
18.3556
18.911
19.5014
20.0538
20.5829
21.0744
21.5069
21.8492
22.0586
22.0795
21.8457
21.2847
20.3267
18.9186
17.0416
14.7324
12.0985
9.31934
6.62628
4.25704
2.38826
1.08425
0.291752
0.0229861
0.00314384
0.00287452
0.00272504
0.00272877
0.00255277
0.00250895
0.00208851
0.00137909
16.898
16.3087
15.7387
15.1905
15.7034
16.2283
16.7365
17.2328
17.7229
18.2609
18.8324
19.3673
19.8789
20.3534
20.7715
21.1054
21.3166
21.3548
21.1579
20.6568
19.7832
18.4823
16.7304
14.5547
12.0487
9.37569
6.75252
4.41022
2.53077
1.19284
0.357606
0.0339228
0.00332647
0.00288031
0.00272984
0.00273345
0.00255147
0.002505
0.00207621
0.00136511
16.3168
15.7534
15.2091
14.6856
15.1757
15.6772
16.1638
16.6406
17.1134
17.6334
18.1864
18.7054
19.2019
19.6624
20.0687
20.3953
20.6077
20.66
20.495
20.0473
19.2505
18.049
16.4148
14.3661
11.9839
9.4159
6.86495
4.55443
2.66964
1.30186
0.428296
0.0490325
0.00364406
0.0028851
0.00273458
0.00273819
0.00255022
0.00250105
0.00206394
0.00135133
15.7611
15.2231
14.7033
14.2026
14.6715
15.1509
15.6162
16.0731
16.5278
17.029
17.5631
18.0663
18.549
18.9976
19.3943
19.7154
19.9293
19.994
19.857
19.457
18.73
17.6204
16.0963
14.1684
11.9054
9.44095
6.96399
4.68942
2.80442
1.41106
0.502571
0.0688739
0.0042127
0.00289293
0.00273916
0.00274296
0.00254904
0.0024971
0.00205169
0.00133776
15.2304
14.7165
14.2194
13.7398
14.1893
14.648
15.0931