/*--------------------------------*- C++ -*----------------------------------*\
| =========                 |                                                 |
| \\      /  F ield         | OpenFOAM: The Open Source CFD Toolbox           |
|  \\    /   O peration     | Version:  1.6.x                                 |
|   \\  /    A nd           | Web:      www.OpenFOAM.org                      |
|    \\/     M anipulation  |                                                 |
\*---------------------------------------------------------------------------*/
FoamFile
{
    version     2.0;
    format      ascii;
    class       volScalarField;
    location    "2";
    object      mu;
}
// * * * * * * * * * * * * * * * * * * * * * * * * * * * * * * * * * * * * * //

dimensions      [1 -1 -1 0 0 0 0];

internalField   nonuniform List<scalar> 
4608
(
1.81185e-05
1.81103e-05
1.81093e-05
2.31111e-05
1.81113e-05
1.81102e-05
1.81076e-05
1.83846e-05
2.59378e-05
3.98764e-05
1.81123e-05
1.81114e-05
1.81102e-05
1.81074e-05
1.81172e-05
1.88145e-05
2.80582e-05
4.21452e-05
6.60643e-05
1.81134e-05
1.81125e-05
1.81115e-05
1.81102e-05
1.81027e-05
1.81579e-05
1.93628e-05
2.97485e-05
4.32565e-05
6.62372e-05
6.70169e-05
7.24064e-05
1.81146e-05
1.81137e-05
1.81127e-05
1.81116e-05
1.81078e-05
1.82274e-05
2.0005e-05
3.12495e-05
4.39195e-05
6.61475e-05
7.11408e-05
6.66252e-05
6.64621e-05
6.82434e-05
1.81159e-05
1.8115e-05
1.8114e-05
1.81128e-05
1.81193e-05
1.83302e-05
2.07212e-05
3.26536e-05
4.46803e-05
6.59879e-05
7.03157e-05
7.17776e-05
6.6484e-05
6.64575e-05
6.64548e-05
6.12401e-05
1.81173e-05
1.81164e-05
1.81153e-05
1.8114e-05
1.81378e-05
1.84701e-05
2.14956e-05
3.39815e-05
4.55196e-05
6.58887e-05
6.974e-05
7.27147e-05
6.15796e-05
6.63851e-05
6.64553e-05
6.64547e-05
6.64548e-05
4.92828e-05
1.81188e-05
1.81178e-05
1.81166e-05
1.81153e-05
1.81672e-05
1.86496e-05
2.23154e-05
3.52594e-05
4.63426e-05
6.58218e-05
6.93576e-05
7.20937e-05
6.34124e-05
5.23556e-05
6.6454e-05
6.64547e-05
6.64547e-05
6.64547e-05
3.8253e-05
1.81203e-05
1.81193e-05
1.8118e-05
1.81167e-05
1.82106e-05
1.88697e-05
2.31747e-05
3.65126e-05
4.71535e-05
6.57644e-05
6.91111e-05
7.15968e-05
6.69868e-05
5.48241e-05
4.46158e-05
6.64549e-05
6.64548e-05
6.64547e-05
6.64548e-05
2.62973e-05
1.81219e-05
1.81208e-05
1.81195e-05
1.81181e-05
1.82706e-05
1.91312e-05
2.40745e-05
3.77618e-05
4.79631e-05
6.57285e-05
6.89354e-05
7.13689e-05
7.04187e-05
5.90117e-05
4.80724e-05
3.44088e-05
6.64549e-05
6.64548e-05
6.64549e-05
6.64549e-05
1.96856e-05
1.81236e-05
1.81224e-05
1.8121e-05
1.81196e-05
1.83501e-05
1.9436e-05
2.50203e-05
3.90116e-05
4.87817e-05
6.57136e-05
6.87864e-05
7.11646e-05
7.30433e-05
6.33821e-05
5.26112e-05
3.88727e-05
2.4988e-05
6.6455e-05
6.64549e-05
6.64551e-05
6.64552e-05
1.81641e-05
1.81253e-05
1.8124e-05
1.81225e-05
1.81211e-05
1.84523e-05
1.9786e-05
2.60195e-05
4.02563e-05
4.96097e-05
6.57137e-05
6.86782e-05
7.10027e-05
7.31125e-05
6.68234e-05
5.74469e-05
4.36926e-05
2.94819e-05
1.94498e-05
6.6455e-05
6.64551e-05
6.64554e-05
6.64556e-05
1.80022e-05
1.81271e-05
1.81257e-05
1.81242e-05
1.81226e-05
1.85799e-05
2.0184e-05
2.7077e-05
4.14901e-05
5.04423e-05
6.57282e-05
6.85976e-05
7.07618e-05
7.31069e-05
6.92105e-05
6.14247e-05
4.88669e-05
3.42398e-05
2.17218e-05
1.8132e-05
6.6455e-05
6.64554e-05
6.64559e-05
6.64561e-05
1.79813e-05
1.8129e-05
1.81275e-05
1.81258e-05
1.81242e-05
1.87359e-05
2.06335e-05
2.81961e-05
4.27128e-05
5.12862e-05
6.57504e-05
6.85147e-05
7.05836e-05
7.27052e-05
7.10544e-05
6.45868e-05
5.33935e-05
3.96658e-05
2.50551e-05
1.84996e-05
1.79966e-05
6.64552e-05
6.64557e-05
6.64563e-05
6.64566e-05
1.79765e-05
1.81309e-05
1.81294e-05
1.81276e-05
1.81259e-05
1.89232e-05
2.11392e-05
2.93743e-05
4.392e-05
5.21622e-05
6.57968e-05
6.84518e-05
7.04348e-05
7.2454e-05
7.24684e-05
6.71747e-05
5.72066e-05
4.46504e-05
2.99812e-05
1.93903e-05
1.80318e-05
1.79801e-05
6.64554e-05
6.64561e-05
6.64565e-05
6.64568e-05
1.79749e-05
1.81328e-05
1.81312e-05
1.81294e-05
1.81277e-05
1.91449e-05
2.17057e-05
3.0606e-05
4.51216e-05
5.30408e-05
6.59175e-05
6.84347e-05
7.03152e-05
7.22652e-05
7.28235e-05
6.93318e-05
6.04494e-05
4.89707e-05
3.52862e-05
2.16915e-05
1.81191e-05
1.79861e-05
1.79762e-05
6.64558e-05
6.64564e-05
6.64565e-05
6.64567e-05
1.79743e-05
1.81345e-05
1.81331e-05
1.81313e-05
1.81295e-05
1.94043e-05
2.23375e-05
3.18862e-05
4.63342e-05
5.39467e-05
6.60003e-05
6.84438e-05
7.02257e-05
7.21176e-05
7.29913e-05
7.11032e-05
6.3162e-05
5.27535e-05
4.01789e-05
2.58472e-05
1.84256e-05
1.79968e-05
1.79781e-05
1.79747e-05
6.64562e-05
6.64565e-05
6.6456e-05
6.64561e-05
1.79741e-05
1.8136e-05
1.81348e-05
1.81331e-05
1.81313e-05
1.97053e-05
2.304e-05
3.32105e-05
4.76007e-05
5.49066e-05
6.60809e-05
6.84566e-05
7.02155e-05
7.19457e-05
7.30281e-05
7.25947e-05
6.55266e-05
5.60184e-05
4.44296e-05
3.08338e-05
1.95776e-05
1.80216e-05
1.79807e-05
1.79756e-05
1.79741e-05
6.64566e-05
6.64562e-05
6.64552e-05
6.64551e-05
1.7974e-05
1.81376e-05
1.81363e-05
1.81347e-05
1.81331e-05
2.0052e-05
2.38194e-05
3.45815e-05
4.89787e-05
5.60006e-05
6.61683e-05
6.84907e-05
7.01848e-05
7.20214e-05
7.2866e-05
7.33513e-05
6.75902e-05
5.88446e-05
4.81505e-05
3.56488e-05
2.23481e-05
1.81116e-05
1.79848e-05
1.79767e-05
1.79746e-05
1.79739e-05
6.64568e-05
6.64555e-05
6.64542e-05
6.64539e-05
1.79739e-05
1.81399e-05
1.81379e-05
1.81362e-05
1.81348e-05
2.045e-05
2.46837e-05
3.60004e-05
5.05885e-05
5.72974e-05
6.63041e-05
6.8523e-05
7.01557e-05
7.18888e-05
7.32324e-05
7.33153e-05
6.93273e-05
6.13127e-05
5.1413e-05
3.98629e-05
2.67173e-05
1.85174e-05
1.79929e-05
1.7978e-05
1.79751e-05
1.79741e-05
1.79737e-05
6.64566e-05
6.64545e-05
6.64534e-05
6.64533e-05
1.79739e-05
1.81396e-05
1.81379e-05
1.81363e-05
2.09062e-05
2.56387e-05
3.75003e-05
5.22797e-05
5.89179e-05
6.64383e-05
6.85531e-05
7.01273e-05
7.17678e-05
7.28887e-05
7.40571e-05
7.07731e-05
6.34645e-05
5.43059e-05
4.35031e-05
3.12138e-05
2.00652e-05
1.80179e-05
1.79797e-05
1.79757e-05
1.79744e-05
1.79739e-05
1.79737e-05
6.64559e-05
6.64537e-05
6.64532e-05
6.64537e-05
1.79739e-05
1.81398e-05
1.81379e-05
2.14287e-05
2.67007e-05
3.90318e-05
6.06399e-05
6.01356e-05
6.6606e-05
6.85759e-05
7.00945e-05
7.16587e-05
7.27271e-05
7.35395e-05
7.22023e-05
6.53978e-05
5.68296e-05
4.67349e-05
3.52985e-05
2.31451e-05
1.81451e-05
1.79828e-05
1.79763e-05
1.79747e-05
1.7974e-05
1.79738e-05
1.79737e-05
6.64548e-05
6.64534e-05
6.64542e-05
6.64558e-05
1.79739e-05
1.81398e-05
2.2029e-05
2.78703e-05
4.17682e-05
6.37627e-05
6.41602e-05
6.66641e-05
6.85817e-05
7.00617e-05
7.15532e-05
7.25608e-05
7.33769e-05
7.32501e-05
6.71634e-05
5.91179e-05
4.95923e-05
3.88739e-05
2.70066e-05
1.87479e-05
1.79912e-05
1.79772e-05
1.7975e-05
1.79742e-05
1.79739e-05
1.79738e-05
1.79736e-05
6.64537e-05
6.64542e-05
6.64564e-05
6.64596e-05
1.79739e-05
2.27192e-05
2.92348e-05
4.44138e-05
6.45578e-05
6.57004e-05
6.74841e-05
6.85395e-05
7.0012e-05
7.1463e-05
7.24114e-05
7.31987e-05
7.37802e-05
6.86837e-05
6.11864e-05
5.22309e-05
4.2028e-05
3.08052e-05
2.04239e-05
1.80241e-05
1.79785e-05
1.79754e-05
1.79744e-05
1.7974e-05
1.79738e-05
1.79737e-05
1.79736e-05
6.64537e-05
6.64563e-05
6.646e-05
6.64645e-05
1.79738e-05
2.35119e-05
3.07338e-05
4.68706e-05
6.48939e-05
6.61774e-05
6.75995e-05
6.87099e-05
6.99258e-05
7.13651e-05
7.23015e-05
7.30346e-05
7.37123e-05
7.00133e-05
6.29936e-05
5.46175e-05
4.4912e-05
3.42622e-05
2.32707e-05
1.81844e-05
1.79815e-05
1.79758e-05
1.79745e-05
1.7974e-05
1.79738e-05
1.79738e-05
1.79737e-05
1.79736e-05
6.64554e-05
6.646e-05
6.64645e-05
1.79738e-05
2.44092e-05
3.23984e-05
4.91951e-05
6.50234e-05
6.63786e-05
6.77034e-05
6.88278e-05
6.99214e-05
7.12334e-05
7.21764e-05
7.29273e-05
7.36273e-05
7.11199e-05
6.46246e-05
5.67032e-05
4.75409e-05
3.7373e-05
2.65238e-05
1.88376e-05
1.79905e-05
1.79764e-05
1.79747e-05
1.79741e-05
1.79739e-05
1.79738e-05
1.79737e-05
1.79737e-05
1.79736e-05
6.64594e-05
6.64645e-05
1.79738e-05
2.54273e-05
3.42854e-05
5.13623e-05
6.56884e-05
6.64432e-05
6.77739e-05
6.89216e-05
6.99924e-05
7.11476e-05
7.2014e-05
7.27857e-05
7.35816e-05
7.20715e-05
6.60915e-05
5.85846e-05
4.98939e-05
4.0212e-05
2.97393e-05
2.03493e-05
1.80252e-05
1.79777e-05
1.7975e-05
1.79742e-05
1.79739e-05
1.79738e-05
1.79737e-05
1.79737e-05
1.79736e-05
1.79735e-05
6.64645e-05
1.79738e-05
2.66e-05
3.63422e-05
5.95629e-05
6.65626e-05
6.67056e-05
6.78043e-05
6.89883e-05
7.00757e-05
7.11976e-05
7.19034e-05
7.26051e-05
7.35111e-05
7.2926e-05
6.73907e-05
6.02967e-05
5.20322e-05
4.27752e-05
3.27568e-05
2.27474e-05
1.81746e-05
1.79804e-05
1.79753e-05
1.79743e-05
1.7974e-05
1.79738e-05
1.79737e-05
1.79737e-05
1.79737e-05
1.79736e-05
1.79735e-05
1.79738e-05
2.79541e-05
3.95426e-05
6.35512e-05
6.71547e-05
6.72056e-05
6.78867e-05
6.90168e-05
7.01359e-05
7.12525e-05
7.19943e-05
7.24815e-05
7.33655e-05
7.37072e-05
6.8595e-05
6.18493e-05
5.39894e-05
4.51074e-05
3.5483e-05
2.54926e-05
1.87129e-05
1.79881e-05
1.79759e-05
1.79745e-05
1.7974e-05
1.79738e-05
1.79738e-05
1.79737e-05
1.79737e-05
1.79736e-05
1.79736e-05
1.79735e-05
1.79738e-05
2.96426e-05
4.31516e-05
6.47153e-05
6.72737e-05
6.76217e-05
6.80841e-05
6.90547e-05
7.0158e-05
7.12779e-05
7.20094e-05
7.26183e-05
7.32476e-05
7.37885e-05
6.97249e-05
6.32911e-05
5.57813e-05
4.72548e-05
3.79783e-05
2.82253e-05
1.99135e-05
1.80146e-05
1.79769e-05
1.79747e-05
1.79741e-05
1.79739e-05
1.79738e-05
1.79737e-05
1.79737e-05
1.79736e-05
1.79736e-05
1.79736e-05
1.79735e-05
1.79737e-05
3.17373e-05
4.68937e-05
6.51273e-05
6.74083e-05
6.77703e-05
6.83059e-05
6.91511e-05
7.01713e-05
7.12716e-05
7.19891e-05
7.25858e-05
7.35606e-05
7.37719e-05
7.07634e-05
6.46259e-05
5.7451e-05
4.92508e-05
4.02948e-05
3.08214e-05
2.18213e-05
1.81183e-05
1.7979e-05
1.79749e-05
1.79742e-05
1.79739e-05
1.79738e-05
1.79737e-05
1.79737e-05
1.79736e-05
1.79736e-05
1.79736e-05
1.79735e-05
1.79735e-05
1.79737e-05
3.43848e-05
5.0569e-05
6.61473e-05
6.7743e-05
6.78714e-05
6.84519e-05
6.92791e-05
7.02163e-05
7.12538e-05
7.19543e-05
7.25259e-05
7.33834e-05
7.44671e-05
7.18099e-05
6.59317e-05
5.89918e-05
5.11429e-05
4.24492e-05
3.32386e-05
2.40731e-05
1.84752e-05
1.79844e-05
1.79753e-05
1.79743e-05
1.79739e-05
1.79738e-05
1.79737e-05
1.79737e-05
1.79736e-05
1.79736e-05
1.79736e-05
1.79735e-05
1.79735e-05
1.79735e-05
1.79737e-05
3.76177e-05
6.16937e-05
6.70619e-05
6.80641e-05
6.81263e-05
6.85536e-05
6.93865e-05
7.02866e-05
7.12568e-05
7.19117e-05
7.24723e-05
7.32543e-05
7.39909e-05
7.28052e-05
6.72505e-05
6.04819e-05
5.28973e-05
4.44848e-05
3.5499e-05
2.6386e-05
1.92989e-05
1.8e-05
1.79761e-05
1.79744e-05
1.7974e-05
1.79738e-05
1.79737e-05
1.79737e-05
1.79736e-05
1.79736e-05
1.79736e-05
1.79735e-05
1.79735e-05
1.79735e-05
1.79734e-05
1.79737e-05
4.33085e-05
6.48583e-05
6.75357e-05
6.83762e-05
6.83986e-05
6.87197e-05
6.94847e-05
7.03548e-05
7.12821e-05
7.18901e-05
7.24114e-05
7.31856e-05
7.38978e-05
7.33834e-05
6.84051e-05
6.19558e-05
5.45696e-05
4.63945e-05
3.76533e-05
2.86584e-05
2.06876e-05
1.80543e-05
1.79775e-05
1.79746e-05
1.7974e-05
1.79738e-05
1.79737e-05
1.79737e-05
1.79736e-05
1.79736e-05
1.79735e-05
1.79735e-05
1.79735e-05
1.79735e-05
1.79735e-05
1.79734e-05
1.79737e-05
5.0017e-05
6.68421e-05
6.79423e-05
6.86757e-05
6.86757e-05
6.89234e-05
6.96162e-05
7.04378e-05
7.13148e-05
7.18904e-05
7.23689e-05
7.30968e-05
7.38689e-05
7.39383e-05
6.93092e-05
6.32522e-05
5.61979e-05
4.82312e-05
3.96914e-05
3.08523e-05
2.24843e-05
1.82382e-05
1.79806e-05
1.79749e-05
1.79741e-05
1.79738e-05
1.79737e-05
1.79737e-05
1.79736e-05
1.79736e-05
1.79735e-05
1.79735e-05
1.79735e-05
1.79735e-05
1.79735e-05
1.79735e-05
1.79734e-05
1.79737e-05
6.35796e-05
6.75539e-05
6.82959e-05
6.89631e-05
6.89474e-05
6.91464e-05
6.97734e-05
7.05475e-05
7.13895e-05
7.19039e-05
7.23488e-05
7.30312e-05
7.37789e-05
7.41751e-05
7.01212e-05
6.43369e-05
5.76452e-05
5.00183e-05
4.16319e-05
3.29322e-05
2.44375e-05
1.87112e-05
1.79884e-05
1.79754e-05
1.79742e-05
1.79738e-05
1.79737e-05
1.79736e-05
1.79736e-05
1.79736e-05
1.79735e-05
1.79735e-05
1.79735e-05
1.79735e-05
1.79735e-05
1.79735e-05
1.79735e-05
1.79734e-05
1.79737e-05
6.72179e-05
6.79985e-05
6.86206e-05
6.92454e-05
6.92123e-05
6.93762e-05
6.99489e-05
7.06728e-05
7.14841e-05
7.19908e-05
7.23484e-05
7.29868e-05
7.37004e-05
7.41354e-05
7.08385e-05
6.53169e-05
5.88945e-05
5.16199e-05
4.35002e-05
3.49261e-05
2.64266e-05
1.9592e-05
1.8011e-05
1.79762e-05
1.79743e-05
1.79739e-05
1.79737e-05
1.79736e-05
1.79736e-05
1.79735e-05
1.79735e-05
1.79735e-05
1.79734e-05
1.79734e-05
1.79734e-05
1.79734e-05
1.79734e-05
1.79734e-05
1.79734e-05
1.79736e-05
6.78503e-05
6.83579e-05
6.89346e-05
6.95242e-05
6.9474e-05
6.96065e-05
7.01309e-05
7.08101e-05
7.15782e-05
7.20768e-05
7.24516e-05
7.29719e-05
7.36411e-05
7.41074e-05
7.14569e-05
6.62231e-05
6.00333e-05
5.30298e-05
4.52226e-05
3.68574e-05
2.83936e-05
2.0909e-05
1.80826e-05
1.79779e-05
1.79745e-05
1.79739e-05
1.79737e-05
1.79736e-05
1.79736e-05
1.79735e-05
1.79735e-05
1.79734e-05
1.79734e-05
1.79734e-05
1.79734e-05
1.79734e-05
1.79734e-05
1.79734e-05
1.79734e-05
1.79734e-05
6.8232e-05
6.8699e-05
6.92433e-05
6.97993e-05
6.97332e-05
6.98359e-05
7.03139e-05
7.09502e-05
7.16795e-05
7.21433e-05
7.25275e-05
7.31327e-05
7.36178e-05
7.40786e-05
7.19975e-05
6.70574e-05
6.10926e-05
5.43303e-05
4.67838e-05
3.86715e-05
3.03089e-05
2.24968e-05
1.82912e-05
1.79814e-05
1.79748e-05
1.7974e-05
1.79737e-05
1.79736e-05
1.79736e-05
1.79735e-05
1.79735e-05
1.79734e-05
1.79734e-05
1.79734e-05
1.79734e-05
1.79734e-05
1.79734e-05
1.79734e-05
1.79734e-05
1.79734e-05
6.85809e-05
6.90314e-05
6.95458e-05
7.00693e-05
6.99898e-05
7.00647e-05
7.04971e-05
7.1089e-05
7.17781e-05
7.22209e-05
7.25686e-05
7.3184e-05
7.39115e-05
7.40934e-05
7.24502e-05
6.78048e-05
6.20777e-05
5.5543e-05
4.82301e-05
4.03482e-05
3.21271e-05
2.41923e-05
1.87541e-05
1.79897e-05
1.79753e-05
1.79741e-05
1.79738e-05
1.79736e-05
1.79736e-05
1.79735e-05
1.79734e-05
1.79734e-05
1.79734e-05
1.79733e-05
1.79733e-05
1.79733e-05
1.79734e-05
1.79734e-05
1.79734e-05
1.79734e-05
6.89241e-05
6.93562e-05
6.98406e-05
7.03326e-05
7.02428e-05
7.02926e-05
7.06805e-05
7.12283e-05
7.18722e-05
7.22916e-05
7.26276e-05
7.31745e-05
7.38889e-05
7.46659e-05
7.29043e-05
6.84459e-05
6.29717e-05
5.66754e-05
4.95913e-05
4.19133e-05
3.38459e-05
2.59057e-05
1.95532e-05
1.80124e-05
1.79761e-05
1.79742e-05
1.79738e-05
1.79736e-05
1.79735e-05
1.79735e-05
1.79734e-05
1.79734e-05
1.79733e-05
1.79733e-05
1.79733e-05
1.79733e-05
1.79733e-05
1.79733e-05
1.79733e-05
1.79734e-05
6.92603e-05
6.96708e-05
7.0126e-05
7.05877e-05
7.04905e-05
7.0519e-05
7.08645e-05
7.13683e-05
7.19697e-05
7.23558e-05
7.26766e-05
7.32093e-05
7.38054e-05
7.44368e-05
7.34095e-05
6.90844e-05
6.37668e-05
5.7714e-05
5.08708e-05
4.33852e-05
3.54822e-05
2.75852e-05
2.06844e-05
1.80786e-05
1.79776e-05
1.79744e-05
1.79738e-05
1.79736e-05
1.79735e-05
1.79735e-05
1.79734e-05
1.79734e-05
1.79733e-05
1.79733e-05
1.79733e-05
1.79733e-05
1.79733e-05
1.79733e-05
1.79733e-05
1.79733e-05
6.95853e-05
6.99736e-05
7.04007e-05
7.08342e-05
7.07317e-05
7.07424e-05
7.10489e-05
7.15105e-05
7.20688e-05
7.24289e-05
7.27176e-05
7.3227e-05
7.38216e-05
7.42553e-05
7.37128e-05
6.96987e-05
6.45341e-05
5.86591e-05
5.20558e-05
4.47724e-05
3.7038e-05
2.92077e-05
2.20195e-05
1.82529e-05
1.79807e-05
1.79746e-05
1.79739e-05
1.79736e-05
1.79735e-05
1.79735e-05
1.79734e-05
1.79734e-05
1.79733e-05
1.79733e-05
1.79732e-05
1.79732e-05
1.79732e-05
1.79732e-05
1.79733e-05
1.79733e-05
6.98971e-05
7.02634e-05
7.06642e-05
7.10716e-05
7.09657e-05
7.09616e-05
7.12329e-05
7.16548e-05
7.21733e-05
7.25039e-05
7.27733e-05
7.32327e-05
7.38052e-05
7.43047e-05
7.38577e-05
7.01718e-05
6.52566e-05
5.95592e-05
5.31501e-05
4.6073e-05
3.85137e-05
3.07597e-05
2.34342e-05
1.86171e-05
1.79874e-05
1.7975e-05
1.79739e-05
1.79737e-05
1.79735e-05
1.79735e-05
1.79734e-05
1.79733e-05
1.79733e-05
1.79732e-05
1.79732e-05
1.79732e-05
1.79732e-05
1.79732e-05
1.79732e-05
1.79732e-05
7.01947e-05
7.054e-05
7.09165e-05
7.13004e-05
7.11922e-05
7.11761e-05
7.14152e-05
7.18003e-05
7.22819e-05
7.2588e-05
7.28303e-05
7.32668e-05
7.37701e-05
7.42886e-05
7.40351e-05
7.04749e-05
6.58635e-05
6.03993e-05
5.41904e-05
4.72899e-05
3.99095e-05
3.22508e-05
2.48742e-05
1.9227e-05
1.80034e-05
1.79757e-05
1.7974e-05
1.79737e-05
1.79735e-05
1.79735e-05
1.79734e-05
1.79733e-05
1.79733e-05
1.79732e-05
1.79732e-05
1.79732e-05
1.79732e-05
1.79731e-05
1.79732e-05
1.79732e-05
7.0478e-05
7.08036e-05
7.11582e-05
7.15212e-05
7.14114e-05
7.13854e-05
7.15962e-05
7.19456e-05
7.23927e-05
7.26775e-05
7.29e-05
7.32988e-05
7.37894e-05
7.42625e-05
7.42058e-05
7.07704e-05
6.63422e-05
6.11341e-05
5.51574e-05
4.84449e-05
4.12268e-05
3.36871e-05
2.6307e-05
2.01033e-05
1.80455e-05
1.79768e-05
1.79742e-05
1.79737e-05
1.79735e-05
1.79734e-05
1.79734e-05
1.79733e-05
1.79733e-05
1.79732e-05
1.79732e-05
1.79731e-05
1.79731e-05
1.79731e-05
1.79731e-05
1.79731e-05
7.07474e-05
7.10551e-05
7.13903e-05
7.1735e-05
7.16238e-05
7.15896e-05
7.17752e-05
7.2093e-05
7.2503e-05
7.27691e-05
7.29759e-05
7.33504e-05
7.37958e-05
7.42799e-05
7.43239e-05
7.11105e-05
6.67729e-05
6.17676e-05
5.6023e-05
4.9535e-05
4.2478e-05
3.50641e-05
2.77129e-05
2.11752e-05
1.81525e-05
1.79788e-05
1.79744e-05
1.79737e-05
1.79735e-05
1.79734e-05
1.79734e-05
1.79733e-05
1.79733e-05
1.79732e-05
1.79732e-05
1.79731e-05
1.79731e-05
1.79731e-05
1.79731e-05
1.79731e-05
7.10037e-05
7.12955e-05
7.1614e-05
7.19431e-05
7.18301e-05
7.17887e-05
7.19526e-05
7.22406e-05
7.26197e-05
7.28583e-05
7.30533e-05
7.34091e-05
7.38304e-05
7.42738e-05
7.44141e-05
7.13921e-05
6.72044e-05
6.23414e-05
5.67992e-05
5.05289e-05
4.36619e-05
3.63829e-05
2.90694e-05
2.23464e-05
1.83812e-05
1.79828e-05
1.79746e-05
1.79738e-05
1.79735e-05
1.79734e-05
1.79734e-05
1.79733e-05
1.79733e-05
1.79732e-05
1.79732e-05
1.79731e-05
1.79731e-05
1.7973e-05
1.79731e-05
1.7973e-05
7.12484e-05
7.15266e-05
7.18309e-05
7.21471e-05
7.20315e-05
7.19831e-05
7.21273e-05
7.23903e-05
7.27375e-05
7.29586e-05
7.31267e-05
7.34676e-05
7.38743e-05
7.42921e-05
7.44191e-05
7.16401e-05
6.75949e-05
6.28838e-05
5.75141e-05
5.14412e-05
4.47649e-05
3.76412e-05
3.03787e-05
2.35576e-05
1.8781e-05
1.79913e-05
1.7975e-05
1.79738e-05
1.79736e-05
1.79734e-05
1.79734e-05
1.79733e-05
1.79732e-05
1.79732e-05
1.79732e-05
1.79731e-05
1.79731e-05
1.7973e-05
1.7973e-05
1.7973e-05
7.14831e-05
7.17499e-05
7.20426e-05
7.23482e-05
7.22295e-05
7.21738e-05
7.22993e-05
7.2539e-05
7.28618e-05
7.30583e-05
7.32156e-05
7.35178e-05
7.39131e-05
7.43175e-05
7.44408e-05
7.17666e-05
6.79522e-05
6.33883e-05
5.81832e-05
5.22953e-05
4.57937e-05
3.88313e-05
3.16459e-05
2.47793e-05
1.93868e-05
1.80112e-05
1.79757e-05
1.79739e-05
1.79736e-05
1.79734e-05
1.79733e-05
1.79733e-05
1.79732e-05
1.79732e-05
1.79731e-05
1.79731e-05
1.79731e-05
1.7973e-05
1.7973e-05
1.7973e-05
7.17096e-05
7.19672e-05
7.22507e-05
7.25475e-05
7.24253e-05
7.23623e-05
7.24697e-05
7.26861e-05
7.29846e-05
7.31692e-05
7.33016e-05
7.35928e-05
7.39377e-05
7.43384e-05
7.4464e-05
7.19334e-05
6.82324e-05
6.38551e-05
5.88094e-05
5.30988e-05
4.67625e-05
3.9955e-05
3.28695e-05
2.59936e-05
2.01837e-05
1.80604e-05
1.79769e-05
1.7974e-05
1.79736e-05
1.79734e-05
1.79733e-05
1.79733e-05
1.79732e-05
1.79732e-05
1.79731e-05
1.79731e-05
1.79731e-05
1.7973e-05
1.7973e-05
1.7973e-05
7.19297e-05
7.21802e-05
7.24561e-05
7.27448e-05
7.26198e-05
7.25496e-05
7.26397e-05
7.28333e-05
7.31057e-05
7.32754e-05
7.34031e-05
7.36583e-05
7.40002e-05
7.43428e-05
7.44788e-05
7.20895e-05
6.85059e-05
6.42675e-05
5.93941e-05
5.38547e-05
4.7679e-05
4.10206e-05
3.40444e-05
2.71857e-05
2.11129e-05
1.81713e-05
1.79789e-05
1.79742e-05
1.79736e-05
1.79734e-05
1.79733e-05
1.79733e-05
1.79732e-05
1.79732e-05
1.79731e-05
1.79731e-05
1.79731e-05
1.7973e-05
1.7973e-05
1.79729e-05
7.21451e-05
7.239e-05
7.26591e-05
7.29403e-05
7.28127e-05
7.27365e-05
7.28107e-05
7.29825e-05
7.32287e-05
7.33793e-05
7.34964e-05
7.37489e-05
7.40432e-05
7.4379e-05
7.44734e-05
7.22085e-05
6.87579e-05
6.46543e-05
5.99326e-05
5.45642e-05
4.85466e-05
4.20342e-05
3.51714e-05
2.83386e-05
2.21087e-05
1.83849e-05
1.79828e-05
1.79745e-05
1.79736e-05
1.79734e-05
1.79733e-05
1.79733e-05
1.79732e-05
1.79732e-05
1.79731e-05
1.79731e-05
1.79731e-05
1.7973e-05
1.7973e-05
1.79729e-05
7.2357e-05
7.2597e-05
7.28598e-05
7.31342e-05
7.30041e-05
7.29222e-05
7.2983e-05
7.3135e-05
7.33562e-05
7.34881e-05
7.35869e-05
7.38221e-05
7.41275e-05
7.44019e-05
7.44912e-05
7.22898e-05
6.89808e-05
6.50114e-05
6.04366e-05
5.52271e-05
4.93686e-05
4.29993e-05
3.62539e-05
2.9455e-05
2.31348e-05
1.8733e-05
1.79906e-05
1.79748e-05
1.79737e-05
1.79734e-05
1.79733e-05
1.79732e-05
1.79732e-05
1.79731e-05
1.79731e-05
1.79731e-05
1.79731e-05
1.7973e-05
1.7973e-05
1.79729e-05
7.2566e-05
7.28014e-05
7.30584e-05
7.33254e-05
7.31942e-05
7.3107e-05
7.31543e-05
7.3291e-05
7.34899e-05
7.36016e-05
7.3685e-05
7.389e-05
7.41781e-05
7.44681e-05
7.44949e-05
7.23536e-05
6.91704e-05
6.53385e-05
6.09073e-05
5.58519e-05
5.01506e-05
4.39187e-05
3.72944e-05
3.05418e-05
2.417e-05
1.92415e-05
1.80077e-05
1.79754e-05
1.79738e-05
1.79734e-05
1.79733e-05
1.79732e-05
1.79732e-05
1.79731e-05
1.79731e-05
1.79731e-05
1.7973e-05
1.7973e-05
1.7973e-05
1.79729e-05
7.27722e-05
7.30033e-05
7.32541e-05
7.35133e-05
7.3382e-05
7.32912e-05
7.33259e-05
7.34451e-05
7.36298e-05
7.3724e-05
7.37875e-05
7.39719e-05
7.42158e-05
7.44916e-05
7.45245e-05
7.24172e-05
6.93318e-05
6.56351e-05
6.13458e-05
5.64413e-05
5.0897e-05
4.47965e-05
3.82943e-05
3.1604e-05
2.52041e-05
1.98999e-05
1.80468e-05
1.79764e-05
1.79739e-05
1.79735e-05
1.79733e-05
1.79732e-05
1.79732e-05
1.79731e-05
1.79731e-05
1.79731e-05
1.7973e-05
1.7973e-05
1.7973e-05
1.79729e-05
7.29758e-05
7.32022e-05
7.34462e-05
7.36975e-05
7.35667e-05
7.34733e-05
7.34984e-05
7.36011e-05
7.37642e-05
7.38544e-05
7.3901e-05
7.40565e-05
7.42761e-05
7.44992e-05
7.44884e-05
7.24214e-05
6.94962e-05
6.5905e-05
6.17527e-05
5.69965e-05
5.16083e-05
4.56378e-05
3.9255e-05
3.2639e-05
2.623e-05
2.06696e-05
1.81302e-05
1.79781e-05
1.7974e-05
1.79735e-05
1.79733e-05
1.79732e-05
1.79732e-05
1.79731e-05
1.79731e-05
1.7973e-05
1.7973e-05
1.7973e-05
1.7973e-05
1.79729e-05
7.31762e-05
7.33971e-05
7.36342e-05
7.38773e-05
7.37478e-05
7.36527e-05
7.36689e-05
7.376e-05
7.39035e-05
7.39738e-05
7.4024e-05
7.41601e-05
7.43376e-05
7.45223e-05
7.43783e-05
7.23784e-05
6.95998e-05
6.61565e-05
6.21305e-05
5.75179e-05
5.22834e-05
4.64448e-05
4.01795e-05
3.36441e-05
2.72368e-05
2.15048e-05
1.82868e-05
1.7981e-05
1.79742e-05
1.79735e-05
1.79733e-05
1.79732e-05
1.79732e-05
1.79731e-05
1.79731e-05
1.7973e-05
1.7973e-05
1.7973e-05
1.7973e-05
1.79729e-05
7.33726e-05
7.35879e-05
7.38176e-05
7.40532e-05
7.39247e-05
7.38289e-05
7.38373e-05
7.39157e-05
7.40497e-05
7.41019e-05
7.41314e-05
7.42715e-05
7.44154e-05
7.45361e-05
7.42116e-05
7.23027e-05
6.96548e-05
6.63628e-05
6.24812e-05
5.80072e-05
5.2921e-05
4.72189e-05
4.10697e-05
3.46195e-05
2.82203e-05
2.23765e-05
1.85423e-05
1.79864e-05
1.79745e-05
1.79736e-05
1.79733e-05
1.79732e-05
1.79732e-05
1.79731e-05
1.79731e-05
1.7973e-05
1.7973e-05
1.7973e-05
1.7973e-05
1.79729e-05
7.35646e-05
7.37739e-05
7.39969e-05
7.42273e-05
7.40979e-05
7.40011e-05
7.40036e-05
7.40708e-05
7.41869e-05
7.42373e-05
7.42508e-05
7.43573e-05
7.45005e-05
7.45699e-05
7.40504e-05
7.21964e-05
6.96608e-05
6.65258e-05
6.27941e-05
5.84645e-05
5.35242e-05
4.79646e-05
4.19268e-05
3.55662e-05
2.91842e-05
2.32662e-05
1.89189e-05
1.79971e-05
1.7975e-05
1.79736e-05
1.79734e-05
1.79732e-05
1.79732e-05
1.79731e-05
1.7973e-05
1.7973e-05
1.7973e-05
1.79729e-05
1.7973e-05
1.79729e-05
7.37519e-05
7.39556e-05
7.41738e-05
7.44075e-05
7.42698e-05
7.41699e-05
7.41655e-05
7.42257e-05
7.43263e-05
7.43603e-05
7.4377e-05
7.44583e-05
7.45727e-05
7.46006e-05
7.38917e-05
7.20737e-05
6.96409e-05
6.66486e-05
6.30658e-05
5.88849e-05
5.40924e-05
4.86788e-05
4.27525e-05
3.64846e-05
3.01321e-05
2.41633e-05
1.94226e-05
1.80201e-05
1.79757e-05
1.79737e-05
1.79734e-05
1.79732e-05
1.79732e-05
1.79731e-05
1.7973e-05
1.7973e-05
1.7973e-05
1.79729e-05
1.7973e-05
1.79729e-05
7.39347e-05
7.41345e-05
7.43542e-05
7.4577e-05
7.445e-05
7.43383e-05
7.43253e-05
7.43735e-05
7.44663e-05
7.44862e-05
7.44849e-05
7.45589e-05
7.46407e-05
7.4617e-05
7.37101e-05
7.19545e-05
6.96048e-05
6.67356e-05
6.32976e-05
5.92653e-05
5.46226e-05
4.93584e-05
4.3547e-05
3.73747e-05
3.10647e-05
2.50618e-05
2.00345e-05
1.80683e-05
1.79768e-05
1.79739e-05
1.79734e-05
1.79733e-05
1.79732e-05
1.79731e-05
1.7973e-05
1.7973e-05
1.7973e-05
1.79729e-05
1.79729e-05
1.79729e-05
7.41146e-05
7.43154e-05
7.45279e-05
7.47387e-05
7.46156e-05
7.4519e-05
7.4485e-05
7.45184e-05
7.45931e-05
7.46055e-05
7.46001e-05
7.46389e-05
7.46776e-05
7.45587e-05
7.35004e-05
7.18104e-05
6.95717e-05
6.67949e-05
6.34931e-05
5.96061e-05
5.51124e-05
4.99984e-05
4.43086e-05
3.82356e-05
3.19782e-05
2.59561e-05
2.07227e-05
1.81609e-05
1.79786e-05
1.7974e-05
1.79735e-05
1.79733e-05
1.79732e-05
1.79731e-05
1.7973e-05
1.7973e-05
1.7973e-05
1.79729e-05
1.79729e-05
1.79729e-05
7.42958e-05
7.44914e-05
7.46951e-05
7.49031e-05
7.47712e-05
7.46775e-05
7.46694e-05
7.46627e-05
7.47086e-05
7.47096e-05
7.46982e-05
7.47252e-05
7.46805e-05
7.43193e-05
7.32329e-05
7.16477e-05
6.95043e-05
6.68402e-05
6.36562e-05
5.99095e-05
5.55622e-05
5.05969e-05
4.50381e-05
3.90661e-05
3.28697e-05
2.68357e-05
2.14578e-05
1.83196e-05
1.79817e-05
1.79742e-05
1.79735e-05
1.79733e-05
1.79732e-05
1.79731e-05
1.7973e-05
1.7973e-05
1.7973e-05
1.79729e-05
1.79729e-05
1.79729e-05
7.44729e-05
7.4662e-05
7.48646e-05
7.49624e-05
7.49199e-05
7.4822e-05
7.47978e-05
7.48481e-05
7.48111e-05
7.47723e-05
7.47716e-05
7.47379e-05
7.46456e-05
7.4001e-05
7.29539e-05
7.13976e-05
6.93917e-05
6.68568e-05
6.3793e-05
6.01776e-05
5.59735e-05
5.11557e-05
4.5736e-05
3.98654e-05
3.37373e-05
2.76998e-05
2.22212e-05
1.85622e-05
1.79873e-05
1.79745e-05
1.79736e-05
1.79733e-05
1.79732e-05
1.79731e-05
1.7973e-05
1.7973e-05
1.79729e-05
1.79729e-05
1.79729e-05
1.79728e-05
7.46451e-05
7.48337e-05
7.49865e-05
7.44205e-05
7.48786e-05
7.49393e-05
7.48971e-05
7.48835e-05
7.48633e-05
7.47384e-05
7.47617e-05
7.46825e-05
7.43365e-05
7.36842e-05
7.26143e-05
7.11754e-05
6.9234e-05
6.68338e-05
6.3899e-05
6.04128e-05
5.63474e-05
5.16755e-05
4.63985e-05
4.06337e-05
3.458e-05
2.855e-05
2.29994e-05
1.89067e-05
1.79979e-05
1.7975e-05
1.79736e-05
1.79734e-05
1.79732e-05
1.79731e-05
1.79731e-05
1.7973e-05
1.79729e-05
1.79729e-05
1.79729e-05
1.79728e-05
7.48178e-05
7.49782e-05
7.45952e-05
7.3697e-05
7.42771e-05
7.47033e-05
7.48159e-05
7.4726e-05
7.45183e-05
7.44615e-05
7.45389e-05
7.43391e-05
7.39458e-05
7.32916e-05
7.22862e-05
7.08799e-05
6.90691e-05
6.67698e-05
6.39677e-05
6.06135e-05
5.66844e-05
5.21561e-05
4.70237e-05
4.13693e-05
3.5397e-05
2.93874e-05
2.37846e-05
1.93535e-05
1.80197e-05
1.79756e-05
1.79737e-05
1.79734e-05
1.79732e-05
1.79731e-05
1.79731e-05
1.7973e-05
1.79729e-05
1.79729e-05
1.79729e-05
1.79728e-05
7.49696e-05
7.4722e-05
7.38803e-05
7.2953e-05
7.3552e-05
7.4042e-05
7.42014e-05
7.41753e-05
7.39486e-05
7.39675e-05
7.40677e-05
7.38902e-05
7.34893e-05
7.28443e-05
7.19235e-05
7.05864e-05
6.88583e-05
6.66811e-05
6.39974e-05
6.07765e-05
5.69839e-05
5.25974e-05
4.76075e-05
4.20716e-05
3.61869e-05
3.0211e-05
2.4572e-05
1.98872e-05
1.80628e-05
1.79766e-05
1.79738e-05
1.79734e-05
1.79733e-05
1.79732e-05
1.79731e-05
1.7973e-05
1.7973e-05
1.79729e-05
1.79729e-05
1.79728e-05
7.47858e-05
7.40119e-05
7.31282e-05
7.22133e-05
7.28143e-05
7.33158e-05
7.35075e-05
7.35044e-05
7.33432e-05
7.33703e-05
7.35179e-05
7.33487e-05
7.30054e-05
7.23882e-05
7.15017e-05
7.02736e-05
6.86298e-05
6.65558e-05
6.39945e-05
6.0901e-05
5.72445e-05
5.29991e-05
4.81511e-05
4.27448e-05
3.69487e-05
3.10171e-05
2.53557e-05
2.04837e-05
1.8142e-05
1.79782e-05
1.7974e-05
1.79735e-05
1.79733e-05
1.79732e-05
1.79731e-05
1.7973e-05
1.7973e-05
1.79729e-05
1.79729e-05
1.79728e-05
7.40786e-05
7.32572e-05
7.23808e-05
7.14783e-05
7.20807e-05
7.25882e-05
7.2797e-05
7.28078e-05
7.26795e-05
7.27596e-05
7.29152e-05
7.27965e-05
7.2465e-05
7.19182e-05
7.10776e-05
6.99207e-05
6.83797e-05
6.64036e-05
6.39565e-05
6.09894e-05
5.74661e-05
5.33608e-05
4.8655e-05
4.33845e-05
3.76822e-05
3.18029e-05
2.61276e-05
2.11202e-05
1.82735e-05
1.79808e-05
1.79742e-05
1.79735e-05
1.79733e-05
1.79732e-05
1.79731e-05
1.7973e-05
1.7973e-05
1.79729e-05
1.79729e-05
1.79728e-05
7.33227e-05
7.25046e-05
7.1638e-05
7.07485e-05
7.13518e-05
7.18644e-05
7.20904e-05
7.21211e-05
7.20161e-05
7.21198e-05
7.23097e-05
7.22044e-05
7.19261e-05
7.14147e-05
7.06436e-05
6.95519e-05
6.80985e-05
6.62256e-05
6.38873e-05
6.1042e-05
5.765e-05
5.36827e-05
4.91188e-05
4.39871e-05
3.83859e-05
3.25667e-05
2.68855e-05
2.1782e-05
1.8471e-05
1.79853e-05
1.79744e-05
1.79736e-05
1.79734e-05
1.79732e-05
1.79731e-05
1.79731e-05
1.7973e-05
1.79729e-05
1.79729e-05
1.79728e-05
7.25676e-05
7.17563e-05
7.09006e-05
7.00249e-05
7.06281e-05
7.11456e-05
7.13882e-05
7.14408e-05
7.13606e-05
7.14804e-05
7.16894e-05
7.1619e-05
7.13682e-05
7.09088e-05
7.01893e-05
6.91698e-05
6.77958e-05
6.60193e-05
6.3789e-05
6.10613e-05
5.77973e-05
5.39658e-05
4.95422e-05
4.45498e-05
3.90579e-05
3.33074e-05
2.76301e-05
2.24571e-05
1.87494e-05
1.79934e-05
1.79748e-05
1.79736e-05
1.79734e-05
1.79733e-05
1.79732e-05
1.79731e-05
1.7973e-05
1.79729e-05
1.79729e-05
1.79728e-05
7.18166e-05
7.10137e-05
7.01696e-05
6.93087e-05
6.99103e-05
7.04318e-05
7.06908e-05
7.07658e-05
7.07115e-05
7.08469e-05
7.10686e-05
7.1027e-05
7.0812e-05
7.03911e-05
6.97269e-05
6.87705e-05
6.74753e-05
6.57888e-05
6.36622e-05
6.10493e-05
5.791e-05
5.42116e-05
4.99264e-05
4.50707e-05
3.96975e-05
3.40236e-05
2.83621e-05
2.31381e-05
1.91117e-05
1.80089e-05
1.79753e-05
1.79737e-05
1.79734e-05
1.79733e-05
1.79732e-05
1.79731e-05
1.7973e-05
1.7973e-05
1.7973e-05
1.79729e-05
7.10714e-05
7.02775e-05
6.94463e-05
6.86019e-05
6.91996e-05
6.97235e-05
6.99978e-05
7.00952e-05
7.00672e-05
7.0219e-05
7.04522e-05
7.04336e-05
7.02518e-05
6.98711e-05
6.92547e-05
6.83597e-05
6.71372e-05
6.55374e-05
6.35097e-05
6.10077e-05
5.79899e-05
5.44219e-05
5.0273e-05
4.55526e-05
4.03065e-05
3.47142e-05
2.90813e-05
2.38207e-05
1.95488e-05
1.80387e-05
1.79761e-05
1.79738e-05
1.79735e-05
1.79733e-05
1.79732e-05