/*--------------------------------*- C++ -*----------------------------------*\
| =========                 |                                                 |
| \\      /  F ield         | OpenFOAM: The Open Source CFD Toolbox           |
|  \\    /   O peration     | Version:  1.6.x                                 |
|   \\  /    A nd           | Web:      www.OpenFOAM.org                      |
|    \\/     M anipulation  |                                                 |
\*---------------------------------------------------------------------------*/
FoamFile
{
    version     2.0;
    format      ascii;
    class       volScalarField;
    location    "2";
    object      N2;
}
// * * * * * * * * * * * * * * * * * * * * * * * * * * * * * * * * * * * * * //

dimensions      [0 0 0 0 0 0 0];

internalField   nonuniform List<scalar> 
4608
(
0.647304
0.6473
0.647301
0.649567
0.6473
0.6473
0.6473
0.647416
0.650695
0.660907
0.6473
0.6473
0.6473
0.6473
0.647306
0.647577
0.651436
0.660404
0.691796
0.6473
0.6473
0.6473
0.6473
0.647301
0.647322
0.647769
0.651942
0.659685
0.682721
0.741236
0.724622
0.6473
0.6473
0.6473
0.6473
0.647303
0.647347
0.647981
0.652353
0.659034
0.678463
0.710907
0.741806
0.741993
0.7392
0.6473
0.6473
0.6473
0.6473
0.647306
0.647382
0.648207
0.652731
0.658763
0.675692
0.7037
0.733153
0.741962
0.741997
0.742
0.746673
0.6473
0.6473
0.6473
0.6473
0.647313
0.647428
0.648441
0.653091
0.658743
0.673794
0.698689
0.726113
0.746099
0.742051
0.741999
0.742
0.742
0.756335
0.6473
0.6473
0.6473
0.6473
0.647323
0.647485
0.648679
0.653426
0.658828
0.672573
0.695268
0.719719
0.743574
0.754261
0.742
0.742
0.742
0.742
0.762992
0.6473
0.6473
0.6473
0.6473
0.647337
0.647551
0.648918
0.653755
0.658912
0.671676
0.692738
0.715521
0.738533
0.75211
0.75969
0.742
0.742
0.742
0.742
0.767795
0.6473
0.6473
0.6473
0.6473
0.647356
0.647626
0.649157
0.654074
0.659094
0.670942
0.690672
0.711429
0.73338
0.747716
0.757399
0.76489
0.742
0.742
0.742
0.742
0.769636
0.6473
0.6473
0.6473
0.6473
0.64738
0.647709
0.649396
0.654397
0.65928
0.670452
0.689118
0.708076
0.729036
0.742832
0.753742
0.762837
0.768237
0.742
0.742
0.742
0.742
0.769965
0.6473
0.6473
0.6473
0.6473
0.64741
0.6478
0.649642
0.654741
0.659476
0.670113
0.687486
0.705225
0.724754
0.738464
0.749205
0.760066
0.766786
0.769701
0.742
0.742
0.742
0.742
0.769995
0.6473
0.6473
0.6473
0.6473
0.647445
0.6479
0.649901
0.65512
0.65971
0.669885
0.686311
0.703242
0.720033
0.734328
0.744982
0.756459
0.764893
0.769157
0.769974
0.742
0.742
0.742
0.742
0.769999
0.6473
0.6473
0.6473
0.6473
0.647487
0.64801
0.650183
0.655515
0.659998
0.669764
0.685655
0.701504
0.718463
0.729917
0.741006
0.752718
0.762209
0.768217
0.769907
0.769996
0.742
0.742
0.742
0.742
0.77
0.6473
0.6473
0.6473
0.6473
0.647536
0.648132
0.650491
0.655944
0.660235
0.669707
0.684979
0.700072
0.716016
0.727258
0.736918
0.749018
0.759183
0.766513
0.769722
0.769991
0.769999
0.742
0.742
0.742
0.742
0.77
0.6473
0.6473
0.6473
0.6473
0.647592
0.648269
0.650831
0.656413
0.660573
0.669405
0.68415
0.698825
0.713865
0.724556
0.733788
0.745224
0.75604
0.764246
0.769144
0.769978
0.769998
0.77
0.742
0.742
0.742
0.742
0.77
0.6473
0.6473
0.6473
0.6473
0.647657
0.648423
0.651204
0.656917
0.660978
0.669446
0.683626
0.697696
0.71179
0.722143
0.730906
0.742039
0.752671
0.761677
0.76788
0.769921
0.769997
0.769999
0.77
0.742
0.742
0.742
0.742
0.77
0.6473
0.6473
0.6473
0.6473
0.647732
0.648597
0.651611
0.657433
0.661423
0.669582
0.683041
0.696149
0.710241
0.719874
0.728292
0.739113
0.749625
0.758961
0.76603
0.769656
0.769993
0.769999
0.77
0.77
0.742
0.742
0.742
0.742
0.77
0.6473
0.6473
0.6473
0.6473
0.647817
0.648793
0.652047
0.657943
0.661868
0.669731
0.682351
0.69497
0.7069
0.718023
0.725828
0.736421
0.746792
0.756259
0.763846
0.768899
0.769978
0.769998
0.77
0.77
0.77
0.742
0.742
0.742
0.742
0.77
0.6473
0.6473
0.6473
0.6473
0.647914
0.649013
0.652502
0.658455
0.662309
0.669825
0.681965
0.694059
0.705519
0.712108
0.723561
0.733865
0.744129
0.753627
0.761583
0.767469
0.769892
0.769997
0.769999
0.77
0.77
0.77
0.742
0.742
0.742
0.742
0.77
0.6473
0.6473
0.6473
0.648025
0.64926
0.652967
0.658948
0.662759
0.669772
0.681669
0.693378
0.704543
0.711832
0.715379
0.731328
0.741609
0.751093
0.759338
0.765714
0.769498
0.769993
0.769999
0.77
0.77
0.77
0.77
0.742
0.742
0.742
0.742
0.77
0.6473
0.6473
0.648152
0.649536
0.653409
0.658092
0.662988
0.669937
0.68139
0.6928
0.703743
0.710865
0.716804
0.725824
0.739057
0.74868
0.757108
0.763845
0.76859
0.769968
0.769999
0.77
0.77
0.77
0.77
0.77
0.742
0.742
0.742
0.742
0.77
0.6473
0.648298
0.649839
0.653714
0.658764
0.66117
0.66969
0.681251
0.692308
0.703039
0.710033
0.715695
0.724477
0.735102
0.746248
0.754934
0.761971
0.767272
0.769824
0.769997
0.77
0.77
0.77
0.77
0.77
0.77
0.742
0.742
0.742
0.742
0.77
0.648465
0.650138
0.654029
0.659296
0.661936
0.665618
0.680454
0.691776
0.70233
0.709223
0.7149
0.72303
0.732809
0.743162
0.752687
0.760106
0.765775
0.76937
0.769991
0.769999
0.77
0.77
0.77
0.77
0.77
0.77
0.742
0.742
0.742
0.742
0.77
0.64865
0.650426
0.654419
0.659987
0.662819
0.667408
0.678627
0.690893
0.701566
0.708407
0.713952
0.721682
0.730951
0.740707
0.750149
0.758185
0.764223
0.768502
0.769956
0.769999
0.77
0.77
0.77
0.77
0.77
0.77
0.77
0.742
0.742
0.742
0.77
0.64885
0.650737
0.654995
0.660657
0.663764
0.668821
0.678442
0.689615
0.700548
0.707452
0.712998
0.720585
0.72928
0.738652
0.747837
0.756114
0.762639
0.767382
0.769791
0.769997
0.77
0.77
0.77
0.77
0.77
0.77
0.77
0.77
0.742
0.742
0.77
0.649068
0.651116
0.655782
0.660428
0.664404
0.670147
0.678936
0.688877
0.699341
0.706316
0.711889
0.719857
0.727835
0.7368
0.745771
0.754079
0.760965
0.76613
0.76937
0.76999
0.769999
0.77
0.77
0.77
0.77
0.77
0.77
0.77
0.77
0.742
0.77
0.649314
0.651609
0.654962
0.658391
0.663588
0.670936
0.679524
0.688678
0.698036
0.705007
0.710683
0.718452
0.726452
0.735176
0.743879
0.752141
0.759264
0.764789
0.768633
0.769956
0.769999
0.77
0.77
0.77
0.77
0.77
0.77
0.77
0.77
0.77
0.77
0.649607
0.651949
0.654335
0.658404
0.663408
0.670946
0.679895
0.688707
0.697332
0.702997
0.709276
0.716926
0.724942
0.733594
0.742152
0.750311
0.757585
0.763419
0.767691
0.769816
0.769997
0.77
0.77
0.77
0.77
0.77
0.77
0.77
0.77
0.77
0.77
0.77
0.649942
0.652431
0.655175
0.660842
0.663521
0.671002
0.68009
0.688738
0.697048
0.702128
0.706593
0.715214
0.723438
0.731975
0.740497
0.74859
0.755948
0.762035
0.766639
0.769478
0.769992
0.769999
0.77
0.77
0.77
0.77
0.77
0.77
0.77
0.77
0.77
0.77
0.77
0.650357
0.653134
0.656631
0.663259
0.664979
0.671191
0.680332
0.688778
0.696893
0.70184
0.705671
0.711012
0.721641
0.730449
0.738899
0.746939
0.75436
0.760641
0.765529
0.768892
0.769967
0.769999
0.77
0.77
0.77
0.77
0.77
0.77
0.77
0.77
0.77
0.77
0.77
0.77
0.65091
0.654262
0.657947
0.664386
0.666879
0.671738
0.680592
0.688929
0.696801
0.701663
0.705414
0.710544
0.714939
0.728541
0.73729
0.745353
0.752781
0.759255
0.764397
0.768134
0.769874
0.769998
0.77
0.77
0.77
0.77
0.77
0.77
0.77
0.77
0.77
0.77
0.77
0.77
0.77
0.65168
0.654002
0.657391
0.666052
0.668125
0.672759
0.680866
0.689127
0.696821
0.701524
0.705235
0.710551
0.716459
0.724379
0.735468
0.743765
0.751252
0.757866
0.763252
0.767281
0.769641
0.769994
0.769999
0.77
0.77
0.77
0.77
0.77
0.77
0.77
0.77
0.77
0.77
0.77
0.77
0.77
0.652437
0.654473
0.659902
0.668132
0.669638
0.673854
0.681334
0.689274
0.696901
0.701476
0.705066
0.710328
0.716475
0.723618
0.732655
0.742061
0.749737
0.756491
0.762081
0.766371
0.769222
0.769981
0.769999
0.77
0.77
0.77
0.77
0.77
0.77
0.77
0.77
0.77
0.77
0.77
0.77
0.77
0.77
0.654092
0.652873
0.662516
0.670359
0.671452
0.675053
0.682022
0.68941
0.696913
0.70147
0.704947
0.710079
0.715919
0.722997
0.731158
0.739962
0.748155
0.755099
0.760899
0.765424
0.768639
0.769932
0.769998
0.769999
0.77
0.77
0.77
0.77
0.77
0.77
0.77
0.77
0.77
0.77
0.77
0.77
0.77
0.77
0.653311
0.656669
0.665438
0.672742
0.673383
0.676443
0.68284
0.689722
0.696687
0.701373
0.704859
0.709881
0.71557
0.722314
0.730073
0.738341
0.746446
0.753656
0.759702
0.76446
0.767958
0.7698
0.769995
0.769999
0.77
0.77
0.77
0.77
0.77
0.77
0.77
0.77
0.77
0.77
0.77
0.77
0.77
0.77
0.77
0.650752
0.660581
0.668534
0.675247
0.675445
0.677943
0.683799
0.690197
0.696665
0.700794
0.704675
0.709667
0.715277
0.721717
0.729141
0.737029
0.744912
0.752195
0.758469
0.763474
0.767215
0.769541
0.769989
0.769998
0.769999
0.77
0.77
0.77
0.77
0.77
0.77
0.77
0.77
0.77
0.77
0.77
0.77
0.77
0.77
0.77
0.657059
0.664728
0.671702
0.677817
0.677631
0.679551
0.684858
0.690822
0.696875
0.70061
0.703781
0.709336
0.714902
0.721031
0.728264
0.735892
0.743547
0.75081
0.757224
0.762452
0.766429
0.769131
0.76997
0.769997
0.769999
0.77
0.77
0.77
0.77
0.77
0.77
0.77
0.77
0.77
0.77
0.77
0.77
0.77
0.77
0.77
0.662357
0.668693
0.67483
0.680381
0.679903
0.681284
0.686007
0.691553
0.697259
0.700727
0.703489
0.707746
0.714393
0.720613
0.727447
0.734846
0.742313
0.749497
0.756003
0.761413
0.765613
0.768608
0.769911
0.769995
0.769998
0.769999
0.77
0.77
0.77
0.77
0.77
0.77
0.77
0.77
0.77
0.77
0.77
0.77
0.77
0.77
0.666985
0.672414
0.677847
0.682885
0.682203
0.683125
0.687259
0.692376
0.697754
0.70102
0.70355
0.707427
0.711612
0.719883
0.72676
0.733899
0.741179
0.748267
0.754812
0.760375
0.764781
0.768015
0.769778
0.769992
0.769997
0.769999
0.77
0.77
0.77
0.77
0.77
0.77
0.77
0.77
0.77
0.77
0.77
0.77
0.77
0.77
0.671112
0.675862
0.680714
0.685293
0.68448
0.685037
0.688612
0.693293
0.698352
0.701415
0.703782
0.707495
0.711599
0.715281
0.725932
0.733077
0.740142
0.747111
0.753653
0.759341
0.763937
0.767378
0.769538
0.769984
0.769996
0.769998
0.769999
0.77
0.77
0.77
0.77
0.77
0.77
0.77
0.77
0.77
0.77
0.77
0.77
0.77
0.674822
0.679049
0.683414
0.687587
0.686698
0.686976
0.690044
0.694293
0.69903
0.701918
0.704111
0.70767
0.711798
0.716425
0.723235
0.732131
0.739215
0.746042
0.752538
0.758318
0.763079
0.766711
0.769184
0.769964
0.769993
0.769997
0.769999
0.769999
0.77
0.77
0.77
0.77
0.77
0.77
0.77
0.77
0.77
0.77
0.77
0.77
0.678192
0.681994
0.685944
0.689757
0.688831
0.688905
0.691531
0.695361
0.699776
0.70248
0.704553
0.707943
0.711877
0.716811
0.722848
0.730361
0.738242
0.745056
0.751485
0.757316
0.762214
0.766027
0.768744
0.769914
0.769991
0.769995
0.769998
0.769999
0.77
0.77
0.77
0.77
0.77
0.77
0.77
0.77
0.77
0.77
0.77
0.77
0.681271
0.684715
0.688307
0.691805
0.690866
0.690793
0.693043
0.696482
0.700567
0.703103
0.705033
0.70833
0.712228
0.716682
0.722715
0.729433
0.736916
0.744068
0.750493
0.756344
0.761351
0.765332
0.768252
0.769806
0.769986
0.769993
0.769996
0.769998
0.769999
0.77
0.77
0.77
0.77
0.77
0.77
0.77
0.77
0.77
0.77
0.77
0.684094
0.687231
0.690513
0.693736
0.6928
0.692622
0.694556
0.697639
0.701401
0.70375
0.705571
0.708686
0.712592
0.717314
0.722667
0.728966
0.735908
0.742957
0.749512
0.755408
0.760498
0.764628
0.767724
0.769622
0.769979
0.769991
0.769995
0.769998
0.769999
0.77
0.77
0.77
0.77
0.77
0.77
0.77
0.77
0.77
0.77
0.77
0.68669
0.689561
0.692576
0.695561
0.694634
0.69438
0.696049
0.698816
0.702272
0.704437
0.706116
0.709123
0.712756
0.717488
0.722564
0.728649
0.735187
0.741957
0.748509
0.754488
0.759658
0.763916
0.76717
0.769348
0.769965
0.769988
0.769993
0.769996
0.769998
0.769999
0.77
0.77
0.77
0.77
0.77
0.77
0.77
0.77
0.77
0.77
0.689084
0.691726
0.694512
0.697296
0.696378
0.696066
0.697512
0.699993
0.70317
0.705158
0.706698
0.709519
0.713108
0.717198
0.722501
0.728332
0.734626
0.741115
0.747554
0.753564
0.758827
0.763202
0.766598
0.768999
0.769932
0.769985
0.769991
0.769995
0.769998
0.769999
0.77
0.77
0.77
0.77
0.77
0.77
0.77
0.77
0.77
0.77
0.691301
0.693747
0.69634
0.698957
0.698043
0.697683
0.698937
0.701166
0.704067
0.705912
0.707313
0.709959
0.713319
0.717623
0.722326
0.72799
0.734083
0.740396
0.746681
0.752672
0.758001
0.762486
0.76602
0.7686
0.769863
0.769981
0.769988
0.769993
0.769996
0.769999
0.77
0.77
0.77
0.77
0.77
0.77
0.77
0.77
0.77
0.77
0.693364
0.695645
0.69808
0.700561
0.699646
0.699239
0.700327
0.70233
0.704985
0.706648
0.707968
0.710435
0.713597
0.717471
0.722381
0.727683
0.733588
0.739729
0.745888
0.751821
0.757189
0.761769
0.765437
0.768169
0.769742
0.769975
0.769985
0.769991
0.769995
0.769998
0.769999
0.77
0.77
0.77
0.77
0.77
0.77
0.77
0.77
0.77
0.695298
0.697444
0.699751
0.702119
0.701199
0.700749
0.701685
0.703485
0.705905
0.707427
0.708585
0.710974
0.713927
0.7176
0.722275
0.727518
0.73316
0.739129
0.745148
0.75101
0.756398
0.761057
0.764846
0.767716
0.769553
0.769966
0.769982
0.769989
0.769994
0.769997
0.769999
0.77
0.77
0.77
0.77
0.77
0.77
0.77
0.77
0.77
0.697126
0.699164
0.701366
0.703637
0.702711
0.702223
0.703025
0.704637
0.706845
0.708205
0.709266
0.711408
0.714387
0.717785
0.722268
0.727319
0.732845
0.738584
0.744465
0.75024
0.75563
0.760353
0.764249
0.767245
0.769298
0.769949
0.769979
0.769986
0.769992
0.769996
0.769998
0.769999
0.77
0.77
0.77
0.77
0.77
0.77
0.77
0.77
0.698872
0.700822
0.702937
0.705125
0.70419
0.703664
0.704349
0.705797
0.707805
0.709026
0.709936
0.711974
0.714565
0.718294
0.722294
0.72721
0.732517
0.738112
0.743832
0.749513
0.754886
0.759658
0.76365
0.766763
0.768991
0.769913
0.769975
0.769983
0.76999
0.769994
0.769998
0.769999
0.77
0.77
0.77
0.77
0.77
0.77
0.77
0.77
0.700551
0.70243
0.704471
0.706588
0.705642
0.705079
0.705656
0.70696
0.708799
0.709882
0.710675
0.712478
0.715059
0.718203
0.722415
0.727078
0.732231
0.737667
0.743253
0.748828
0.75417
0.758974
0.76305
0.766277
0.768649
0.769846
0.76997
0.76998
0.769987
0.769993
0.769997
0.769999
0.77
0.77
0.77
0.77
0.77
0.77
0.77
0.77
0.702177
0.703997
0.705975
0.708027
0.707073
0.706475
0.706948
0.708115
0.709805
0.710777
0.711458
0.71313
0.715321
0.718743
0.722425
0.726985
0.731971
0.737257
0.742709
0.748185
0.753481
0.758304
0.762451
0.765786
0.768284
0.769738
0.769963
0.769977
0.769985
0.769991
0.769996
0.769998
0.769999
0.77
0.77
0.77
0.77
0.77
0.77
0.77
0.703761
0.705531
0.707452
0.709444
0.708482
0.707854
0.708232
0.709266
0.710803
0.711687
0.712282
0.713832
0.715936
0.718551
0.722578
0.726943
0.731737
0.736873
0.742199
0.747574
0.752818
0.757649
0.761855
0.76529
0.767902
0.769577
0.769954
0.769973
0.769982
0.769989
0.769994
0.769998
0.769999
0.77
0.77
0.77
0.77
0.77
0.77
0.77
0.705309
0.707035
0.708903
0.710838
0.709873
0.709217
0.709512
0.710427
0.711808
0.712585
0.713123
0.714573
0.716554
0.719212
0.722596
0.726863
0.731538
0.736519
0.741719
0.746994
0.752176
0.757009
0.761263
0.764786
0.767505
0.769364
0.769939
0.769968
0.769979
0.769987
0.769993
0.769997
0.769999
0.77
0.77
0.77
0.77
0.77
0.77
0.77
0.706826
0.70851
0.710328
0.712206
0.711242
0.710564
0.71078
0.711592
0.712851
0.713491
0.713946
0.715313
0.717219
0.719642
0.722861
0.726819
0.731309
0.736192
0.741266
0.74644
0.751555
0.756384
0.760676
0.764278
0.767097
0.769109
0.76991
0.769964
0.769975
0.769985
0.769992
0.769996
0.769999
0.77
0.77
0.77
0.77
0.77
0.77
0.77
0.708314
0.709958
0.711725
0.713551
0.712587
0.711894
0.712042
0.712748
0.7139
0.714477
0.714774
0.716011
0.717849
0.720231
0.723183
0.726861
0.731166
0.735872
0.740839
0.745912
0.750956
0.755772
0.760096
0.763768
0.766683
0.768823
0.769859
0.769959
0.769972
0.769982
0.76999
0.769995
0.769998
0.769999
0.77
0.77
0.77
0.77
0.77
0.77
0.709772
0.711375
0.713096
0.714868
0.713912
0.713203
0.713294
0.713914
0.71492
0.715452
0.715725
0.716711
0.718456
0.720691
0.723599
0.727014
0.731088
0.735608
0.740433
0.745409
0.750381
0.755174
0.759523
0.763258
0.766264
0.768516
0.769776
0.769952
0.769968
0.769979
0.769988
0.769994
0.769998
0.769999
0.77
0.77
0.77
0.77
0.77
0.77
0.7112
0.712765
0.714438
0.716155
0.715209
0.714495
0.714529
0.715076
0.715992
0.716377
0.716639
0.717631
0.718944
0.721141
0.723926
0.727316
0.73108
0.735396
0.740067
0.744931
0.749829
0.754588
0.758957
0.762747
0.76584
0.768192
0.769655
0.769944
0.769963
0.769976
0.769986
0.769993
0.769997
0.769999
0.77
0.77
0.77
0.77
0.77
0.77
0.712598
0.714124
0.715747
0.717355
0.716478
0.715762
0.715757
0.716216
0.717061
0.717399
0.717483
0.718446
0.719869
0.721643
0.72427
0.727464
0.731119
0.735232
0.739743
0.744486
0.7493
0.754015
0.758398
0.762238
0.76541
0.767856
0.769491
0.769932
0.769959
0.769972
0.769983
0.769991
0.769996
0.769999
0.77
0.77
0.77
0.77
0.77
0.77
0.713966
0.71545
0.716984
0.718578
0.717647
0.717001
0.716958
0.717375
0.718116
0.718397
0.718478
0.719185
0.720573
0.7223
0.724628
0.727635
0.731164
0.735115
0.739463
0.744077
0.748798
0.75346
0.757848
0.76173
0.764975
0.767509
0.769288
0.769913
0.769954
0.769969
0.769981
0.76999
0.769995
0.769998
0.77
0.77
0.77
0.77
0.77
0.77
0.715301
0.716711
0.718219
0.719833
0.718865
0.71812
0.718141
0.718509
0.719194
0.719424
0.719413
0.720133
0.721233
0.722988
0.725078
0.727835
0.7312
0.735034
0.739225
0.743705
0.748328
0.752926
0.75731
0.761226
0.764537
0.767153
0.769055
0.76988
0.769948
0.769964
0.769978
0.769988
0.769994
0.769998
0.769999
0.77
0.77
0.77
0.77
0.77
0.716573
0.717959
0.719478
0.721031
0.720124
0.719332
0.719129
0.719615
0.720315
0.720439
0.720405
0.721006
0.722039
0.723526
0.725621
0.728117
0.73129
0.734968
0.739025
0.743371
0.74789
0.75242
0.756784
0.760728
0.764096
0.766793
0.7688
0.769825
0.769942
0.76996
0.769975
0.769986
0.769993
0.769997
0.769999
0.77
0.77
0.77
0.77
0.77
0.717828
0.719222
0.72071
0.722341
0.721324
0.720595
0.720387
0.72039
0.721301
0.72146
0.721371
0.721906
0.722821
0.724199
0.726102
0.728507
0.731448
0.734941
0.738856
0.743074
0.747484
0.75194
0.756269
0.760235
0.763656
0.76643
0.768529
0.769745
0.769935
0.769955
0.769971
0.769984
0.769992
0.769997
0.769999
0.77
0.77
0.77
0.77
0.77
0.719093
0.720471
0.722018
0.723484
0.722585
0.72179
0.721584
0.721703
0.722191
0.722417
0.722343
0.722791
0.723612
0.724857
0.726615
0.728836
0.731666
0.734969
0.738723
0.742811
0.747112
0.751487
0.755772
0.759751
0.763217
0.766062
0.768245
0.76963
0.769925
0.76995
0.769967
0.769981
0.769991
0.769996
0.769999
0.77
0.77
0.77
0.77
0.77
0.720347
0.721778
0.723178
0.724652
0.723732
0.722983
0.722719
0.722853
0.723237
0.723299
0.723256
0.723668
0.724398
0.725575
0.727142
0.729283
0.7319
0.73505
0.738635
0.742585
0.746773
0.751062
0.755294
0.759276
0.762781
0.765691
0.767951
0.769482
0.769912
0.769945
0.769963
0.769978
0.769989
0.769996
0.769999
0.77
0.77
0.77
0.77
0.77
0.721655
0.722956
0.724353
0.725809
0.724884
0.724117
0.723856
0.723913
0.724284
0.724265
0.724136
0.72453
0.725242
0.726228
0.727704
0.729704
0.732193
0.735164
0.738596
0.7424
0.746469
0.750667
0.75484
0.758812
0.762348
0.765316
0.767649
0.769302
0.769892
0.769939
0.769959
0.769975
0.769987
0.769995
0.769998
0.77
0.77
0.77
0.77
0.77
0.722842
0.724139
0.72553
0.726948
0.726028
0.725262
0.724978
0.725011
0.725292
0.725264
0.725047
0.725393
0.725996
0.726965
0.728333
0.730163
0.732511
0.735327
0.738597
0.742257
0.746202
0.750303
0.754411
0.758359
0.76192
0.76494
0.76734
0.769097
0.769861
0.769932
0.769954
0.769972
0.769985
0.769994
0.769998
0.769999
0.77
0.77
0.77
0.77
0.724031
0.725324
0.726686
0.728066
0.727154
0.726385
0.726084
0.726094
0.726325
0.726227
0.726007
0.726227
0.726804
0.727695
0.72896
0.730668
0.732854
0.735526
0.738643
0.742155
0.745973
0.749972
0.754007
0.757919
0.761498
0.764564
0.767029
0.768874
0.769813
0.769924
0.769948
0.769968
0.769983
0.769993
0.769997
0.769999
0.77
0.77
0.77
0.77
0.72522
0.726491
0.727821
0.729162
0.72826
0.72749
0.727163
0.727141
0.727331
0.727199
0.726932
0.727127
0.727594
0.728413
0.729597
0.73119
0.733235
0.735756
0.738726
0.742094
0.745782
0.749674
0.753631
0.757497
0.761084
0.764189
0.766716
0.768638
0.769743
0.769915
0.769943
0.769964
0.769981
0.769991
0.769997
0.769999
0.77
0.77
0.77
0.77
0.726392
0.727638
0.728933
0.730231
0.729343
0.728574
0.728222
0.728163
0.72831
0.728154
0.727862
0.727999
0.728413
0.72914
0.730238
0.731724
0.733644
0.73602
0.738843
0.74207
0.745627
0.749409
0.753282
0.757095
0.76068
0.763817
0.766401
0.768393
0.769647
0.769904
0.769936
0.769959
0.769978
0.76999
0.769996
0.769999
0.77
0.77
0.77
0.77
0.727545
0.728762
0.730017
0.73127
0.7304
0.729636
0.729261
0.729165
0.729267
0.729086
0.728778
0.728868
0.729219
0.729876
0.730879
0.732269
0.734071
0.736313
0.738993
0.74208
0.745507
0.749176
0.752962
0.756718
0.760287
0.763449
0.766085
0.768139
0.769522
0.769891
0.769929
0.769954
0.769974
0.769988
0.769995
0.769999
0.77
0.77
0.77
0.77
0.728674
0.729857
0.731071
0.732274
0.731427
0.730673
0.730279
0.730148
0.730205
0.73
0.729676
0.729728
0.730023
0.730609
0.731528
0.732819
0.734513
0.736629
0.739173
0.742123
0.74542
0.748975
0.752669
0.756363
0.759905
0.763087
0.765766
0.76788
0.769371
0.769872
0.769921
0.769948
0.769971
0.769986
0.769995
0.769998
0.77
0.77
0.77
0.77
0.729775
0.730921
0.732088
0.73324
0.73242
0.731682
0.731275
0.731112
0.731127
0.730896
0.730556
0.730574
0.730821
0.731341
0.73218
0.733378
0.734965
0.736963
0.739379
0.742195
0.745364
0.748803
0.752404
0.756031
0.759538
0.76273
0.765448
0.767616
0.769199
0.769845
0.769912
0.769942
0.769966
0.769984
0.769993
0.769998
0.769999
0.77
0.77
0.77
0.730843
0.731948
0.733067
0.734166
0.733377
0.732658
0.732244
0.732056
0.732033
0.731778
0.731422
0.731405
0.731607
0.732069
0.732834
0.733943
0.735428
0.737313
0.739606
0.742294
0.745336
0.748661
0.752165
0.755722
0.759188
0.762381
0.765131
0.767349
0.76901
0.769806
0.769901
0.769934
0.769961
0.769981
0.769992
0.769997
0.769999
0.77
0.77
0.77
0.731876
0.732935
0.734004
0.735052
0.734294
0.733599
0.733184
0.732976
0.73292
0.732645
0.732273
0.732223
0.732383
0.73279
0.733487
0.734512
0.7359
0.737677
0.739852
0.742417
0.745336
0.748546
0.751952
0.755435
0.758854
0.762042
0.764816
0.767081
0.768809
0.769752
0.76989
0.769926
0.769956
0.769977
0.769991
0.769997
0.769999
0.77
0.77
0.77
0.732868
0.733882
0.734901
0.735899
0.735172
0.734502
0.73409
0.73387
0.733788
0.733496
0.733112
0.73303
0.733148
0.733504
0.734136
0.735083
0.73638
0.738053
0.740115
0.74256
0.74536
0.748457
0.751765
0.75517
0.758538
0.761713
0.764506
0.766814
0.768599
0.769677
0.769877
0.769917
0.769949
0.769974
0.769989
0.769996
0.769999
0.77
0.77
0.77
0.733818
0.734786
0.735757
0.736709
0.736011
0.735366
0.734962
0.734734
0.734631
0.734329
0.733936
0.733825
0.733904
0.73421
0.734781
0.735654
0.736865
0.738439
0.740393
0.742723
0.745407
0.748393
0.751601
0.754927
0.75824
0.761395
0.7642
0.766546
0.768382
0.769581
0.769861
0.769907
0.769942
0.769969
0.769986
0.769995
0.769999
0.77
0.77
0.77
0.734726
0.735649
0.736575
0.737483
0.736814
0.736194
0.735798
0.735566
0.735449
0.73514
0.734742
0.734608
0.734651
0.734909
0.735422
0.736225
0.737353
0.738834
0.740684
0.742904
0.745475
0.748351
0.751461
0.754705
0.757961
0.761089
0.763901
0.766279
0.768161
0.769461
0.769842
0.769895
0.769933
0.769964
0.769984
0.769994
0.769998
0.77
0.77
0.77
0.735593
0.736474
0.737357
0.738224
0.737582
0.736985
0.736599
0.736366
0.736238
0.735927
0.735529
0.735376
0.735387
0.735602
0.736059
0.736795
0.737845
0.739236
0.740987
0.7431
0.745562
0.748331
0.751343
0.754505
0.7577
0.760796
0.763607
0.766012
0.767936
0.769321
0.769818
0.769882
0.769924
0.769957
0.76998
0.769993
0.769998
0.77
0.77
0.77
0.736421
0.737262
0.738106
0.738935
0.738317
0.737743
0.737367
0.737134
0.736998
0.736688
0.736293
0.736125
0.736111
0.736286
0.736691
0.737363
0.738338
0.739644
0.741299
0.743311
0.745667
0.748332
0.751247
0.754325
0.757457
0.760515
0.763321
0.765746
0.767708
0.769165
0.769785
0.769867
0.769912
0.76995
0.769976
0.769991
0.769997
0.769999
0.77
0.77
0.737212
0.738016
0.738823
0.739617
0.739022
0.738469
0.738102
0.73787
0.737729
0.737421
0.737032
0.736855
0.736819
0.73696
0.737318
0.73793
0.738833
0.740057
0.741621
0.743534
0.745788
0.748351
0.75117
0.754165
0.757232
0.760247
0.763044
0.765484
0.76748
0.768996
0.769742
0.76985
0.7699
0.769941
0.769972
0.769989
0.769997
0.769999
0.77
0.77
0.737969
0.738738
0.739512
0.740274
0.7397
0.739166
0.738808
0.738578
0.738432
0.738128
0.737746
0.737562
0.737509
0.737621
0.737936
0.738494
0.739329
0.740474
0.741951
0.743769
0.745924
0.748388
0.751113
0.754024
0.757023
0.759993
0.762774
0.765225
0.767252
0.768818
0.769686
0.769831
0.769885
0.769931
0.769966
0.769986
0.769996
0.769999
0.77
0.77
0.738694
0.739432
0.740175
0.740908
0.740353
0.739836
0.739486
0.739257
0.739107
0.738808
0.738434
0.738246
0.738179
0.738267
0.738545
0.739052
0.739824
0.740895
0.742287
0.744014
0.746073
0.74844
0.751073
0.753901
0.756831
0.759752
0.762514
0.764971
0.767025
0.768633
0.769614
0.76981
0.769869
0.76992
0.769959
0.769983
0.769994
0.769999
0.77
0.77
0.73939
0.740099
0.740814
0.741519
0.740982
0.740481
0.740139
0.739911
0.739758
0.739463
0.739097
0.738906
0.738829
0.738896
0.739142
0.739603
0.740317
0.741317
0.74263
0.744269
0.746234
0.748508
0.751049
0.753794
0.756655
0.759525
0.762263
0.764722
0.766799
0.768444
0.769525
0.769786
0.769851
0.769907
0.769951
0.769979
0.769993
0.769998
0.77
0.77
0.740059
0.740741
0.74143
0.74211
0.741589
0.741103
0.740768
0.740542
0.740385
0.740094
0.739736
0.739543
0.739457
0.739507
0.739724
0.740145
0.740806
0.741741
0.742977
0.744531
0.746407
0.748589
0.751041
0.753704
0.756495
0.75931
0.762022
0.764478
0.766574
0.768252
0.769417
0.76976
0.769832
0.769892
0.769941
0.769974
0.769991
0.769998
0.77
0.77
0.740704
0.741361
0.742025
0.742681
0.742176
0.741704
0.741376
0.74115
0.740991
0.740704
0.740353
0.740159
0.740065
0.740099
0.740292
0.740676
0.741289
0.742163
0.743327
0.744801
0.74659
0.748683
0.751048
0.753629
0.756349
0.759109
0.76179
0.76424
0.766351
0.768057
0.769293
0.769729
0.76981
0.769876
0.769931
0.769968
0.769989
0.769997
0.769999
0.77
0.741326
0.74196
0.7426
0.743233
0.742744
0.742286
0.741963
0.741738
0.741576
0.741293
0.740949
0.740753
0.740653
0.740673
0.740843
0.741195
0.741763
0.742581
0.743678
0.745075
0.746781
0.748788
0.751067
0.753568
0.756218
0.758922
0.761569
0.764008
0.76613
0.767862
0.769156
0.769692
0.769787
0.769858
0.769919
0.769962
0.769986
0.769996
0.769999
0.77
0.741926
0.742539
0.743156
0.743766
0.743293
0.742848
0.742531
0.742308
0.742143
0.741863
0.741526
0.741329
0.741222
0.74123
0.741379
0.741702
0.742229
0.742995
0.744029
0.745354
0.74698
0.748903
0.751099
0.753521
0.7561
0.758747
0.761356
0.763783
0.765912
0.767665
0.769009
0.769649
0.769763
0.769839
0.769905
0.769954
0.769983
0.769995
0.769999
0.77
0.742506
0.743098
0.743694
0.744281
0.743823
0.743391
0.743081
0.742859
0.742692
0.742415
0.742084
0.741886
0.741774
0.74177
0.741901
0.742195
0.742686
0.743404
0.744379
0.745635
0.747185
0.749028
0.751142
0.753486
0.755996
0.758585
0.761153
0.763564
0.765697
0.767471
0.768855
0.769597
0.769738
0.769819
0.769891
0.769946
0.769979
0.769994
0.769999
0.77
0.743067
0.743638
0.744212
0.744778
0.744335
0.743917
0.743613
0.743393
0.743225
0.742951
0.742625
0.742426
0.742309
0.742294
0.742407
0.742677
0.743132
0.743806
0.744726
0.745918
0.747395
0.74916
0.751195
0.753463
0.755903
0.758434
0.76096
0.763352
0.765486
0.767278
0.768695
0.769535
0.769712
0.769798
0.769876
0.769937
0.769975
0.769993
0.769999
0.77
0.743608
0.744159
0.744713
0.745258
0.74483
0.744424
0.744127
0.74391
0.743741
0.743471
0.743151
0.742951
0.742829
0.742804
0.742901
0.743146
0.74357
0.744201
0.74507
0.746201
0.747609
0.7493
0.751258
0.753452
0.755823
0.758295
0.760776
0.763148
0.76528
0.767087
0.768533
0.769462
0.769686
0.769777
0.76986
0.769928
0.769971
0.769991
0.769998
0.77
0.744131
0.744662
0.745196
0.745722
0.745307
0.744915
0.744625
0.74441
0.744241
0.743975
0.743661
0.743461
0.743334
0.7433
0.743381
0.743605
0.743998
0.74459
0.74541
0.746483
0.747826
0.749445
0.75133
0.75345
0.755753
0.758167
0.760602
0.76295
0.765078
0.766898
0.768369
0.769376
0.769659
0.769756
0.769845
0.769918
0.769966
0.769989
0.769998
0.77
0.744635
0.745147
0.745662
0.746169
0.745768
0.745388
0.745106
0.744895
0.744726
0.744464
0.744156
0.743956
0.743825
0.743783
0.74385
0.744052
0.744417
0.744972
0.745747
0.746765
0.748046
0.749597
0.751409
0.753458
0.755695
0.75805
0.760439
0.76276
0.764881
0.766711
0.768205
0.769279
0.769632
0.769736
0.76983
0.769908
0.769961
0.769988
0.769997
0.77
0.745122
0.745616
0.746112
0.746602
0.746214
0.745845
0.74557
0.745363
0.745196
0.744939
0.744637
0.744438
0.744304
0.744253
0.744308
0.74449
0.744828
0.745349
0.74608
0.747046
0.748268
0.749752
0.751496
0.753475
0.755646
0.757944
0.760286
0.762577
0.764689
0.766528
0.768041
0.769173
0.769605
0.769718
0.769816
0.769899
0.769956
0.769986
0.769997
0.77
0.745591
0.746068
0.746548
0.747022
0.746645
0.746287
0.746019
0.745816
0.745651
0.745398
0.745103
0.744905
0.744769
0.744712
0.744754
0.744919
0.745231
0.745719
0.746409
0.747326
0.748491
0.749912
0.751589
0.753501
0.755607
0.757847
0.760142
0.762401
0.764503
0.766347
0.767879
0.769059
0.769576
0.769701
0.769803
0.769891
0.769952
0.769984
0.769996
0.77
0.746045
0.746506
0.74697
0.747428
0.747063
0.746715
0.746454
0.746254
0.746091
0.745844
0.745555
0.745359
0.745221
0.745158
0.745189
0.745337
0.745626
0.746083
0.746734
0.747605
0.748715
0.750076
0.751689
0.753534
0.755577
0.757759
0.760008
0.762232
0.764322
0.76617
0.767719
0.76894
0.769546
0.769687
0.769793
0.769884
0.769948
0.769982
0.769996
0.769999
0.746483
0.746929
0.747379
0.747823
0.747467
0.74713
0.746874
0.746679
0.746517
0.746275
0.745994
0.7458
0.745661
0.745593
0.745614
0.745747
0.746014
0.746442
0.747056
0.747882
0.74894
0.750244
0.751793
0.753575
0.755555
0.757681
0.759882
0.762072
0.764147
0.765997
0.767562
0.768817
0.769511
0.769675
0.769784
0.769878
0.769944
0.769981
0.769995
0.769999
0.746908
0.74734
0.747775
0.748206
0.74786
0.747532
0.747282
0.74709
0.746929
0.746693
0.746418
0.746227
0.746088
0.746016
0.746028
0.746147
0.746394
0.746794
0.747374
0.748158
0.749167
0.750414
0.751904
0.753623
0.755542
0.757612
0.759766
0.76192
0.763979
0.765829
0.767408
0.768693
0.769473
0.769666
0.769778
0.769874
0.769942
0.76998
0.769995
0.769999
0.747319
0.747738
0.74816
0.748578
0.748242
0.747922
0.747678
0.747489
0.74733
0.747098
0.74683
0.746641
0.746502
0.746426
0.746432
0.746538
0.746766
0.747141
0.747688
0.748432
0.749394
0.750588
0.752019
0.753677
0.755537
0.757552
0.759658
0.761776
0.763816
0.765665
0.767258
0.768569
0.769428
0.76966
0.769775
0.769871
0.769941
0.769979
0.769995
0.769999
0.747718
0.748124
0.748534
0.748939
0.748612
0.748301
0.748062
0.747876
0.747719
0.747491