/*--------------------------------*- C++ -*----------------------------------*\
| =========                 |                                                 |
| \\      /  F ield         | OpenFOAM: The Open Source CFD Toolbox           |
|  \\    /   O peration     | Version:  1.6.x                                 |
|   \\  /    A nd           | Web:      www.OpenFOAM.org                      |
|    \\/     M anipulation  |                                                 |
\*---------------------------------------------------------------------------*/
FoamFile
{
    version     2.0;
    format      ascii;
    class       volScalarField;
    location    "2";
    object      O2;
}
// * * * * * * * * * * * * * * * * * * * * * * * * * * * * * * * * * * * * * //

dimensions      [0 0 0 0 0 0 0];

internalField   nonuniform List<scalar> 
4608
(
0.196584
0.1966
0.196598
0.187641
0.1966
0.1966
0.1966
0.196145
0.181976
0.142684
0.1966
0.1966
0.1966
0.1966
0.196575
0.195454
0.177369
0.134226
0.0205915
0.1966
0.1966
0.1966
0.1966
0.196598
0.196512
0.194564
0.173441
0.129834
0.0124429
0.0503818
0.00445937
0.1966
0.1966
0.1966
0.1966
0.19659
0.196405
0.193499
0.169751
0.127202
0.00986675
0.00138104
0.0530479
0.0539656
0.0416777
0.1966
0.1966
0.1966
0.1966
0.196574
0.196245
0.192282
0.16608
0.124154
0.00920748
0.000698032
0.0145918
0.0538417
0.0539873
0.0539997
0.0853817
0.1966
0.1966
0.1966
0.1966
0.196546
0.196026
0.190926
0.162331
0.120633
0.00875042
0.000642723
0.00254814
0.0849007
0.0543618
0.0539971
0.0539999
0.054
0.14568
0.1966
0.1966
0.1966
0.1966
0.196501
0.195743
0.189433
0.158435
0.116916
0.00838811
0.000599615
0.00175704
0.0748344
0.134532
0.0540032
0.054
0.054
0.054
0.187126
0.1966
0.1966
0.1966
0.1966
0.196435
0.195391
0.1878
0.154361
0.113045
0.00815386
0.00055063
0.00110556
0.0515629
0.12419
0.167533
0.054
0.054
0.054
0.054
0.216512
0.1966
0.1966
0.1966
0.1966
0.196342
0.194967
0.186016
0.150123
0.109041
0.00799306
0.000532807
0.000356658
0.026879
0.102683
0.155157
0.199062
0.054
0.054
0.054
0.054
0.22776
0.1966
0.1966
0.1966
0.1966
0.196218
0.194465
0.184074
0.145767
0.104971
0.00785255
0.000469524
0.000178935
0.00606498
0.0771599
0.135998
0.18724
0.219309
0.054
0.054
0.054
0.054
0.229791
0.1966
0.1966
0.1966
0.1966
0.196059
0.193883
0.181961
0.141321
0.100908
0.00771657
0.000528087
0.000129975
0.00280829
0.0547517
0.112245
0.172039
0.210732
0.228175
0.054
0.054
0.054
0.054
0.229971
0.1966
0.1966
0.1966
0.1966
0.195859
0.193213
0.179663
0.136791
0.096848
0.00758746
0.000534807
9.22566e-05
0.00190209
0.0376607
0.090162
0.152659
0.199954
0.224924
0.229843
0.054
0.054
0.054
0.054
0.229993
0.1966
0.1966
0.1966
0.1966
0.195614
0.19245
0.177159
0.132177
0.0927444
0.00743811
0.000472587
7.36172e-05
0.00102267
0.024097
0.0707072
0.132894
0.185077
0.21944
0.229442
0.229979
0.054
0.054
0.054
0.054
0.229997
0.1966
0.1966
0.1966
0.1966
0.195318
0.191581
0.174426
0.127453
0.088586
0.00725164
0.00046693
5.55996e-05
0.000629777
0.0117575
0.053766
0.114073
0.168646
0.209748
0.228344
0.229948
0.229994
0.054
0.054
0.054
0.054
0.229999
0.1966
0.1966
0.1966
0.1966
0.194967
0.190593
0.171442
0.12255
0.08429
0.00711498
0.000533416
4.45478e-05
0.00036175
0.00686382
0.0381307
0.0964886
0.152082
0.1971
0.225001
0.229868
0.229989
0.229998
0.054
0.054
0.054
0.054
0.23
0.1966
0.1966
0.1966
0.1966
0.194554
0.189467
0.168178
0.117378
0.0797172
0.00696624
0.000475257
4.63552e-05
0.000178481
0.00365905
0.0244981
0.080283
0.135817
0.183125
0.217813
0.229535
0.229981
0.229996
0.229999
0.054
0.054
0.054
0.054
0.23
0.1966
0.1966
0.1966
0.1966
0.194069
0.18818
0.164604
0.111736
0.0747085
0.00680664
0.000470326
4.23402e-05
0.000131095
0.00164311
0.0124939
0.065118
0.120101
0.168993
0.207512
0.228015
0.229959
0.229994
0.229998
0.23
0.054
0.054
0.054
0.054
0.23
0.1966
0.1966
0.1966
0.1966
0.193502
0.186705
0.160676
0.105294
0.0688082
0.00663865
0.000531906
4.02233e-05
0.000106167
0.00118052
0.00533208
0.0511013
0.105196
0.154953
0.195676
0.22373
0.22987
0.229991
0.229998
0.229999
0.23
0.054
0.054
0.054
0.054
0.23
0.1966
0.1966
0.1966
0.1966
0.192841
0.185007
0.156359
0.0973181
0.0614204
0.00624286
0.000536794
4.34436e-05
6.90164e-05
0.000917893
0.00383086
0.0385997
0.0912074
0.141324
0.1836
0.215806
0.229381
0.229984
0.229997
0.229999
0.23
0.23
0.054
0.054
0.054
0.054
0.23
0.1966
0.1966
0.1966
0.192067
0.183052
0.151507
0.0882046
0.0515349
0.00575781
0.000518854
4.43524e-05
4.30164e-05
0.000546026
0.00290104
0.0278127
0.078202
0.128027
0.171714
0.206244
0.227172
0.22996
0.229995
0.229998
0.23
0.23
0.23
0.054
0.054
0.054
0.054
0.23
0.1966
0.1966
0.191162
0.180784
0.146225
0.0323175
0.0432734
0.00502589
0.00049275
4.39103e-05
3.12968e-05
0.000312956
0.00163701
0.0200172
0.0659775
0.115429
0.159931
0.19617
0.222149
0.229818
0.229992
0.229998
0.229999
0.23
0.23
0.23
0.054
0.054
0.054
0.054
0.23
0.1966
0.190095
0.178168
0.135788
0.0158485
0.0150472
0.00456495
0.000405847
4.27786e-05
2.63671e-05
0.000216331
0.000916742
0.0105994
0.0559129
0.103306
0.148506
0.186132
0.214952
0.229017
0.229984
0.229997
0.229999
0.23
0.23
0.23
0.23
0.054
0.054
0.054
0.054
0.23
0.188835
0.174964
0.125311
0.0120356
0.00656569
0.00195089
0.000429694
3.651e-05
2.06388e-05
0.000171131
0.00062945
0.00506766
0.0455164
0.0925137
0.137171
0.176218
0.206855
0.22651
0.22995
0.229996
0.229999
0.23
0.23
0.23
0.23
0.23
0.054
0.054
0.054
0.054
0.23
0.187347
0.171295
0.114697
0.0109394
0.00448424
0.0009499
0.000201873
3.96521e-05
1.35302e-05
0.000122674
0.000486305
0.00384449
0.0358322
0.0822101
0.126477
0.166285
0.198518
0.221758
0.229755
0.229993
0.229998
0.229999
0.23
0.23
0.23
0.23
0.23
0.054
0.054
0.054
0.23
0.185612
0.166972
0.103891
0.0111495
0.00405163
0.000556448
9.31048e-05
2.16231e-05
1.09077e-05
6.9926e-05
0.000339778
0.00289097
0.027361
0.0722772
0.116479
0.156601
0.190169
0.215693
0.228846
0.229984
0.229998
0.229999
0.23
0.23
0.23
0.23
0.23
0.23
0.054
0.054
0.23
0.183574
0.161715
0.0931749
0.00531
0.00431678
0.000415601
5.08649e-05
1.02966e-05
8.0096e-06
4.85259e-05
0.000186275
0.00193702
0.0197701
0.0628582
0.10689
0.14735
0.181828
0.209006
0.226545
0.229945
0.229997
0.229999
0.23
0.23
0.23
0.23
0.23
0.23
0.23
0.054
0.23
0.181125
0.155535
0.0357102
0.00223267
0.00229103
0.000457314
3.65064e-05
5.55318e-06
5.90899e-06
3.8661e-05
0.000127271
0.00099947
0.0127343
0.0541042
0.097633
0.138355
0.173662
0.202071
0.222552
0.229756
0.229994
0.229999
0.23
0.23
0.23
0.23
0.23
0.23
0.23
0.23
0.23
0.178153
0.14442
0.0155649
0.00139265
0.000983203
0.000310071
4.01174e-05
3.86106e-06
4.5318e-06
3.157e-05
0.00010189
0.000671145
0.00619436
0.0456808
0.0887553
0.129549
0.165652
0.195219
0.217556
0.228997
0.229985
0.229998
0.229999
0.23
0.23
0.23
0.23
0.23
0.23
0.23
0.23
0.23
0.174208
0.130962
0.0111181
0.00135212
0.000627955
0.000134661
3.00222e-05
4.04714e-06
3.31102e-06
2.49593e-05
8.2755e-05
0.000535311
0.0041614
0.0376736
0.0801322
0.120944
0.15773
0.188393
0.21212
0.227177
0.229955
0.229997
0.229999
0.23
0.23
0.23
0.23
0.23
0.23
0.23
0.23
0.23
0.23
0.168995
0.115184
0.010506
0.000662685
0.000605149
7.86324e-05
1.43313e-05
3.24455e-06
2.52967e-06
1.74412e-05
6.42082e-05
0.000428052
0.00314314
0.0298743
0.0719071
0.112515
0.149886
0.181527
0.206494
0.224068
0.229822
0.229995
0.229999
0.23
0.23
0.23
0.23
0.23
0.23
0.23
0.23
0.23
0.23
0.23
0.16178
0.0977696
0.00417188
0.000264608
0.000300092
7.32004e-05
7.97155e-06
1.75275e-06
2.03402e-06
1.25384e-05
4.34525e-05
0.000320638
0.00254015
0.0221077
0.0635575
0.104409
0.141986
0.174645
0.20081
0.22012
0.229323
0.229989
0.229999
0.23
0.23
0.23
0.23
0.23
0.23
0.23
0.23
0.23
0.23
0.23
0.23
0.1519
0.029075
0.00153053
9.3125e-05
0.00012397
4.21247e-05
7.00319e-06
1.03621e-06
1.68595e-06
1.007e-05
3.10222e-05
0.000205142
0.00182674
0.0173146
0.05504
0.0962461
0.134249
0.16769
0.195063
0.215745
0.228095
0.22997
0.229998
0.229999
0.23
0.23
0.23
0.23
0.23
0.23
0.23
0.23
0.23
0.23
0.23
0.23
0.131098
0.0108562
0.000485983
2.91219e-05
4.76879e-05
1.9058e-05
4.42376e-06
8.77096e-07
1.56896e-06
8.65365e-06
2.50768e-05
0.000145271
0.00109989
0.0119451
0.0485986
0.0879724
0.126489
0.160755
0.189166
0.211114
0.2259
0.229902
0.229996
0.229999
0.23
0.23
0.23
0.23
0.23
0.23
0.23
0.23
0.23
0.23
0.23
0.23
0.23
0.101144
0.00301797
0.000132152
8.18576e-06
1.54879e-05
7.81991e-06
2.15658e-06
6.32438e-07
1.41084e-06
8.23145e-06
2.13166e-05
0.000118846
0.0007758
0.00689666
0.0424742
0.0809923
0.118669
0.15374
0.18319
0.206306
0.222879
0.22965
0.229993
0.229999
0.23
0.23
0.23
0.23
0.23
0.23
0.23
0.23
0.23
0.23
0.23
0.23
0.23
0.23
0.021612
0.000687696
3.33009e-05
2.03141e-06
4.37281e-06
2.7866e-06
9.37695e-07
3.99702e-07
1.32245e-06
7.29013e-06
2.00471e-05
9.88852e-05
0.000643679
0.00436326
0.0365518
0.0747164
0.111672
0.146549
0.177128
0.201416
0.219379
0.228961
0.229983
0.229998
0.23
0.23
0.23
0.23
0.23
0.23
0.23
0.23
0.23
0.23
0.23
0.23
0.23
0.23
0.23
0.00365349
0.000139251
7.4223e-06
4.50152e-07
1.10376e-06
8.74717e-07
3.666e-07
2.48721e-07
1.28329e-06
6.8182e-06
1.75635e-05
9.10662e-05
0.000522459
0.00372914
0.0312252
0.0686777
0.105385
0.139878
0.170935
0.196405
0.215575
0.227614
0.229955
0.229997
0.229999
0.23
0.23
0.23
0.23
0.23
0.23
0.23
0.23
0.23
0.23
0.23
0.23
0.23
0.23
0.23
0.000536479
2.58355e-05
1.46606e-06
9.08124e-08
2.52999e-07
2.46487e-07
1.3273e-07
1.89927e-07
1.11663e-06
6.61427e-06
1.63084e-05
7.82702e-05
0.000470272
0.00316901
0.0264614
0.0628994
0.0993877
0.133781
0.164937
0.191233
0.211564
0.225495
0.22986
0.229996
0.229999
0.23
0.23
0.23
0.23
0.23
0.23
0.23
0.23
0.23
0.23
0.23
0.23
0.23
0.23
0.23
7.42562e-05
4.35345e-06
2.6303e-07
1.70595e-08
5.33996e-08
6.38499e-08
4.9613e-08
1.35198e-07
1.17058e-06
5.64842e-06
1.56756e-05
7.17599e-05
0.000396023
0.00274073
0.0222567
0.0574043
0.0935797
0.127929
0.159258
0.186087
0.207407
0.222799
0.229564
0.229991
0.229999
0.23
0.23
0.23
0.23
0.23
0.23
0.23
0.23
0.23
0.23
0.23
0.23
0.23
0.23
0.23
9.95178e-06
6.81056e-07
4.37546e-08
3.17718e-09
1.09153e-08
1.60754e-08
2.36097e-08
1.12703e-07
9.22581e-07
5.9268e-06
1.31884e-05
6.78891e-05
0.000358427
0.00230424
0.0187432
0.0523895
0.0879781
0.122238
0.153781
0.181077
0.203223
0.219756
0.228878
0.229981
0.229998
0.23
0.23
0.23
0.23
0.23
0.23
0.23
0.23
0.23
0.23
0.23
0.23
0.23
0.23
0.23
1.30887e-06
1.00634e-07
6.89804e-09
7.80778e-10
2.60325e-09
5.05975e-09
1.52311e-08
1.07815e-07
8.0655e-07
4.52033e-06
1.38044e-05
5.57019e-05
0.000333099
0.00205943
0.0153434
0.0480098
0.0827596
0.116727
0.148432
0.176169
0.19905
0.21651
0.227645
0.229952
0.229997
0.23
0.23
0.23
0.23
0.23
0.23
0.23
0.23
0.23
0.23
0.23
0.23
0.23
0.23
0.23
1.69963e-07
1.42352e-08
1.09451e-09
4.0274e-10
1.16954e-09
2.66999e-09
1.51281e-08
9.69838e-08
7.92769e-07
3.85693e-06
1.03432e-05
5.81494e-05
0.000266099
0.00187563
0.0135262
0.0437309
0.0780073
0.111508
0.143182
0.171337
0.194868
0.213159
0.225823
0.229861
0.229996
0.229999
0.23
0.23
0.23
0.23
0.23
0.23
0.23
0.23
0.23
0.23
0.23
0.23
0.23
0.23
2.18414e-08
1.96033e-09
2.40002e-10
4.15456e-10
9.46532e-10
2.36041e-09
1.48106e-08
1.09486e-07
7.06977e-07
3.78135e-06
8.72041e-06
4.22483e-05
0.000277364
0.00145668
0.0109695
0.0404235
0.0734048
0.10662
0.138126
0.166573
0.190689
0.209753
0.223577
0.229612
0.229992
0.229999
0.23
0.23
0.23
0.23
0.23
0.23
0.23
0.23
0.23
0.23
0.23
0.23
0.23
0.23
2.78411e-09
2.83425e-10
1.21e-10
4.13322e-10
1.1038e-09
2.32274e-09
1.56098e-08
1.09294e-07
7.95617e-07
3.31627e-06
8.54743e-06
3.49386e-05
0.000194955
0.00151878
0.00909273
0.0372987
0.0693854
0.10188
0.133293
0.161914
0.186528
0.206331
0.221087
0.229071
0.229983
0.229999
0.23
0.23
0.23
0.23
0.23
0.23
0.23
0.23
0.23
0.23
0.23
0.23
0.23
0.23
3.59552e-10
6.23762e-11
1.28403e-10
5.20069e-10
1.08776e-09
2.79546e-09
1.55162e-08
1.14e-07
7.89223e-07
3.70615e-06
7.43781e-06
3.42492e-05
0.000158218
0.00102984
0.00775442
0.0349603
0.0658314
0.0975197
0.128561
0.157382
0.182401
0.202881
0.218436
0.228136
0.229962
0.229998
0.23
0.23
0.23
0.23
0.23
0.23
0.23
0.23
0.23
0.23
0.23
0.23
0.23
0.23
5.53258e-11
4.07598e-11
1.32165e-10
5.42046e-10
1.37245e-09
2.73706e-09
1.85932e-08
1.10759e-07
8.1185e-07
3.65539e-06
8.28382e-06
2.93892e-05
0.000155256
0.000820773
0.00614958
0.032808
0.0628002
0.09363
0.124095
0.152934
0.17833
0.199399
0.215678
0.226745
0.229905
0.229996
0.229999
0.23
0.23
0.23
0.23
0.23
0.23
0.23
0.23
0.23
0.23
0.23
0.23
0.23
2.04387e-11
3.99767e-11
1.66021e-10
7.03496e-10
1.40163e-09
3.43808e-09
1.78528e-08
1.31843e-07
7.71003e-07
3.71477e-06
8.15598e-06
3.25179e-05
0.000131183
0.000807208
0.00490136
0.0302682
0.0600199
0.0901402
0.120037
0.148641
0.174302
0.195908
0.212849
0.22498
0.229753
0.229994
0.229999
0.23
0.23
0.23
0.23
0.23
0.23
0.23
0.23
0.23
0.23
0.23
0.23
0.23
1.73675e-11
4.98076e-11
1.95983e-10
9.05798e-10
1.81495e-09
3.48294e-09
2.22384e-08
1.24504e-07
9.1253e-07
3.45404e-06
8.24276e-06
3.19184e-05
0.000144001
0.00066954
0.00415146
0.0280685
0.0571792
0.0868995
0.116296
0.144609
0.170356
0.192416
0.209998
0.222978
0.229417
0.229989
0.229999
0.23
0.23
0.23
0.23
0.23
0.23
0.23
0.23
0.23
0.23
0.23
0.23
0.23
2.12019e-11
5.9731e-11
2.6687e-10
1.21382e-09
2.32197e-09
4.48917e-09
2.22189e-08
1.54354e-07
8.48617e-07
4.06445e-06
7.58765e-06
3.19761e-05
0.00014091
0.000728236
0.00388798
0.0262125
0.0545457
0.0837599
0.112766
0.140809
0.166558
0.188949
0.207128
0.220827
0.228812
0.229978
0.229998
0.23
0.23
0.23
0.23
0.23
0.23
0.23
0.23
0.23
0.23
0.23
0.23
0.23
2.5718e-11
8.14396e-11
3.67387e-10
1.60054e-09
3.08149e-09
5.73071e-09
2.83974e-08
1.5259e-07
1.04828e-06
3.72725e-06
8.90532e-06
2.8915e-05
0.00013996
0.000710207
0.0036826
0.0251736
0.0521455
0.0807823
0.10938
0.137174
0.162909
0.185543
0.204237
0.218573
0.22787
0.229951
0.229997
0.23
0.23
0.23
0.23
0.23
0.23
0.23
0.23
0.23
0.23
0.23
0.23
0.23
3.50936e-11
1.12961e-10
4.90092e-10
2.20525e-09
4.02518e-09
7.56286e-09
3.61927e-08
1.93766e-07
1.02634e-06
4.58734e-06
8.11752e-06
3.37849e-05
0.000124137
0.000699292
0.00352835
0.0238152
0.0502071
0.0779948
0.106144
0.133656
0.159379
0.182212
0.201337
0.216246
0.226594
0.229883
0.229996
0.229999
0.23
0.23
0.23
0.23
0.23
0.23
0.23
0.23
0.23
0.23
0.23
0.23
4.89478e-11
1.52181e-10
6.00819e-10
2.52967e-09
5.56753e-09
9.82157e-09
4.72597e-08
2.47401e-07
1.29421e-06
4.45121e-06
9.97498e-06
3.04595e-05
0.000144346
0.000606522
0.00342743
0.022728
0.0483056
0.0754779
0.103066
0.130262
0.155943
0.178947
0.198449
0.213877
0.225059
0.229722
0.229993
0.229999
0.23
0.23
0.23
0.23
0.23
0.23
0.23
0.23
0.23
0.23
0.23
0.23
6.64594e-11
1.88735e-10
8.23983e-10
3.70548e-09
6.25736e-09
1.35694e-08
6.06499e-08
3.20216e-07
1.65708e-06
5.56762e-06
9.6448e-06
3.73514e-05
0.00012856
0.000701752
0.00335403
0.0218665
0.0465924
0.0730926
0.100169
0.127
0.1526
0.175737
0.195579
0.211501
0.223362
0.229405
0.229988
0.229999
0.23
0.23
0.23
0.23
0.23
0.23
0.23
0.23
0.23
0.23
0.23
0.23
8.31835e-11
2.58937e-10
1.05743e-09
6.09471e-09
9.21259e-09
1.51404e-08
8.37499e-08
4.06743e-07
2.12532e-06
7.14572e-06
1.20142e-05
3.58768e-05
0.000157384
0.000615769
0.00334215
0.0211861
0.0450434
0.0708759
0.0974129
0.12387
0.149351
0.172582
0.192724
0.209119
0.221556
0.228876
0.229978
0.229998
0.23
0.23
0.23
0.23
0.23
0.23
0.23
0.23
0.23
0.23
0.23
0.23
1.14073e-10
3.3597e-10
1.71081e-09
9.25946e-09
1.52491e-08
2.22655e-08
9.21099e-08
5.62951e-07
2.67102e-06
9.07832e-06
1.54514e-05
4.43517e-05
0.000150016
0.000753298
0.0033322
0.0206944
0.0436906
0.0688135
0.0948035
0.120869
0.146193
0.169486
0.189886
0.20672
0.219675
0.228085
0.229955
0.229998
0.23
0.23
0.23
0.23
0.23
0.23
0.23
0.23
0.23
0.23
0.23
0.23
1.49295e-10
5.39666e-10
2.78602e-09
1.5718e-08
2.28886e-08
3.70384e-08
1.35197e-07
6.11314e-07
3.70722e-06
1.12868e-05
1.95421e-05
5.72596e-05
0.000183797
0.000710574
0.00344548
0.0202182
0.0425411
0.066919
0.092336
0.11799
0.143095
0.166447
0.187067
0.204295
0.217736
0.227036
0.2299
0.229996
0.23
0.23
0.23
0.23
0.23
0.23
0.23
0.23
0.23
0.23
0.23
0.23
2.3817e-10
8.82737e-10
4.5141e-09
2.85219e-08
3.88101e-08
5.52709e-08
2.2762e-07
8.97234e-07
3.97411e-06
1.56977e-05
2.41788e-05
7.183e-05
0.000238259
0.000861519
0.00378235
0.0202761
0.041393
0.0651817
0.0900143
0.11523
0.140074
0.163456
0.184273
0.201854
0.21575
0.225778
0.229779
0.229994
0.229999
0.23
0.23
0.23
0.23
0.23
0.23
0.23
0.23
0.23
0.23
0.23
3.90551e-10
1.43926e-09
9.18017e-09
5.77728e-08
6.97634e-08
9.34914e-08
3.35598e-07
1.53325e-06
5.83033e-06
1.66168e-05
3.3683e-05
8.80715e-05
0.000296071
0.00112124
0.00462324
0.0205723
0.0407035
0.0635741
0.0878381
0.112596
0.13714
0.160515
0.181502
0.199408
0.213739
0.224376
0.229547
0.229991
0.229999
0.23
0.23
0.23
0.23
0.23
0.23
0.23
0.23
0.23
0.23
0.23
6.39612e-10
2.9157e-09
1.76292e-08
1.29001e-07
1.40872e-07
1.67825e-07
5.65372e-07
2.23501e-06
1.01136e-05
2.43368e-05
3.54524e-05
0.000123105
0.000359187
0.0013796
0.00597027
0.0210763
0.0403134
0.0622677
0.0858148
0.110096
0.134312
0.157627
0.178755
0.196959
0.211714
0.222872
0.22916
0.229983
0.229999
0.23
0.23
0.23
0.23
0.23
0.23
0.23
0.23
0.23
0.23
0.23
1.29046e-09
5.64989e-09
4.52732e-08
3.55621e-07
3.10209e-07
3.37276e-07
1.01243e-06
3.75646e-06
1.45572e-05
4.27426e-05
5.19007e-05
0.000128189
0.000504283
0.00165619
0.0072435
0.0218459
0.0402278
0.0612223
0.0840092
0.107741
0.131603
0.154789
0.176036
0.19451
0.209668
0.221295
0.228579
0.229969
0.229998
0.23
0.23
0.23
0.23
0.23
0.23
0.23
0.23
0.23
0.23
0.23
2.51708e-09
1.44854e-08
1.03005e-07
9.19067e-07
8.62973e-07
7.40758e-07
2.01587e-06
6.72164e-06
2.43987e-05
6.06999e-05
9.17609e-05
0.000187511
0.000518526
0.0020015
0.00862273
0.0227293
0.0403355
0.0604229
0.082428
0.105561
0.129018
0.152006
0.173347
0.192062
0.207596
0.21966
0.227787
0.229937
0.229997
0.23
0.23
0.23
0.23
0.23
0.23
0.23
0.23
0.23
0.23
0.23
6.44019e-09
3.33606e-08
2.96777e-07
3.43382e-06
2.19106e-06
2.05687e-06
4.39917e-06
1.32675e-05
4.35898e-05
0.000101344
0.000129438
0.000335338
0.000713917
0.00234116
0.0102229
0.0236521
0.0405779
0.0598554
0.0810701
0.103569
0.126576
0.149305
0.170694
0.189621
0.205498
0.217978
0.226804
0.229868
0.229996
0.23
0.23
0.23
0.23
0.23
0.23
0.23
0.23
0.23
0.23
0.23
1.49768e-08
9.69043e-08
1.28855e-06
1.37225e-05
8.06137e-06
5.17523e-06
1.21803e-05
2.87938e-05
8.5151e-05
0.000180375
0.000215029
0.000451693
0.00120136
0.00322934
0.0119512
0.0248099
0.040852
0.0594788
0.079924
0.10177
0.124293
0.146712
0.16809
0.187194
0.203384
0.216257
0.225673
0.229731
0.229994
0.229999
0.23
0.23
0.23
0.23
0.23
0.23
0.23
0.23
0.23
0.23
4.37477e-08
4.20252e-07
5.24244e-06
6.95431e-05
3.16558e-05
1.89785e-05
3.01258e-05
7.95908e-05
0.000183372
0.000330405
0.000383452
0.000694578
0.00180159
0.00541912
0.0140697
0.0260846
0.0413828
0.0592181
0.0789721
0.100161
0.122172
0.144254
0.165545
0.184788
0.201262
0.214517
0.224437
0.229493
0.229989
0.229999
0.23
0.23
0.23
0.23
0.23
0.23
0.23
0.23
0.23
0.23
1.89445e-07
1.75232e-06
2.36326e-05
0.000644529
0.000156387
7.37036e-05
0.000109726
0.000193453
0.000464213
0.000742725
0.000693847
0.00136883
0.00273493
0.00806807
0.016306
0.0279087
0.0422057
0.0591591
0.0781872
0.0987341
0.120214
0.141925
0.163052
0.182412
0.199141
0.212761
0.223123
0.229124
0.229982
0.229999
0.23
0.23
0.23
0.23
0.23
0.23
0.23
0.23
0.23
0.23
8.08642e-07
8.49915e-06
0.000236531
0.00507755
0.00138446
0.000353711
0.00041596
0.000700218
0.00119871
0.00186138
0.00156142
0.00244613
0.0054349
0.0107157
0.0189335
0.0296091
0.0433153
0.0593497
0.0775934
0.0974836
0.11842
0.13973
0.16064
0.18007
0.197024
0.210989
0.221751
0.228591
0.229967
0.229998
0.23
0.23
0.23
0.23
0.23
0.23
0.23
0.23
0.23
0.23
4.2498e-06
0.000101526
0.00370081
0.0106747
0.00619921
0.00283958
0.00189161
0.00259003
0.00427787
0.00464707
0.00386798
0.00545165
0.0085719
0.0138031
0.0214688
0.0317707
0.0445029
0.0597949
0.0772198
0.0964186
0.11679
0.137674
0.158323
0.177773
0.194916
0.209197
0.220334
0.227887
0.229937
0.229997
0.23
0.23
0.23
0.23
0.23
0.23
0.23
0.23
0.23
0.23
6.22961e-05
0.00269628
0.00926319
0.0163647
0.0117897
0.00802582
0.00680167
0.00702767
0.00880155
0.00865509
0.00783283
0.00914724
0.0122242
0.0170731
0.0241942
0.0339143
0.0459735
0.0604069
0.077073
0.0955533
0.115333
0.135764
0.156124
0.175531
0.192826
0.207389
0.218878
0.227031
0.229874
0.229996
0.23
0.23
0.23
0.23
0.23
0.23
0.23
0.23
0.23
0.23
0.00218986
0.00824021
0.0150348
0.0219622
0.0174156
0.0135933
0.0121427
0.0122044
0.0134719
0.0132782
0.0121485
0.0134253
0.0160149
0.0206375
0.0272065
0.0361589
0.047554
0.0612379
0.07712
0.0948916
0.114056
0.134004
0.154045
0.173335
0.190759
0.205574
0.217394
0.226055
0.229757
0.229994
0.229999
0.23
0.23
0.23
0.23
0.23
0.23
0.23
0.23
0.23
0.00771928
0.0140465
0.0207141
0.0274378
0.0229485
0.0191156
0.0175319
0.0174671
0.0184667
0.0178978
0.0167466
0.0176519
0.0201311
0.0241834
0.0303235
0.0386044
0.0492566
0.0622294
0.0773662
0.0944222
0.11296
0.132401
0.152089
0.171207
0.188722
0.203761
0.215897
0.224994
0.229559
0.22999
0.229999
0.23
0.23
0.23
0.23
0.23
0.23
0.23
0.23
0.23
0.0135428
0.0197816
0.0262718
0.0327639
0.0283595
0.0245434
0.0228343
0.0225983
0.0233898
0.022647
0.0212639
0.0220662
0.0241408
0.0278879
0.0334644
0.0411768
0.051123
0.0633682
0.0777873
0.0941397
0.112042
0.130957
0.150262
0.169163
0.186722
0.201956
0.214393
0.223867
0.229259
0.229984
0.229999
0.23
0.23
0.23
0.23
0.23
0.23
0.23
0.23
0.23
0.0193055
0.0253974
0.0316768
0.0379205
0.0336237
0.0298493
0.0280361
0.0276228
0.0281991
0.0273329
0.0258216
0.0263607
0.0282091
0.0315482
0.0366867
0.0438144
0.053124
0.0646615
0.0783693
0.0940311
0.111297
0.129672
0.148569
0.167219
0.18477
0.200163
0.21288
0.222694
0.228829
0.229973
0.229998
0.23
0.23
0.23
0.23
0.23
0.23
0.23
0.23
0.23
0.0249502
0.0308586
0.0369073
0.0428931
0.0387221
0.035013
0.0331199
0.0325417
0.0329059
0.0319216
0.0303267
0.0306422
0.0322077
0.0352283
0.0399197
0.0465297
0.0552223
0.0660943
0.0791059
0.094086
0.110717
0.128542
0.147012
0.165389
0.182873
0.198389
0.211358
0.221486
0.228262
0.229951
0.229998
0.23
0.23
0.23
0.23
0.23
0.23
0.23
0.23
0.23
0.0304396
0.0361424
0.0419483
0.0476742
0.0436407
0.0400173
0.0380712
0.0373497
0.0375141
0.0364158
0.0347477
0.0348812
0.0361817
0.0388758
0.0431745
0.0492897
0.0574109
0.0676431
0.0799851
0.0942954
0.110294
0.127564
0.145589
0.16367
0.181032
0.19664
0.209829
0.22025
0.227567
0.229908
0.229997
0.23
0.23
0.23
0.23
0.23
0.23
0.23
0.23
0.23
0.0357501
0.0412332
0.0467922
0.0522629
0.0483723
0.044849
0.0428757
0.0420374
0.0420226
0.0408195
0.0390821
0.0390504
0.040121
0.0425071
0.0464282
0.0520887
0.05967
0.0692964
0.0809911
0.0946487
0.110023
0.126731
0.144298
0.162061
0.179261
0.194922
0.208299
0.218992
0.226766
0.229828
0.229995
0.23
0.23
0.23
0.23
0.23
0.23
0.23
0.23
0.23
0.0408659
0.0461232
0.0514383
0.0566629
0.0529155
0.0495009
0.047522
0.0465935
0.0464249
0.0451321
0.0433327
0.0431451
0.0440055
0.0461133
0.0496797
0.0549108
0.0619868
0.0710388
0.0821124
0.0951341
0.109893
0.126041
0.143137
0.160561
0.177568
0.193244
0.206777
0.217722
0.225887
0.229693
0.229993
0.229999
0.23
0.23
0.23
0.23
0.23
0.23
0.23
0.23
0.0457792
0.0508118
0.0558909
0.0608812
0.0572739
0.0539713
0.0520027
0.0510079
0.0507118
0.049348
0.0474989
0.0471666
0.0478294
0.0496802
0.0529199
0.0577489
0.0643485
0.0728572
0.083337
0.0957421
0.109896
0.125486
0.142105
0.159171
0.175959
0.191611
0.20527
0.21645
0.22495
0.229485
0.229989
0.229999
0.23
0.23
0.23
0.23
0.23
0.23
0.23
0.23
0.0504891
0.0553035
0.0601572
0.0649248
0.061454
0.0582631
0.0563159
0.0552738
0.0548745
0.0534591
0.0515756
0.0511139
0.0515926
0.0532019
0.0561373
0.0605923
0.0667453
0.0747394
0.0846526
0.0964627
0.110025
0.125061
0.141197
0.15789
0.174436
0.19003
0.203784
0.215179
0.22397
0.229185
0.229982
0.229999
0.23
0.23
0.23
0.23
0.23
0.23
0.23
0.23
0.0550006
0.0596058
0.0642451
0.0688032
0.0654625
0.0623821
0.0604634
0.0593886
0.0589064
0.057457
0.0555552
0.0549825
0.0552932
0.0566766
0.0593257
0.0634304
0.0691655
0.0766752
0.0860483
0.0972855
0.110271
0.124759
0.14041
0.156718
0.173002
0.188505
0.202323
0.213909
0.222961
0.228777
0.22997
0.229998
0.23
0.23
0.23
0.23
0.23
0.23
0.23
0.23
0.059321
0.0637267
0.0681641
0.0725241
0.0693086
0.0663346
0.0644495
0.063353
0.0628044
0.0613353
0.0594298
0.0587652
0.0589271
0.0601019
0.0624821
0.0662564
0.0715983
0.0786523
0.0875137
0.0982007
0.110625
0.124575
0.13974
0.155652
0.171657
0.187039
0.20089
0.21264
0.22193
0.228262
0.229947
0.229998
0.23
0.23
0.23
0.23
0.23
0.23
0.23
0.23
0.0634587
0.0676762
0.0719224
0.076096
0.0729998
0.070129
0.0682796
0.0671702
0.0665681
0.0650906
0.0631929
0.0624547
0.0624876
0.0634734
0.0656033
0.0690662
0.0740362
0.0806596
0.0890367
0.0991985
0.11108
0.124501
0.139183
0.154692
0.170403
0.185636
0.199492
0.211376
0.220883
0.22765
0.229904
0.229997
0.23
0.23
0.23
0.23
0.23
0.23
0.23
0.23
0.0674236
0.0714626
0.0755288
0.079528
0.0765443
0.0737726
0.0719611
0.0708441
0.0701995
0.0687218
0.0668408
0.0660447
0.0659677
0.0667851
0.0686849
0.0718558
0.076474
0.082689
0.0906065
0.100268
0.111627
0.12453
0.138733
0.153835
0.169239
0.184296
0.198131
0.210122
0.219825
0.22696
0.22983
0.229995
0.23
0.23
0.23
0.23
0.23
0.23
0.23
0.23
0.0712242
0.0750949
0.0789926
0.0828291
0.079951
0.0772732
0.0755004
0.0743811
0.0737013
0.0722302
0.0703723
0.0695311
0.0693613
0.0700304
0.071721
0.0746206
0.0789072
0.0847345
0.0922143
0.101398
0.112254
0.124655
0.138384
0.153076
0.168162
0.183021
0.196812
0.208884
0.218766
0.226212
0.229711
0.229993
0.229999
0.23
0.23
0.23
0.23
0.23
0.23
0.23
0.0748696
0.0785824
0.0823231
0.0860084
0.0832287
0.0806393
0.0789047
0.0777867
0.0770788
0.0756179
0.073788
0.0729121
0.072664
0.073203
0.0747052
0.0773549
0.0813307
0.0867905
0.0938533
0.10258
0.112954
0.124867
0.138131
0.152412
0.167172
0.181812
0.195536
0.207667
0.217711
0.22542
0.229534
0.22999
0.229999
0.23
0.23
0.23
0.23
0.23
0.23
0.23
0.0783692
0.0819349
0.0855297
0.0890742
0.0863864
0.0838795
0.0821818
0.0810671
0.0803364
0.0788893
0.0770894
0.0761875
0.0758733
0.0762984
0.0776316
0.0800524
0.0837387
0.0888518
0.0955174
0.103806
0.113716
0.125158
0.137966
0.151837
0.166264
0.180669
0.194307
0.206475
0.216664
0.224599
0.229286
0.229984
0.229999
0.23
0.23
0.23
0.23
0.23
0.23
0.23
0.0817329
0.0851618
0.0886208
0.0920336
0.0894321
0.0870023
0.0853395
0.0842295
0.0834798
0.0820485
0.0802807
0.0793584
0.0789886
0.0793136
0.0804953
0.0827073
0.0861254
0.0909126
0.0972009
0.105071
0.114534
0.125519
0.137882
0.151347
0.165436
0.179594
0.193125
0.205309
0.215625
0.223757
0.228955
0.229974
0.229999
0.23
0.23
0.23
0.23
0.23
0.23
0.23
0.0849701
0.0882717
0.0916038
0.0948925
0.0923727
0.0900156
0.0883858
0.0872808
0.0865149
0.0851004
0.0833653
0.0824281
0.08201
0.0822471
0.0832927
0.0853146
0.0884848
0.092967
0.0988981
0.106368
0.115401
0.125944
0.137873
0.150937
0.164685
0.178586
0.191992
0.204171
0.214593
0.222903
0.22854
0.229957
0.229998
0.23
0.23
0.23
0.23
0.23
0.23
0.23
0.0880896
0.0912723
0.0944848
0.0976552
0.0952141
0.092926
0.0913277
0.0902282
0.0894481
0.0880506
0.086348
0.0853995
0.0849402
0.0850986
0.0860218
0.0878702
0.0908119
0.0950094
0.100603
0.107692
0.116312
0.126426
0.137933
0.150601
0.164009
0.177643
0.190908
0.203064
0.21357
0.22204
0.228049
0.229926
0.229997
0.23
0.23
0.23
0.23
0.23
0.23
0.23
0.0910991
0.0941697
0.0972682
0.100325
0.0979605
0.0957391
0.0941716
0.0930779
0.0922854
0.0909046
0.0892337
0.0882767
0.0877815
0.0878698
0.0886815
0.0903717
0.0931024
0.0970345
0.102311
0.109037
0.11726
0.126961
0.138055
0.150335
0.163403
0.176766
0.189874
0.201989
0.212559
0.221171
0.227494
0.229874
0.229996
0.23
0.23
0.23
0.23
0.23
0.23
0.23
0.0940047
0.0969685
0.0999576
0.102906
0.100615
0.098459
0.0969224
0.0958355
0.0950324
0.0936682
0.0920278
0.0910643
0.0905374
0.0905625
0.0912729
0.0928172
0.0953532
0.0990382
0.104016
0.110397
0.118241
0.127542
0.138236
0.150134
0.162864
0.175955
0.188887
0.200947
0.211563
0.220302
0.226891
0.229791
0.229995
0.23
0.23
0.23
0.23
0.23
0.23
0.23
0.0968114
0.0996724
0.102556
0.105399
0.103181
0.101089
0.0995839
0.0985055
0.0976939
0.0963463
0.0947354
0.0937667
0.0932116
0.0931794
0.0937972
0.0952072
0.0975622
0.101017
0.105714
0.111769
0.11925
0.128166
0.138471
0.149994
0.162389
0.175205
0.187945
0.199938
0.210585
0.219439
0.22625
0.229669
0.229992
0.229999
0.23
0.23
0.23
0.23
0.23
0.23
0.0995227
0.102284
0.105066
0.107808
0.105661
0.103632
0.102159
0.101091
0.100274
0.0989432
0.0973612
0.0963888
0.0958082
0.0957237
0.0962562
0.0975422
0.099729
0.102968
0.107401
0.113147
0.120282
0.128828
0.138755
0.149912
0.161974
0.174514
0.187051
0.198964
0.209626
0.218583
0.225582
0.229499
0.229988
0.229999
0.23
0.23
0.23
0.23
0.23
0.23
0.102142
0.104807
0.107491
0.110136
0.108057
0.10609
0.10465
0.103595
0.102774
0.101462
0.099909
0.0989344
0.0983311
0.0981986
0.0986524
0.0998233
0.101853
0.10489
0.109076
0.114529
0.121333
0.129524
0.139085
0.149883
0.161617
0.173878
0.186206
0.198024
0.208689
0.217736
0.224896
0.229269
0.229982
0.229999
0.23
0.23
0.23
0.23
0.23
0.23
0.104671
0.107244
0.109834
0.112387
0.110374
0.108466
0.10706
0.106019
0.105198
0.103906
0.102382
0.101407
0.100784
0.100607
0.100988
0.102052
0.103936
0.106784
0.110735
0.115911
0.1224
0.130249
0.139457
0.149905
0.161314
0.173297
0.185409
0.19712
0.207773
0.216898
0.224199
0.228974
0.229972
0.229999
0.23
0.23
0.23
0.23
0.23
0.23
0.107114
0.109599
0.112099
0.114566
0.112614
0.110763
0.109391
0.108365
0.107547
0.106276
0.104782
0.103809
0.103169
0.102953
0.103266
0.104231
0.105978
0.108648
0.112378
0.117291
0.12348
0.131002
0.139868
0.149974
0.161062
0.172769
0.184662
0.196251
0.206879
0.216067
0.223494
0.228617
0.229955
0.229998
0.23
0.23
0.23
0.23
0.23
0.23
0.109474
0.111874
0.114291
0.116675
0.114782
0.112986
0.111646
0.110637
0.109823
0.108575
0.107111
0.106142
0.105489
0.105237
0.105489
0.10636
0.107979
0.110482
0.114004
0.118667
0.12457
0.131779
0.140314
0.150087
0.16086
0.172291
0.183965
0.195415
0.206009
0.215246
0.222785
0.228202
0.229927
0.229997
0.23
0.23
0.23
0.23
0.23
0.23
0.111755
0.114075
0.116413
0.11872
0.116882
0.115137
0.113829
0.112837
0.112029
0.110803
0.109371
0.108409
0.107744
0.107461
0.107657
0.108442
0.109942
0.112288
0.115612
0.120038
0.125668
0.132577
0.140793
0.150241
0.160705
0.17186