/*--------------------------------*- C++ -*----------------------------------*\
| =========                 |                                                 |
| \\      /  F ield         | OpenFOAM: The Open Source CFD Toolbox           |
|  \\    /   O peration     | Version:  1.6.x                                 |
|   \\  /    A nd           | Web:      www.OpenFOAM.org                      |
|    \\/     M anipulation  |                                                 |
\*---------------------------------------------------------------------------*/
FoamFile
{
    version     2.0;
    format      ascii;
    class       volScalarField;
    location    "2";
    object      p;
}
// * * * * * * * * * * * * * * * * * * * * * * * * * * * * * * * * * * * * * //

dimensions      [1 -1 -2 0 0 0 0];

internalField   nonuniform List<scalar> 
4608
(
100052
100082
100045
99886
100106
100082
100042
99883.8
99860.2
99866.8
100129
100106
100081
100040
99892.3
99854.8
99866.1
99862.5
99864.3
100151
100129
100106
100081
99893.5
99856.8
99866.8
99866.2
99865.9
99863.2
99859.9
99864.7
100174
100151
100129
100106
99855.1
99867.9
99867.5
99865.4
99865.9
99864.2
99863.2
99861.2
99864.5
99863.8
100197
100174
100151
100129
99867.1
99868
99865.9
99865.7
99865.3
99864.6
99863.4
99863.5
99861.9
99864.3
99866.1
99863.5
100221
100197
100174
100151
99867.8
99865.7
99866.1
99866.1
99865.5
99864.3
99863.9
99863.5
99863.5
99861.9
99864.4
99866.1
99868
99863.1
100245
100221
100197
100174
99865.4
99865.8
99866.5
99866.5
99865.9
99864.5
99863.9
99863.8
99863.5
99863.5
99864.4
99866.1
99868
99869.9
99863.6
100269
100245
100221
100197
99865.7
99866.4
99866.8
99866.9
99866.2
99864.8
99864.1
99863.9
99863.8
99863.5
99863.5
99866.1
99868
99869.9
99871.8
99863.6
100293
100269
100245
100221
99866.3
99866.7
99867.2
99867.3
99866.6
99865.2
99864.3
99864.1
99864
99863.7
99863.6
99863.5
99868
99869.9
99871.8
99873.6
99863.6
100317
100293
100269
100245
99866.7
99867.1
99867.6
99867.8
99867
99865.5
99864.7
99864.3
99864.1
99863.9
99863.7
99863.6
99863.5
99869.9
99871.8
99873.6
99875.5
99863.5
100342
100317
100293
100269
99867.1
99867.6
99868
99868.2
99867.4
99865.9
99865.1
99864.7
99864.3
99864
99863.9
99863.7
99863.6
99863.5
99871.8
99873.6
99875.5
99877.3
99863.5
100367
100342
100317
100293
99867.5
99868
99868.5
99868.7
99867.9
99866.3
99865.5
99865
99864.6
99864.3
99864.1
99863.9
99863.7
99863.6
99863.5
99873.6
99875.5
99877.3
99879.2
99863.5
100392
100367
100342
100317
99868
99868.5
99868.9
99869.1
99868.3
99866.8
99865.9
99865.4
99865
99864.6
99864.3
99864
99863.9
99863.7
99863.6
99863.5
99875.5
99877.3
99879.2
99881
99863.5
100417
100392
100367
100342
99868.5
99869
99869.4
99869.6
99868.8
99867.2
99866.3
99865.8
99865.4
99864.9
99864.7
99864.3
99864
99863.8
99863.7
99863.6
99863.5
99877.3
99879.2
99881
99882.8
99863.5
100441
100417
100392
100367
99869
99869.5
99869.9
99870.3
99869.3
99867.7
99866.8
99866.3
99865.8
99865.3
99865
99864.7
99864.3
99864
99863.8
99863.7
99863.6
99863.5
99879.2
99881
99882.8
99884.6
99863.4
100464
100442
100417
100392
99869.5
99870
99870.6
99871.2
99870
99868.1
99867.2
99866.8
99866.2
99865.7
99865.4
99865
99864.6
99864.3
99864
99863.8
99863.7
99863.6
99863.5
99881
99882.8
99884.6
99886.3
99863.4
100486
100464
100442
100417
99870
99870.8
99871.5
99872.2
99870.8
99868.8
99867.7
99867.2
99866.7
99866.1
99865.7
99865.4
99865
99864.6
99864.3
99864
99863.8
99863.7
99863.5
99863.5
99882.8
99884.6
99886.3
99888.1
99863.4
100513
100486
100464
100441
99870.7
99871.7
99872.5
99873.5
99871.7
99869.5
99868.4
99867.7
99867.2
99866.6
99866.1
99865.7
99865.3
99864.9
99864.6
99864.3
99864
99863.8
99863.7
99863.5
99863.4
99884.6
99886.4
99888.2
99890
99863.4
100543
100511
100486
100463
99871.6
99872.7
99873.8
99875.2
99872.9
99870.3
99869.1
99868.4
99867.6
99867
99866.6
99866.1
99865.7
99865.3
99864.9
99864.6
99864.3
99864
99863.8
99863.6
99863.5
99863.4
99886.3
99888.1
99890
99892
99863.4
100535
100513
100486
99872.7
99874.1
99875.6
99880.6
99874.3
99871.2
99869.8
99869.1
99868.3
99867.5
99867.1
99866.6
99866.1
99865.7
99865.3
99864.9
99864.5
99864.2
99864
99863.8
99863.6
99863.5
99863.4
99888.1
99890
99892
99893.9
99863.4
100537
100512
99874.1
99875.9
99880.4
99877.4
99878.4
99872.1
99870.7
99869.8
99869
99868.2
99867.5
99867.1
99866.6
99866.1
99865.7
99865.3
99864.9
99864.5
99864.2
99864
99863.8
99863.6
99863.5
99863.4
99890
99892
99893.9
99895.9
99863.3
100536
99875.9
99880.2
99877.4
99869.4
99875.1
99874.3
99871.5
99870.6
99869.7
99868.9
99868.2
99867.6
99867.1
99866.6
99866.1
99865.7
99865.2
99864.9
99864.5
99864.2
99864
99863.8
99863.6
99863.5
99863.4
99891.9
99893.9
99895.9
99898.8
99863.3
99880
99877.4
99870.1
99873.6
99869.2
99872.3
99873.1
99871.4
99870.5
99869.6
99868.9
99868.2
99867.6
99867.1
99866.6
99866.1
99865.6
99865.2
99864.8
99864.5
99864.2
99864
99863.8
99863.6
99863.5
99863.4
99893.9
99895.9
99898.7
99902.2
99863.3
99877.5
99870.7
99874.6
99877.3
99873.3
99870
99872.7
99872.7
99871.3
99870.4
99869.6
99868.8
99868.2
99867.6
99867.1
99866.5
99866.1
99865.6
99865.2
99864.8
99864.5
99864.2
99863.9
99863.7
99863.6
99863.4
99863.4
99895.9
99898.7
99901.9
99863.3
99870.9
99874.9
99878.9
99880.3
99876.5
99873.5
99871.9
99873
99872.4
99871.1
99870.4
99869.6
99868.9
99868.2
99867.6
99867
99866.5
99866
99865.6
99865.2
99864.8
99864.5
99864.2
99863.9
99863.7
99863.6
99863.4
99863.4
99898.7
99901.9
99863.3
99874.8
99879.5
99883.9
99878.1
99878.9
99876.1
99873.9
99872.8
99873
99872.1
99871.1
99870.4
99869.6
99868.9
99868.2
99867.6
99867
99866.5
99866
99865.6
99865.2
99864.8
99864.5
99864.2
99863.9
99863.7
99863.6
99863.4
99863.3
99902.5
99863.3
99879.6
99884.4
99882
99875.4
99877.6
99878.1
99875.7
99874
99873
99872.8
99872.1
99871.1
99870.3
99869.6
99868.9
99868.2
99867.6
99867
99866.5
99866
99865.5
99865.1
99864.8
99864.4
99864.2
99863.9
99863.7
99863.5
99863.4
99863.3
99863.3
99884.2
99882.5
99875.9
99878.3
99876
99878
99877.3
99875.6
99874.1
99873.1
99872.9
99872
99871
99870.3
99869.5
99868.8
99868.2
99867.6
99867
99866.5
99866
99865.5
99865.1
99864.8
99864.4
99864.1
99863.9
99863.7
99863.5
99863.4
99863.3
99863.3
99882.5
99876.9
99878.9
99882
99878.4
99877.1
99877.7
99876.8
99875.4
99874.1
99873.2
99872.8
99871.9
99871
99870.3
99869.5
99868.8
99868.2
99867.5
99867
99866.4
99865.9
99865.5
99865.1
99864.7
99864.4
99864.1
99863.9
99863.7
99863.5
99863.4
99863.3
99863.3
99877.4
99880.7
99884
99881.1
99881.6
99878.8
99877.6
99877.5
99876.6
99875.3
99874.1
99873.3
99872.8
99871.9
99871
99870.3
99869.5
99868.8
99868.1
99867.5
99866.9
99866.4
99865.9
99865.5
99865.1
99864.7
99864.4
99864.1
99863.9
99863.7
99863.5
99863.4
99863.4
99863.3
99881.3
99888.1
99881.8
99880.7
99881.2
99881.5
99878.9
99877.8
99877.4
99876.4
99875.4
99874.1
99873.3
99872.7
99871.8
99871
99870.2
99869.5
99868.8
99868.1
99867.5
99866.9
99866.4
99865.9
99865.5
99865.1
99864.7
99864.4
99864.1
99863.9
99863.7
99863.5
99863.4
99863.3
99863.3
99888.8
99885.3
99879.4
99883.1
99881
99881.7
99881
99879
99878
99877.2
99876.4
99875.3
99874.1
99873.3
99872.7
99871.8
99871
99870.2
99869.5
99868.7
99868.1
99867.5
99866.9
99866.4
99865.9
99865.5
99865.1
99864.7
99864.4
99864.1
99863.9
99863.7
99863.6
99863.4
99863.4
99863.3
99886.1
99879
99882.5
99884.7
99883.2
99881.6
99881.6
99880.7
99879.1
99878
99877.3
99876.3
99875.3
99874.2
99873.4
99872.6
99871.8
99871
99870.2
99869.4
99868.7
99868.1
99867.4
99866.9
99866.4
99865.9
99865.5
99865.1
99864.7
99864.4
99864.2
99863.9
99863.7
99863.6
99863.5
99863.4
99863.4
99881.9
99882
99884.3
99886.7
99884.8
99883.3
99881.9
99881.5
99880.5
99879.1
99878
99877.2
99876.2
99875.2
99874.2
99873.4
99872.6
99871.7
99870.9
99870.1
99869.4
99868.7
99868
99867.4
99866.9
99866.4
99865.9
99865.5
99865.1
99864.7
99864.4
99864.2
99863.9
99863.7
99863.6
99863.4
99863.4
99863.3
99884.8
99883.5
99886.8
99888.1
99886.7
99884.8
99883.5
99882.1
99881.5
99880.4
99879.1
99878.1
99877.2
99876.2
99875.2
99874.2
99873.4
99872.6
99871.7
99870.9
99870.1
99869.4
99868.7
99868
99867.4
99866.9
99866.4
99865.9
99865.5
99865.1
99864.8
99864.4
99864.2
99864
99863.8
99863.6
99863.5
99863.4
99863.4
99883.2
99886.9
99888.3
99889.3
99888.1
99886.5
99884.9
99883.5
99882.2
99881.4
99880.5
99879.1
99878.1
99877.1
99876.1
99875.2
99874.2
99873.4
99872.5
99871.7
99870.8
99870.1
99869.3
99868.6
99868
99867.4
99866.9
99866.4
99865.9
99865.5
99865.1
99864.8
99864.5
99864.2
99864
99863.8
99863.6
99863.5
99863.4
99863.2
99887.2
99888.4
99889.4
99890.5
99889.3
99887.9
99886.4
99884.9
99883.6
99882.2
99881.4
99880.4
99879.1
99878
99877.1
99876.1
99875.2
99874.2
99873.3
99872.5
99871.6
99870.8
99870
99869.3
99868.6
99868
99867.4
99866.9
99866.4
99865.9
99865.5
99865.1
99864.8
99864.5
99864.2
99864
99863.8
99863.6
99863.5
99863.3
99888.8
99889.5
99890.6
99891.7
99890.5
99889.1
99887.7
99886.3
99884.9
99883.6
99882.2
99881.4
99880.4
99879.1
99878
99877.1
99876.1
99875.1
99874.2
99873.3
99872.4
99871.6
99870.8
99870
99869.3
99868.6
99868
99867.4
99866.9
99866.4
99866
99865.5
99865.2
99864.8
99864.5
99864.2
99864
99863.8
99863.6
99863.3
99889.7
99890.6
99891.8
99892.9
99891.7
99890.3
99888.9
99887.6
99886.2
99884.8
99883.6
99882.3
99881.3
99880.3
99879.1
99878
99877.1
99876.1
99875.1
99874.2
99873.3
99872.4
99871.5
99870.7
99870
99869.3
99868.6
99868
99867.4
99866.9
99866.4
99866
99865.6
99865.2
99864.9
99864.6
99864.3
99864
99863.8
99863.5
99890.8
99891.8
99892.9
99894.1
99892.9
99891.5
99890.2
99888.8
99887.5
99886.1
99884.8
99883.6
99882.2
99881.3
99880.2
99879.1
99878
99877
99876.1
99875.1
99874.1
99873.2
99872.3
99871.5
99870.7
99870
99869.3
99868.6
99868
99867.5
99867
99866.5
99866.1
99865.6
99865.3
99864.9
99864.6
99864.3
99864
99863.7
99892
99893
99894.1
99895.3
99894.1
99892.8
99891.4
99890.1
99888.7
99887.4
99886.1
99884.8
99883.5
99882.2
99881.2
99880.2
99879.1
99878
99877
99876
99875
99874.1
99873.2
99872.3
99871.5
99870.7
99870
99869.3
99868.7
99868.1
99867.5
99867
99866.5
99866.1
99865.7
99865.3
99864.9
99864.6
99864.3
99863.9
99893.1
99894.1
99895.3
99896.5
99895.3
99894
99892.6
99891.3
99889.9
99888.6
99887.3
99886
99884.8
99883.5
99882.2
99881.2
99880.1
99879
99878
99877
99876
99875
99874
99873.1
99872.3
99871.5
99870.7
99870
99869.3
99868.7
99868.1
99867.6
99867.1
99866.6
99866.2
99865.7
99865.3
99864.9
99864.6
99864.1
99894.3
99895.3
99896.5
99897.7
99896.5
99895.2
99893.9
99892.5
99891.2
99889.9
99888.6
99887.3
99886
99884.7
99883.5
99882.2
99881.2
99880.1
99879
99878
99876.9
99875.9
99875
99874
99873.1
99872.3
99871.5
99870.7
99870
99869.4
99868.7
99868.2
99867.6
99867.1
99866.7
99866.2
99865.8
99865.3
99864.9
99864.4
99895.5
99896.6
99897.8
99899
99897.8
99896.4
99895.1
99893.8
99892.4
99891.1
99889.8
99888.5
99887.2
99885.9
99884.7
99883.4
99882.2
99881.2
99880.1
99879
99877.9
99876.9
99875.9
99874.9
99874
99873.1
99872.3
99871.5
99870.7
99870.1
99869.4
99868.8
99868.2
99867.7
99867.2
99866.7
99866.2
99865.7
99865.3
99864.8
99896.7
99897.8
99899
99900.3
99899
99897.7
99896.4
99895
99893.7
99892.4
99891.1
99889.8
99888.5
99887.1
99885.9
99884.6
99883.4
99882.2
99881.1
99880
99879
99877.9
99876.9
99875.8
99874.9
99874
99873.1
99872.3
99871.5
99870.8
99870.1
99869.5
99868.9
99868.3
99867.8
99867.2
99866.7
99866.2
99865.7
99865.2
99897.9
99899
99900.3
99901.6
99900.3
99898.9
99897.6
99896.3
99895
99893.6
99892.3
99891
99889.7
99888.4
99887.1
99885.8
99884.6
99883.4
99882.2
99881.1
99880
99878.9
99877.9
99876.8
99875.8
99874.9
99874
99873.1
99872.3
99871.6
99870.9
99870.2
99869.6
99868.9
99868.4
99867.8
99867.3
99866.7
99866.2
99865.6
99899.1
99900.3
99901.6
99902.9
99901.6
99900.2
99898.9
99897.5
99896.2
99894.9
99893.6
99892.3
99891
99889.6
99888.3
99887
99885.8
99884.6
99883.4
99882.2
99881.1
99880
99878.9
99877.8
99876.8
99875.8
99874.9
99874
99873.2
99872.4
99871.6
99870.9
99870.3
99869.6
99869
99868.4
99867.9
99867.2
99866.7
99866
99900.4
99901.6
99902.9
99904.2
99902.9
99901.5
99900.1
99898.8
99897.5
99896.2
99894.9
99893.5
99892.2
99890.9
99889.5
99888.2
99887
99885.8
99884.5
99883.4
99882.2
99881
99879.9
99878.8
99877.8
99876.8
99875.8
99874.9
99874
99873.2
99872.4
99871.7
99871
99870.3
99869.7
99869.1
99868.5
99867.8
99867.2
99866.5
99901.7
99902.9
99904.2
99905.5
99904.2
99902.8
99901.5
99900.1
99898.8
99897.4
99896.1
99894.8
99893.5
99892.1
99890.8
99889.5
99888.2
99887
99885.7
99884.5
99883.3
99882.2
99881
99879.9
99878.8
99877.7
99876.8
99875.8
99874.9
99874.1
99873.3
99872.5
99871.8
99871.1
99870.5
99869.7
99869.1
99868.4
99867.8
99867.1
99903
99904.2
99905.5
99906.9
99905.6
99904.2
99902.8
99901.4
99900
99898.7
99897.4
99896.1
99894.8
99893.4
99892.1
99890.7
99889.4
99888.2
99886.9
99885.7
99884.5
99883.3
99882.1
99881
99879.8
99878.8
99877.7
99876.8
99875.8
99875
99874.2
99873.4
99872.6
99871.9
99871.2
99870.5
99869.8
99869.1
99868.4
99867.6
99904.3
99905.6
99906.9
99908.3
99906.9
99905.5
99904.1
99902.8
99901.4
99900
99898.7
99897.4
99896
99894.7
99893.3
99892
99890.7
99889.4
99888.1
99886.9
99885.7
99884.4
99883.2
99882.1
99880.9
99879.8
99878.8
99877.8
99876.8
99875.9
99875.1
99874.2
99873.5
99872.7
99872
99871.2
99870.5
99869.8
99869
99868.2
99905.6
99906.9
99908.3
99909.7
99908.3
99906.9
99905.5
99904.1
99902.7
99901.4
99900
99898.7
99897.3
99896
99894.6
99893.2
99891.9
99890.7
99889.4
99888.1
99886.9
99885.6
99884.4
99883.2
99882
99880.9
99879.8
99878.8
99877.8
99876.9
99876
99875.1
99874.4
99873.6
99872.8
99872
99871.3
99870.5
99869.7
99868.9
99907
99908.3
99909.7
99911.1
99909.7
99908.2
99906.8
99905.4
99904.1
99902.7
99901.3
99899.9
99898.6
99897.3
99895.9
99894.5
99893.2
99891.9
99890.6
99889.3
99888.1
99886.8
99885.6
99884.4
99883.2
99882
99880.9
99879.8
99878.8
99877.8
99876.9
99876.1
99875.3
99874.4
99873.7
99872.8
99872.1
99871.2
99870.4
99869.5
99908.4
99909.7
99911.1
99912.5
99911.1
99909.6
99908.2
99906.8
99905.4
99904
99902.7
99901.3
99899.9
99898.5
99897.2
99895.8
99894.5
99893.2
99891.9
99890.6
99889.3
99888
99886.8
99885.5
99884.3
99883.1
99882
99880.9
99879.9
99878.9
99877.9
99877
99876.2
99875.4
99874.6
99873.7
99872.9
99872
99871.2
99870.2
99909.7
99911.1
99912.5
99914
99912.6
99911.1
99909.6
99908.2
99906.8
99905.4
99904
99902.6
99901.2
99899.8
99898.4
99897.1
99895.8
99894.5
99893.1
99891.8
99890.5
99889.3
99888
99886.7
99885.5
99884.3
99883.1
99882
99880.9
99879.9
99879
99878
99877.2
99876.3
99875.5
99874.6
99873.8
99872.8
99871.9
99870.9
99911.2
99912.5
99914
99915.4
99914
99912.5
99911
99909.6
99908.1
99906.8
99905.4
99904
99902.6
99901.2
99899.7
99898.4
99897
99895.7
99894.4
99893.1
99891.8
99890.5
99889.2
99887.9
99886.7
99885.4
99884.2
99883.1
99882
99881
99880
99879.1
99878.2
99877.3
99876.4
99875.5
99874.6
99873.6
99872.7
99871.7
99912.6
99914
99915.4
99916.9
99915.5
99913.9
99912.5
99911
99909.6
99908.1
99906.7
99905.3
99904
99902.5
99901.1
99899.7
99898.3
99897
99895.7
99894.4
99893.1
99891.8
99890.5
99889.2
99887.9
99886.6
99885.4
99884.2
99883.1
99882.1
99881.1
99880.1
99879.2
99878.3
99877.4
99876.4
99875.5
99874.5
99873.5
99872.5
99914
99915.4
99916.9
99918.4
99916.9
99915.4
99913.9
99912.4
99911
99909.6
99908.1
99906.7
99905.3
99903.9
99902.4
99901
99899.6
99898.3
99897
99895.7
99894.4
99893
99891.7
99890.4
99889.1
99887.8
99886.6
99885.4
99884.3
99883.2
99882.2
99881.2
99880.2
99879.3
99878.4
99877.4
99876.5
99875.4
99874.4
99873.3
99915.5
99916.9
99918.4
99919.9
99918.4
99916.9
99915.4
99913.9
99912.4
99911
99909.5
99908.1
99906.7
99905.2
99903.8
99902.3
99901
99899.6
99898.3
99897
99895.6
99894.3
99893
99891.7
99890.4
99889.1
99887.8
99886.6
99885.4
99884.3
99883.3
99882.3
99881.3
99880.3
99879.4
99878.4
99877.4
99876.3
99875.3
99874.2
99917
99918.4
99919.9
99921.4
99919.9
99918.4
99916.9
99915.4
99913.9
99912.4
99911
99909.5
99908
99906.6
99905.1
99903.7
99902.3
99901
99899.6
99898.3
99896.9
99895.6
99894.3
99892.9
99891.6
99890.3
99889
99887.8
99886.6
99885.5
99884.4
99883.4
99882.4
99881.4
99880.4
99879.4
99878.4
99877.3
99876.2
99875
99918.5
99919.9
99921.3
99922.8
99921.4
99919.9
99918.4
99916.8
99915.3
99913.9
99912.4
99910.9
99909.4
99908
99906.5
99905.1
99903.7
99902.3
99901
99899.6
99898.3
99896.9
99895.6
99894.2
99892.9
99891.6
99890.3
99889
99887.8
99886.7
99885.6
99884.5
99883.5
99882.5
99881.5
99880.4
99879.4
99878.2
99877.1
99875.9
99920
99921.3
99922.8
99924.3
99922.9
99921.3
99919.8
99918.3
99916.8
99915.3
99913.9
99912.4
99910.9
99909.3
99907.8
99906.4
99905.1
99903.7
99902.3
99900.9
99899.6
99898.2
99896.9
99895.5
99894.2
99892.9
99891.5
99890.3
99889
99887.9
99886.7
99885.7
99884.6
99883.6
99882.6
99881.5
99880.4
99879.2
99878.1
99876.8
99921.4
99922.8
99924.3
99925.8
99924.3
99922.8
99921.3
99919.8
99918.3
99916.8
99915.3
99913.8
99912.3
99910.7
99909.2
99907.8
99906.4
99905
99903.7
99902.3
99900.9
99899.6
99898.2
99896.8
99895.5
99894.1
99892.8
99891.5
99890.3
99889.1
99887.9
99886.8
99885.8
99884.7
99883.7
99882.6
99881.5
99880.3
99879.1
99877.8
99922.9
99924.3
99925.8
99927.1
99925.8
99924.3
99922.8
99921.3
99919.8
99918.3
99916.8
99915.2
99913.7
99912.2
99910.7
99909.2
99907.8
99906.4
99905
99903.7
99902.3
99900.9
99899.5
99898.2
99896.8
99895.5
99894.1
99892.8
99891.5
99890.3
99889.1
99888
99886.9
99885.9
99884.8
99883.7
99882.6
99881.3
99880.1
99878.7
99924.4
99925.8
99927.1
99928.6
99927.1
99925.7
99924.2
99922.7
99921.2
99919.7
99918.2
99916.7
99915.1
99913.6
99912.1
99910.7
99909.2
99907.8
99906.4
99905
99903.6
99902.2
99900.9
99899.5
99898.1
99896.8
99895.4
99894.1
99892.8
99891.6
99890.4
99889.2
99888.1
99887
99885.9
99884.8
99883.7
99882.3
99881.1
99879.7
99925.8
99927.2
99928.6
99930.2
99928.6
99927.1
99925.6
99924.1
99922.6
99921.1
99919.6
99918.1
99916.6
99915
99913.6
99912.1
99910.7
99909.2
99907.8
99906.4
99905
99903.6
99902.2
99900.8
99899.5
99898.1
99896.7
99895.4
99894.1
99892.8
99891.6
99890.5
99889.3
99888.2
99887.1
99885.9
99884.8
99883.4
99882.1
99880.7
99927.2
99928.6
99930.2
99931.8
99930.2
99928.6
99927
99925.5
99924
99922.5
99921
99919.5
99918
99916.5
99915.1
99913.6
99912.1
99910.7
99909.2
99907.8
99906.4
99905
99903.6
99902.2
99900.8
99899.4
99898.1
99896.7
99895.4
99894.1
99892.9
99891.7
99890.6
99889.4
99888.3
99887.1
99885.9
99884.5
99883.2
99881.8
99928.7
99930.2
99931.8
99933.3
99931.8
99930.2
99928.6
99927.1
99925.6
99924
99922.5
99921
99919.5
99918.1
99916.6
99915.1
99913.6
99912.1
99910.7
99909.2
99907.8
99906.4
99905
99903.6
99902.2
99900.8
99899.4
99898
99896.7
99895.4
99894.2
99892.9
99891.8
99890.6
99889.5
99888.2
99887
99885.6
99884.3
99882.8
99930.2
99931.8
99933.3
99934.9
99933.3
99931.8
99930.2
99928.7
99927.1
99925.6
99924.1
99922.5
99921
99919.6
99918.1
99916.6
99915.1
99913.6
99912.1
99910.7
99909.2
99907.8
99906.4
99905
99903.6
99902.1
99900.8
99899.4
99898
99896.7
99895.4
99894.2
99893
99891.9
99890.7
99889.4
99888.2
99886.8
99885.4
99883.9
99931.8
99933.3
99934.9
99936.4
99934.9
99933.3
99931.8
99930.2
99928.7
99927.1
99925.6
99924.1
99922.6
99921.1
99919.6
99918.1
99916.6
99915.1
99913.6
99912.1
99910.7
99909.2
99907.8
99906.4
99904.9
99903.5
99902.1
99900.7
99899.4
99898
99896.8
99895.5
99894.3
99893.1
99891.9
99890.6
99889.4
99887.9
99886.5
99885
99933.3
99934.9
99936.4
99937.9
99936.4
99934.8
99933.3
99931.8
99930.2
99928.7
99927.1
99925.6
99924.1
99922.6
99921.1
99919.6
99918.1
99916.6
99915.1
99913.6
99912.1
99910.7
99909.2
99907.8
99906.3
99904.9
99903.5
99902.1
99900.7
99899.4
99898.1
99896.8
99895.6
99894.4
99893.2
99891.9
99890.6
99889.1
99887.6
99886.1
99934.9
99936.4
99937.9
99939.5
99937.9
99936.4
99934.8
99933.3
99931.8
99930.2
99928.7
99927.1
99925.6
99924.1
99922.6
99921.1
99919.6
99918.1
99916.6
99915.1
99913.6
99912.1
99910.7
99909.2
99907.8
99906.3
99904.9
99903.5
99902.1
99900.7
99899.4
99898.1
99896.9
99895.6
99894.4
99893.1
99891.8
99890.3
99888.8
99887.3
99936.4
99937.9
99939.5
99941
99939.5
99937.9
99936.4
99934.8
99933.3
99931.8
99930.2
99928.7
99927.1
99925.6
99924.1
99922.6
99921.1
99919.6
99918.1
99916.6
99915.1
99913.6
99912.1
99910.7
99909.2
99907.7
99906.3
99904.9
99903.5
99902.1
99900.8
99899.5
99898.2
99896.9
99895.7
99894.3
99893
99891.5
99890
99888.4
99937.9
99939.5
99941
99942.6
99941
99939.5
99937.9
99936.4
99934.8
99933.3
99931.8
99930.2
99928.7
99927.2
99925.6
99924.1
99922.6
99921.1
99919.6
99918.1
99916.6
99915.1
99913.6
99912.1
99910.6
99909.2
99907.7
99906.3
99904.9
99903.5
99902.1
99900.8
99899.5
99898.2
99897
99895.6
99894.3
99892.7
99891.2
99889.6
99939.5
99941
99942.6
99944.2
99942.6
99941
99939.5
99937.9
99936.4
99934.8
99933.3
99931.8
99930.2
99928.7
99927.2
99925.6
99924.1
99922.6
99921.1
99919.6
99918.1
99916.6
99915.1
99913.6
99912.1
99910.6
99909.2
99907.7
99906.3
99904.9
99903.5
99902.1
99900.9
99899.5
99898.3
99896.9
99895.5
99893.9
99892.4
99890.8
99941
99942.6
99944.2
99945.7
99944.2
99942.6
99941
99939.5
99937.9
99936.4
99934.8
99933.3
99931.8
99930.2
99928.7
99927.2
99925.6
99924.1
99922.6
99921.1
99919.6
99918.1
99916.6
99915.1
99913.6
99912.1
99910.6
99909.1
99907.7
99906.3
99904.9
99903.5
99902.2
99900.9
99899.6
99898.2
99896.8
99895.2
99893.6
99892
99942.6
99944.2
99945.7
99947.3
99945.7
99944.2
99942.6
99941
99939.5
99937.9
99936.4
99934.8
99933.3
99931.8
99930.2
99928.7
99927.2
99925.6
99924.1
99922.6
99921.1
99919.6
99918.1
99916.5
99915
99913.5
99912.1
99910.6
99909.1
99907.7
99906.3
99904.9
99903.6
99902.2
99900.9
99899.5
99898.1
99896.5
99894.9
99893.2
99944.2
99945.7
99947.3
99948.9
99947.3
99945.7
99944.1
99942.6
99941
99939.5
99937.9
99936.4
99934.8
99933.3
99931.8
99930.2
99928.7
99927.2
99925.6
99924.1
99922.6
99921.1
99919.6
99918
99916.5
99915
99913.5
99912
99910.5
99909.1
99907.7
99906.3
99904.9
99903.6
99902.2
99900.8
99899.4
99897.7
99896.2
99894.5
99945.7
99947.3
99948.9
99950.4
99948.9
99947.3
99945.7
99944.1
99942.6
99941
99939.5
99937.9
99936.4
99934.8
99933.3
99931.8
99930.2
99928.7
99927.2
99925.6
99924.1
99922.6
99921.1
99919.5
99918
99916.5
99915
99913.5
99912
99910.5
99909.1
99907.7
99906.3
99904.9
99903.6
99902.1
99900.7
99899
99897.4
99895.7
99947.3
99948.9
99950.4
99952
99950.4
99948.8
99947.3
99945.7
99944.1
99942.6
99941
99939.5
99937.9
99936.4
99934.8
99933.3
99931.8
99930.2
99928.7
99927.2
99925.6
99924.1
99922.6
99921
99919.5
99918
99916.5
99915
99913.5
99912
99910.5
99909.1
99907.7
99906.3
99905
99903.5
99902
99900.3
99898.7
99897
99948.9
99950.4
99952
99953.5
99952
99950.4
99948.8
99947.3
99945.7
99944.1
99942.6
99941
99939.5
99937.9
99936.4
99934.8
99933.3
99931.8
99930.2
99928.7
99927.2
99925.6
99924.1
99922.6
99921
99919.5
99918
99916.5
99914.9
99913.4
99912
99910.5
99909.1
99907.7
99906.3
99904.8
99903.4
99901.7
99900
99898.3
99950.4
99952
99953.5
99955.1
99953.5
99952
99950.4
99948.8
99947.3
99945.7
99944.1
99942.6
99941
99939.5
99937.9
99936.4
99934.8
99933.3
99931.7
99930.2
99928.7
99927.1
99925.6
99924.1
99922.5
99921
99919.5
99917.9
99916.4
99914.9
99913.4
99912
99910.6
99909.1
99907.7
99906.2
99904.7
99903
99901.4
99899.6
99952
99953.5
99955.1
99956.7
99955.1
99953.5
99952
99950.4
99948.8
99947.3
99945.7
99944.1
99942.6
99941
99939.5
99937.9
99936.4
99934.8
99933.3
99931.7
99930.2
99928.7
99927.1
99925.6
99924.1
99922.5
99921
99919.4
99917.9
99916.4
99914.9
99913.4
99912
99910.5
99909.1
99907.6
99906.1
99904.3
99902.7
99900.9
99953.5
99955.1
99956.7
99958.2
99956.7
99955.1
99953.5
99952
99950.4
99948.8
99947.3
99945.7
99944.1
99942.6
99941
99939.5
99937.9
99936.4
99934.8
99933.3
99931.7
99930.2
99928.7
99927.1
99925.6
99924
99922.5
99920.9
99919.4
99917.9
99916.4
99914.9
99913.4
99911.9
99910.5
99909
99907.5
99905.7
99904.1
99902.3
99955.1
99956.7
99958.2
99959.8
99958.2
99956.7
99955.1
99953.5
99952
99950.4
99948.8
99947.3
99945.7
99944.1
99942.6
99941
99939.5
99937.9
99936.4
99934.8
99933.3
99931.7
99930.2
99928.6
99927.1
99925.5
99924
99922.4
99920.9
99919.4
99917.8
99916.3
99914.9
99913.4
99911.9
99910.4
99908.8
99907.1
99905.4
99903.6
99956.7
99958.2
99959.8
99961.4
99959.8
99958.2
99956.6
99955.1
99953.5
99952
99950.4
99948.8
99947.3
99945.7
99944.1
99942.6
99941
99939.4
99937.9
99936.3
99934.8
99933.3
99931.7
99930.2
99928.6
99927.1
99925.5
99924
99922.4
99920.9
99919.3
99917.8
99916.3
99914.8
99913.4
99911.8
99910.2
99908.5
99906.8
99905
99958.2
99959.8
99961.4
99962.9
99961.4
99959.8
99958.2
99956.6
99955.1
99953.5
99952
99950.4
99948.8
99947.3
99945.7
99944.1
99942.6
99941
99939.4
99937.9
99936.3
99934.8
99933.2
99931.7
99930.1
99928.6
99927
99925.5
99923.9
99922.4
99920.8
99919.3
99917.8
99916.3
99914.8
99913.2
99911.6
99909.9
99908.2
99906.4
99959.8
99961.4
99962.9
99964.5
99962.9
99961.4
99959.8
99958.2
99956.6
99955.1
99953.5
99952
99950.4
99948.8
99947.3
99945.7
99944.1
99942.6
99941
99939.4
99937.9
99936.3
99934.8
99933.2
99931.7
99930.1
99928.6
99927
99925.4
99923.9
99922.3
99920.8
99919.3
99917.7
99916.2
99914.6
99913.1
99911.3
99909.6
99907.7
99961.4
99962.9
99964.5
99966.1
99964.5
99962.9
99961.4
99959.8
99958.2
99956.6
99955.1
99953.5
99951.9
99950.4
99948.8
99947.3
99945.7
99944.1
99942.6
99941
99939.4
99937.9
99936.3
99934.8
99933.2
99931.6
99930.1
99928.5
99927
99925.4
99923.8
99922.3
99920.8
99919.2
99917.7
99916.1
99914.5
99912.7
99911
99909.2
99962.9
99964.5
99966.1
99967.7
99966.1
99964.5
99962.9
99961.4
99959.8
99958.2
99956.6
99955.1
99953.5
99951.9
99950.4
99948.8
99947.2
99945.7
99944.1
99942.5
99941
99939.4
99937.9
99936.3
99934.7
99933.2
99931.6
99930.1
99928.5
99926.9
99925.3
99923.8
99922.2
99920.7
99919.2
99917.5
99915.9
99914.1
99912.4
99910.6
99964.5
99966.1
99967.7
99969.3
99967.7
99966.1
99964.5
99962.9
99961.3
99959.8
99958.2
99956.6
99955.1
99953.5
99951.9
99950.4
99948.8
99947.2
99945.7
99944.1
99942.5
99941
99939.4
99937.8
99936.3
99934.7
99933.2
99931.6
99930
99928.4
99926.9
99925.3
99923.7
99922.2
99920.6
99919
99917.4
99915.6
99913.9
99912
99966.1
99967.7
99969.3
99970.8
99969.3
99967.7
99966.1
99964.5
99962.9
99961.4
99959.8
99958.2
99956.6
99955.1
99953.5
99951.9
99950.4
99948.8
99947.2
99945.7
99944.1
99942.5
99941
99939.4
99937.8
99936.3
99934.7
99933.1
99931.6
99930
99928.4
99926.8
99925.2
99923.7
99922.1
99920.4
99918.8
99917
99915.3
99913.4
99967.7
99969.3
99970.8
99972.4
99970.8
99969.3
99967.7
99966.1
99964.5
99962.9
99961.3
99959.8
99958.2
99956.6
99955.1
99953.5
99951.9
99950.4
99948.8
99947.2
99945.7
99944.1
99942.5
99940.9
99939.4
99937.8
99936.2
99934.7
99933.1
99931.5
99929.9
99928.3
99926.8
99925.2
99923.6
99921.9
99920.3
99918.5
99916.8
99914.9
99969.3
99970.8
99972.4
99974
99972.4
99970.8
99969.3
99967.7
99966.1
99964.5
99962.9
99961.3
99959.8
99958.2
99956.6
99955.1
99953.5
99951.9
99950.4
99948.8
99947.2
99945.6
99944.1
99942.5
99940.9
99939.4
99937.8
99936.2
99934.6
99933
99931.5
99929.9
99928.3
99926.7
99925.1
99923.4
99921.8
99919.9
99918.2
99916.3
99970.9
99972.4
99974
99975.6
99974
99972.4
99970.8
99969.2
99967.7
99966.1
99964.5
99962.9
99961.3
99959.8
99958.2
99956.6
99955.1
99953.5
99951.9
99950.3
99948.8
99947.2
99945.6
99944.1
99942.5
99940.9
99939.3
99937.8
99936.2
99934.6
99933
99931.4
99929.8
99928.2
99926.6
99924.9
99923.3
99921.4
99919.7
99917.8
99972.4
99974
99975.6
99977.2
99975.6
99974
99972.4
99970.8
99969.2
99967.7
99966.1
99964.5
99962.9
99961.3
99959.8
99958.2
99956.6
99955
99953.5
99951.9
99950.3
99948.8
99947.2
99945.6
99944
99942.5
99940.9
99939.3
99937.7
99936.1
99934.5
99932.9
99931.3
99929.7
99928.1
99926.4
99924.8
99922.9
99921.2
99919.3
99974
99975.6
99977.2
99978.8
99977.2
99975.6
99974
99972.4
99970.8
99969.2
99967.7
99966.1
99964.5
99962.9
99961.3
99959.8
99958.2
99956.6
99955
99953.5
99951.9
99950.3
99948.7
99947.2
99945.6
99944
99942.4
99940.9
99939.3
99937.7
99936.1
99934.4
99932.9
99931.2
99929.6
99927.9
99926.3
99924.4
99922.7
99920.8
99975.6
99977.2
99978.8
99980.4
99978.8
99977.2
99975.6
99974
99972.4
99970.8
99969.2
99967.7
99966.1
99964.5
99962.9
99961.3
99959.8
99958.2
99956.6
99955
99953.5
99951.9
99950.3
99948.7
99947.2
99945.6
99944
99942.4
99940.8
99939.2
99937.6
99936
99934.4
99932.7
99931.1
99929.4
99927.8
99925.9
99924.2
99922.3
99977.2
99978.8
99980.4
99982
99980.4
99978.8
99977.2
99975.6
99974
99972.4
99970.8
99969.2
99967.7
99966.1
99964.5
99962.9
99961.3
99959.8
99958.2
99956.6
99955
99953.4
99951.9
99950.3
99948.7
99947.1
99945.5
99944
99942.4
99940.8
99939.2
99937.5
99935.9
99934.3
99932.7
99930.9
99929.3
99927.4
99925.7
99923.8
99978.8
99980.4
99982
99983.6
99982
99980.4
99978.8
99977.2
99975.6
99974
99972.4
99970.8
99969.2
99967.7
99966.1
99964.5
99962.9
99961.3
99959.7
99958.2
99956.6
99955
99953.4
99951.9
99950.3
99948.7
99947.1
99945.5
99943.9
99942.3
99940.7
99939.1
99937.5
99935.8
99934.2
99932.5
99930.8
99928.9
99927.2
99925.3
99980.4
99982
99983.6
99985.1
99983.6
99982
99980.4
99978.8
99977.2
99975.6
99974
99972.4
99970.8
99969.2
99967.6
99966.1
99964.5
99962.9
99961.3
99959.7
99958.2
99956.6
99955
99953.4
99951.8
99950.3
99948.7
99947.1
99945.5
99943.9
99942.3
99940.6
99939
99937.4
99935.7
99934
99932.3
99930.5
99928.8
99926.8
99982
99983.6
99985.1
99986.7
99985.1
99983.6
99982
99980.4
99978.8
99977.2
99975.6
99974
99972.4
99970.8
99969.2
99967.6
99966.1
99964.5
99962.9
99961.3
99959.7
99958.1
99956.6
99955
99953.4
99951.8
99950.2
99948.6
99947
99945.4
99943.8
99942.2
99940.6
99938.9
99937.3
99935.5
99933.9
99932
99930.3
99928.4
99983.6
99985.1
99986.7
99988.3
99986.7
99985.1
99983.5
99982
99980.4
99978.8
99977.2
99975.6
99974
99972.4
99970.8
99969.2
99967.6
99966.1
99964.5
99962.9
99961.3
99959.7
99958.1
99956.5
99955
99953.4
99951.8
99950.2
99948.6
99947
99945.4
99943.7
99942.1
99940.4
99938.8
99937.1
99935.4
99933.5
99931.8
99929.9
99985.2
99986.7
99988.3
99989.9
99988.3
99986.7
99985.1
99983.5
99982
99980.4
99978.8
99977.2
99975.6
99974
99972.4
99970.8
99969.2
99967.6
99966
99964.5
99962.9
99961.3
99959.7
99958.1
99956.5
99954.9
99953.4
99951.8
99950.2
99948.5
99946.9
99945.3
99943.7
99942
99940.4
99938.6
99936.9
99935.1
99933.4
99931.4
99986.7
99988.3
99989.9
99991.5
99989.9
99988.3
99986.7
99985.1
99983.5
99982
99980.4
99978.8
99977.2
99975.6
99974
99972.4
99970.8
99969.2
99967.6
99966
99964.5
99962.9
99961.3
99959.7
99958.1
99956.5
99954.9
99953.3
99951.7
99950.1
99948.5
99946.9
99945.2
99943.5
99941.9
99940.1
99938.5
99936.6
99934.9
99933
99988.3
99989.9
99991.5
99993
99991.5
99989.9
99988.3
99986.7