/*--------------------------------*- C++ -*----------------------------------*\
| =========                 |                                                 |
| \\      /  F ield         | OpenFOAM: The Open Source CFD Toolbox           |
|  \\    /   O peration     | Version:  1.6.x                                 |
|   \\  /    A nd           | Web:      www.OpenFOAM.org                      |
|    \\/     M anipulation  |                                                 |
\*---------------------------------------------------------------------------*/
FoamFile
{
    version     2.0;
    format      ascii;
    class       surfaceScalarField;
    location    "2";
    object      phi;
}
// * * * * * * * * * * * * * * * * * * * * * * * * * * * * * * * * * * * * * //

dimensions      [1 0 -1 0 0 0 0];

internalField   nonuniform List<scalar> 
9023
(
-1.12747e-05
6.17903e-07
1.06562e-05
-1.12222e-05
-5.30856e-08
-9.7706e-06
2.41551e-07
1.01465e-05
-2.81242e-07
8.43321e-06
2.50371e-06
-1.11469e-05
-7.5701e-08
-9.76942e-06
-5.46745e-08
-6.35574e-06
4.42877e-08
6.55276e-06
1.34574e-09
9.86349e-06
-2.32011e-07
7.59855e-06
1.06626e-06
1.16412e-06
1.33953e-06
-1.10816e-05
-6.57234e-08
-9.77807e-06
-6.74163e-08
-6.38644e-06
-2.41988e-08
-2.17643e-06
2.22064e-06
1.25026e-08
6.54133e-06
1.39642e-08
9.61713e-06
-3.20505e-07
7.04551e-06
8.73161e-07
1.19593e-06
1.03436e-06
2.50984e-06
-1.60268e-06
4.32136e-07
-1.10206e-05
-6.13114e-08
-9.77841e-06
-6.56361e-08
-6.42379e-06
-3.02916e-08
-2.2007e-06
2.23306e-06
1.50308e-08
6.54e-06
-4.77017e-09
9.30093e-06
-4.34335e-07
6.61404e-06
8.6544e-07
1.18346e-06
8.85589e-07
2.97672e-06
5.67264e-07
-6.87113e-07
-9.15804e-07
1.80679e-06
-1.52631e-06
1.51393e-07
-1.0965e-05
-5.59486e-08
-9.77759e-06
-6.23986e-08
-6.46066e-06
-2.89472e-08
-2.23106e-06
2.248e-06
9.69082e-09
6.52524e-06
-5.48971e-08
8.92108e-06
-4.58937e-07
6.25572e-06
8.16936e-07
1.17298e-06
8.75872e-07
3.22351e-06
6.38557e-07
2.20764e-06
1.66154e-07
-4.79143e-07
-1.7346e-06
2.38735e-08
-9.39919e-07
1.63037e-06
-1.67637e-06
1.97037e-07
-1.09143e-05
-5.0892e-08
-9.77423e-06
-5.95558e-08
-6.49483e-06
-2.83816e-08
-2.26006e-06
2.2576e-06
-7.34015e-11
6.47013e-06
-7.33254e-08
8.53509e-06
-4.64102e-07
5.94371e-06
7.75781e-07
1.15865e-06
8.31194e-07
3.37135e-06
7.27794e-07
2.57007e-06
2.75852e-07
1.6706e-06
1.25592e-07
-2.07486e-07
-1.94843e-06
1.29654e-09
-1.71233e-06
-1.20093e-08
-9.28166e-07
1.29947e-06
-1.18133e-06
7.83881e-08
-1.08693e-05
-4.5283e-08
-9.76874e-06
-5.65599e-08
-6.52687e-06
-2.76473e-08
-2.28849e-06
2.25744e-06
-2.46438e-09
6.39899e-06
-8.63979e-08
8.15698e-06
-4.71242e-07
5.66249e-06
7.52162e-07
1.14122e-06
7.93169e-07
3.46971e-06
7.32616e-07
2.84997e-06
4.47615e-07
1.90422e-06
4.1913e-08
1.40846e-06
1.60811e-08
-1.38929e-06
2.00215e-09
-1.94951e-06
-4.7326e-09
-1.71995e-06
-6.41692e-09
-9.2199e-07
3.16722e-07
-2.38543e-07
-1.08306e-05
-3.88727e-08
-9.76052e-06
-5.36728e-08
-6.55664e-06
-2.69349e-08
-2.31618e-06
2.25488e-06
-3.87476e-09
6.31621e-06
-1.02563e-07
7.78793e-06
-4.76962e-07
5.40301e-06
7.36174e-07
1.12215e-06
7.7117e-07
3.54389e-06
7.18748e-07
3.05772e-06
5.24601e-07
2.20417e-06
1.47326e-07
1.55467e-06
-1.04773e-07
3.69574e-07
-3.6975e-08
-1.38774e-06
6.01335e-09
-1.96067e-06
4.81425e-10
-1.72717e-06
-8.02473e-09
-9.14221e-07
6.96367e-07
-1.99254e-07
-1.07987e-05
-3.20984e-08
-9.74956e-06
-4.99996e-08
-6.58426e-06
-2.61433e-08
-2.34316e-06
2.25092e-06
-6.63931e-09
6.22e-06
-1.18838e-07
7.42948e-06
-4.82037e-07
5.15888e-06
7.25902e-07
1.10175e-06
7.56519e-07
3.60209e-06
7.12744e-07
3.21725e-06
5.5893e-07
2.47629e-06
2.52168e-07
1.71854e-06
-1.70008e-08
4.03902e-07
-1.3927e-07
8.06468e-07
-1.47703e-07
-1.3822e-06
9.52655e-09
-1.97012e-06
-1.3641e-10
-1.7354e-06
-8.21342e-09
-9.06258e-07
7.9105e-07
-1.09815e-07
-1.07738e-05
-2.49811e-08
-9.73609e-06
-4.56852e-08
-6.60897e-06
-2.53757e-08
-2.36933e-06
2.24419e-06
-9.82468e-09
6.11071e-06
-1.34163e-07
7.08127e-06
-4.88614e-07
4.92745e-06
7.19802e-07
1.08025e-06
7.47345e-07
3.64883e-06
7.09551e-07
3.34728e-06
5.82444e-07
2.7045e-06
3.30383e-07
1.88109e-06
8.92438e-08
4.4457e-07
-5.78496e-08
8.83488e-07
-2.16847e-07
8.45349e-07
-2.0311e-07
-1.37314e-06
9.34178e-09
-1.98001e-06
-2.1925e-10
-1.74374e-06
-8.7388e-09
-8.9777e-07
9.74476e-07
-2.92124e-08
-1.07564e-05
-1.74898e-08
-9.71982e-06
-4.13199e-08
-6.63009e-06
-2.46319e-08
-2.39473e-06
2.23427e-06
-1.30987e-08
5.98938e-06
-1.49197e-07
6.74157e-06
-4.9633e-07
4.70822e-06
7.15321e-07
1.05797e-06
7.42018e-07
3.68697e-06
7.08971e-07
3.45853e-06
5.98018e-07
2.89479e-06
3.9183e-07
2.07059e-06
1.40499e-07
4.86508e-07
4.71766e-08
9.76543e-07
-1.51393e-07
9.19784e-07
-2.92204e-07
9.37441e-07
-1.68125e-07
-1.36427e-06
9.59752e-09
-1.99025e-06
-3.20894e-10
-1.7525e-06
-9.29969e-09
-8.88727e-07
1.22963e-06
7.7336e-09
-1.07464e-05
-1.01291e-08
-9.70048e-06
-3.69091e-08
-6.6476e-06
-2.38886e-08
-2.41939e-06
2.22109e-06
-1.66108e-08
5.85655e-06
-1.64065e-07
6.40899e-06
-5.04452e-07
4.50137e-06
7.11059e-07
1.03523e-06
7.38004e-07
3.71846e-06
7.10295e-07
3.55424e-06
6.12989e-07
3.06216e-06
4.30319e-07
2.2872e-06
1.74859e-07
5.29195e-07
9.768e-08
1.07648e-06
-5.31647e-08
1.01942e-06
-2.51816e-07
9.67176e-07
-3.23588e-07
1.17267e-06
-1.14511e-07
-1.35515e-06
9.96791e-09
-2.00097e-06
-5.06996e-10
-1.76165e-06
-9.82325e-09
-8.79157e-07
1.53762e-06
-7.37072e-09
-1.07421e-05
-4.30322e-09
-9.67764e-06
-3.30385e-08
-6.66137e-06
-2.31746e-08
-2.44329e-06
2.20439e-06
-2.03782e-08
5.71259e-06
-1.79027e-07
6.08324e-06
-5.11728e-07
4.30671e-06
7.06172e-07
1.0121e-06
7.34132e-07
3.74388e-06
7.12359e-07
3.63933e-06
6.24924e-07
3.2114e-06
4.63417e-07
2.49131e-06
2.25848e-07
5.6978e-07
1.34154e-07
1.17514e-06
-1.36638e-09
1.13608e-06
-1.70461e-07
1.05513e-06
-3.41117e-07
1.11296e-06
-2.66824e-07
1.51474e-06
-9.59935e-08
-1.34566e-06
1.03782e-08
-2.01229e-06
-6.22439e-10
-1.77121e-06
-1.01694e-08
-8.69242e-07
1.83467e-06
-9.74269e-09
-1.07438e-05
1.69816e-09
-9.65032e-06
-3.16111e-08
-6.67192e-06
-2.25131e-08
-2.46647e-06
2.18392e-06
-2.43325e-08
5.55764e-06
-1.93913e-07
5.76516e-06
-5.17637e-07
4.12289e-06
7.01248e-07
9.88333e-07
7.29872e-07
3.76286e-06
7.14918e-07
3.71505e-06
6.36359e-07
3.3448e-06
4.91182e-07
2.68258e-06
2.7178e-07
6.06781e-07
1.88733e-07
1.26469e-06
4.42672e-08
1.25221e-06
-1.18062e-07
1.18083e-06
-2.97223e-07
1.12086e-06
-3.5148e-07
1.46173e-06
-2.18107e-07
1.82794e-06
-9.4552e-08
-1.33576e-06
1.10555e-08
-2.02441e-06
-5.58446e-10
-1.78117e-06
-1.0063e-08
-8.59436e-07
2.21634e-06
-1.91217e-08
-1.07515e-05
7.6621e-09
-9.61855e-06
-3.01068e-08
-6.68188e-06
-2.16669e-08
-2.48899e-06
2.1595e-06
-2.84429e-08
5.39192e-06
-2.08911e-07
5.45618e-06
-5.22623e-07
3.94795e-06
6.97355e-07
9.64066e-07
7.25454e-07
3.77372e-06
7.18781e-07
3.78033e-06
6.49356e-07
3.46483e-06
5.15991e-07
2.85353e-06
3.1986e-07
6.469e-07
2.31552e-07
1.34436e-06
1.08744e-07
1.35878e-06
-6.27926e-08
1.31779e-06
-2.55932e-07
1.21788e-06
-3.96164e-07
1.39365e-06
-2.87461e-07
1.81007e-06
-2.05561e-07
2.20929e-06
-9.38723e-08
-1.32519e-06
1.24481e-08
-2.03786e-06
-3.40329e-10
-1.79126e-06
-9.40717e-09
-8.50283e-07
2.66498e-06
-2.29267e-08
-1.07642e-05
1.2707e-08
-9.58265e-06
-2.82573e-08
-6.69102e-06
-2.099e-08
-2.51067e-06
2.13097e-06
-3.27792e-08
5.21556e-06
-2.23835e-07
5.15714e-06
-5.25541e-07
3.78014e-06
6.93161e-07
9.39284e-07
7.22074e-07
3.77856e-06
7.20383e-07
3.83735e-06
6.61465e-07
3.57237e-06
5.41481e-07
3.0082e-06
3.60961e-07
6.91939e-07
2.74711e-07
1.41702e-06
1.58595e-07
1.45492e-06
1.2156e-08
1.44923e-06
-1.94999e-07
1.36536e-06
-4.04965e-07
1.35214e-06
-3.58181e-07
1.78679e-06
-2.69459e-07
2.19402e-06
-1.96731e-07
2.65855e-06
-9.51039e-08
-1.31322e-06
1.42571e-08
-2.0529e-06
-3.89958e-10
-1.80065e-06
-7.93112e-09
-8.42607e-07
3.21684e-06
-2.87185e-08
-1.07806e-05
1.64324e-08
-9.54321e-06
-2.67255e-08
-6.69866e-06
-2.06162e-08
-2.53165e-06
2.0981e-06
-3.74009e-08
5.02889e-06
-2.38147e-07
4.86952e-06
-5.27711e-07
3.61567e-06
6.91989e-07
9.13508e-07
7.18877e-07
3.77997e-06
7.20447e-07
3.88685e-06
6.70603e-07
3.6689e-06
5.64598e-07
3.14899e-06
4.00321e-07
7.3548e-07
3.17311e-07
1.4863e-06
2.05148e-07
1.54038e-06
7.27084e-08
1.56849e-06
-1.07791e-07
1.5229e-06
-3.53798e-07
1.41427e-06
-4.69932e-07
1.74001e-06
-3.16562e-07
2.18219e-06
-2.64022e-07
2.64587e-06
-1.91814e-07
3.20839e-06
-9.59028e-08
-1.29944e-06
1.5336e-08
-2.06908e-06
-6.24046e-10
-1.80832e-06
-5.79151e-09
-8.37073e-07
3.88067e-06
-3.15324e-08
-1.08015e-05
2.09415e-08
-9.49939e-06
-2.73126e-08
-6.70495e-06
-2.0415e-08
-2.55227e-06
2.06061e-06
-4.21778e-08
4.83269e-06
-2.5201e-07
4.59359e-06
-5.29577e-07
3.45024e-06
6.94819e-07
8.85614e-07
7.19815e-07
3.77751e-06
7.21107e-07
3.92743e-06
6.79576e-07
3.75487e-06
5.84286e-07
3.2737e-06
4.3952e-07
7.77904e-07
3.57786e-07
1.55962e-06
2.43711e-07
1.61815e-06
1.26995e-07
1.67467e-06
-3.40798e-08
1.67296e-06
-2.5893e-07
1.57385e-06
-5.15618e-07
1.67286e-06
-4.076e-07
2.17196e-06
-3.12717e-07
2.63453e-06
-2.60386e-07
3.19433e-06
-1.87104e-07
3.87214e-06
-9.85121e-08
-1.28459e-06
1.52325e-08
-2.0854e-06
-1.39514e-09
-1.81309e-06
-3.15055e-09
-8.34177e-07
4.68888e-06
-3.42034e-08
-1.0821e-05
1.96041e-08
-9.44572e-06
-3.27227e-08
-6.71141e-06
-2.08129e-08
-2.57267e-06
2.01835e-06
-4.71911e-08
4.62766e-06
-2.65402e-07
4.32918e-06
-5.34525e-07
3.27472e-06
7.09889e-07
8.5442e-07
7.25955e-07
3.76919e-06
7.27909e-07
3.96178e-06
6.86484e-07
3.83084e-06
6.03268e-07
3.38618e-06
4.71427e-07
8.1481e-07
4.02502e-07
1.6495e-06
2.67629e-07
1.68999e-06
1.71498e-07
1.77114e-06
2.99553e-08
1.80844e-06
-1.70512e-07
1.75414e-06
-4.41029e-07
1.67732e-06
-5.24173e-07
2.13947e-06
-3.81475e-07
2.62746e-06
-3.13356e-07
3.1813e-06
-2.56646e-07
3.85823e-06
-1.84465e-07
4.67789e-06
-1.00964e-07
-1.26984e-06
1.37247e-08
-2.10098e-06
-3.87334e-09
-1.81274e-06
-6.91879e-10
-8.33739e-07
5.66885e-06
-3.56649e-08
2.66039e-08
-9.39132e-06
-3.47736e-08
-6.72171e-06
-2.24337e-08
-2.59346e-06
1.97107e-06
-5.2565e-08
4.41463e-06
-2.78604e-07
4.07306e-06
-5.51911e-07
3.08701e-06
7.39459e-07
8.17599e-07
7.46639e-07
3.75649e-06
7.38426e-07
3.99119e-06
6.98204e-07
3.89965e-06
6.17326e-07
3.49205e-06
4.9702e-07
8.50133e-07
4.35995e-07
1.73392e-06
3.17805e-07
1.75932e-06
1.97935e-07
1.85804e-06
8.4067e-08
1.92946e-06
-9.19238e-08
1.92503e-06
-3.42947e-07
1.80908e-06
-5.76053e-07
2.0733e-06
-4.64183e-07
2.61613e-06
-3.7786e-07
3.17184e-06
-3.13194e-07
3.84387e-06
-2.53491e-07
4.66282e-06
-1.8298e-07
5.65559e-06
-1.03931e-07
-1.2566e-06
8.87093e-09
-2.11419e-06
-1.07697e-08
-1.80304e-06
1.83827e-09
-8.35834e-07
6.8587e-06
-3.68862e-08
-2.97885e-08
-6.73346e-06
-2.29725e-08
-2.61589e-06
1.91843e-06
-5.83777e-08
4.1942e-06
-2.97832e-07
3.81876e-06
-5.72884e-07
2.69908e-06
9.60661e-07
7.83681e-07
7.73324e-07
3.7385e-06
7.644e-07
4.01764e-06
7.11688e-07
3.96157e-06
6.35945e-07
3.58893e-06
5.20064e-07
8.86884e-07
4.6016e-07
1.81882e-06
3.50833e-07
1.82443e-06
2.52352e-07
1.93795e-06
1.17529e-07
2.03725e-06
-2.45026e-08
2.0808e-06
-2.49035e-07
2.00909e-06
-5.45599e-07
2.02581e-06
-5.34189e-07
2.59286e-06
-4.48605e-07
3.16089e-06
-3.76225e-07
3.83184e-06
-3.12389e-07
4.64676e-06
-2.50947e-07
5.63898e-06
-1.82741e-07
6.84219e-06
-1.06998e-07
-1.24822e-06
-4.25626e-09
-2.12117e-06
-2.31241e-08
-1.77846e-06
7.45827e-09
-8.43547e-07
8.30392e-06
-3.83268e-08
-2.21911e-08
-2.63884e-06
1.85997e-06
-6.60861e-08
3.96226e-06
-2.91841e-07
3.53754e-06
-6.02971e-07
2.29903e-06
1.00291e-06
7.37034e-07
1.00723e-06
3.72157e-06
7.90026e-07
4.0419e-06
7.39856e-07
4.01931e-06
6.53613e-07
3.67647e-06
5.48035e-07
9.19344e-07
4.87496e-07
1.91395e-06
3.64751e-07
1.88464e-06
2.90296e-07
2.01296e-06
1.76861e-07
2.13565e-06
1.84017e-08
2.21924e-06
-1.64145e-07
2.20536e-06
-4.47524e-07
2.09163e-06
-6.16156e-07
2.55087e-06
-4.99828e-07
3.1457e-06
-4.42712e-07
3.81891e-06
-3.7451e-07
4.63214e-06
-3.11298e-07
5.62088e-06
-2.49146e-07
6.82314e-06
-1.83418e-07
8.28358e-06
-1.10279e-07
-1.25296e-06
-2.81221e-08
-2.11664e-06
-4.11811e-08
-1.73021e-06
1.97513e-08
-8.63549e-07
1.00594e-05
-4.03289e-08
1.7938e-06
-6.70161e-08
3.73727e-06
-2.95845e-07
3.23022e-06
-6.10772e-07
2.15851e-06
7.51181e-07
6.89713e-07
1.05019e-06
3.72644e-06
1.00213e-06
4.06739e-06
7.64251e-07
4.07469e-06
6.84123e-07
3.75807e-06
5.71622e-07
9.49306e-07
5.17964e-07
1.9962e-06
4.04976e-07
1.95145e-06
2.97612e-07
2.08087e-06
2.21939e-07
2.22801e-06
8.3818e-08
2.3422e-06
-1.05662e-07
2.38234e-06
-3.43059e-07
2.2804e-06
-6.40179e-07
2.48871e-06
-5.61357e-07
3.13179e-06
-4.95216e-07
3.80361e-06
-4.38638e-07
4.61679e-06
-3.727e-07
5.60347e-06
-3.10206e-07
6.80235e-06
-2.48014e-07
8.26125e-06
-1.84849e-07
1.00347e-05
-1.14099e-07
-1.28156e-06
-6.33757e-08
-2.09493e-06
-4.99435e-08
-1.66089e-06
3.03662e-08
-8.9417e-07
1.21911e-05
-4.33317e-08
1.72671e-06
-7.03631e-08
3.51161e-06
-3.2501e-07
2.9443e-06
-5.55548e-07
2.10433e-06
6.09623e-07
6.68199e-07
7.72617e-07
3.71683e-06
1.05957e-06
4.12974e-06
9.39486e-07
4.12913e-06
7.09475e-07
3.83543e-06
6.06377e-07
9.77261e-07
5.43559e-07
2.07244e-06
4.41456e-07
2.03523e-06
3.20881e-07
2.14304e-06
2.35005e-07
2.31238e-06
1.36934e-07
2.4562e-06
-3.11903e-08
2.54128e-06
-2.66325e-07
2.50181e-06
-5.67728e-07
2.46989e-06
-6.28017e-07
3.10622e-06
-5.45069e-07
3.7897e-06
-4.92531e-07
4.59949e-06
-4.34874e-07
5.58539e-06
-3.70943e-07
6.7817e-06
-3.09237e-07
8.23713e-06
-2.47587e-07
1.00084e-05
-1.87087e-07
1.21612e-05
-1.18478e-07
-1.34542e-06
-1.05485e-07
-2.03986e-06
-5.79191e-08
-1.57299e-06
5.10718e-08
1.47807e-05
-4.69024e-08
1.65627e-06
-8.04907e-08
3.26693e-06
-3.22092e-07
2.71065e-06
-5.44515e-07
2.06598e-06
5.8276e-07
6.54984e-07
6.22801e-07
3.67569e-06
8.13519e-07
4.17699e-06
1.01202e-06
4.21619e-06
8.52071e-07
3.91031e-06
6.34217e-07
1.00356e-06
5.79971e-07
2.14375e-06
4.71987e-07
2.1267e-06
3.49668e-07
2.20423e-06
2.59271e-07
2.38788e-06
1.58891e-07
2.56125e-06
3.09462e-08
2.68835e-06
-1.79808e-07
2.70729e-06
-4.74614e-07
2.58167e-06
-6.85191e-07
3.05886e-06
-5.89871e-07
3.77449e-06
-5.41087e-07
4.58305e-06
-4.89641e-07
5.56559e-06
-4.314e-07
6.76041e-06
-3.6934e-07
8.21264e-06
-3.08477e-07
9.98006e-06
-2.47829e-07
1.21301e-05
-1.90335e-07
1.47458e-05
-1.24712e-07
-1.45139e-06
-1.49103e-07
-1.94915e-06
-6.83836e-08
1.79301e-05
-5.33148e-08
1.57571e-06
-8.26929e-08
3.02738e-06
-3.34307e-07
2.50032e-06
-7.04633e-07
2.04174e-06
7.28767e-07
6.46352e-07
5.9132e-07
3.63413e-06
6.64125e-07
4.17207e-06
8.18143e-07
4.29884e-06
9.29025e-07
4.00873e-06
7.5326e-07
1.02973e-06
6.07939e-07
2.21152e-06
5.11927e-07
2.21382e-06
3.8455e-07
2.26482e-06
2.88668e-07
2.45816e-06
1.88406e-07
2.65625e-06
6.30028e-08
2.82237e-06
-1.045e-07
2.89628e-06
-3.71278e-07
2.80305e-06
-7.00804e-07
3.00675e-06
-6.41947e-07
3.75873e-06
-5.85368e-07
4.56719e-06
-5.38789e-07
5.54608e-06
-4.86473e-07
6.73764e-06
-4.28319e-07
8.18751e-06
-3.67944e-07
9.95108e-06
-3.08079e-07
1.20969e-05
-2.48967e-07
1.47083e-05
-1.94152e-07
1.78867e-05
-1.30676e-07
-1.60097e-06
-2.04557e-07
2.17519e-05
-5.81292e-08
1.49295e-06
-8.97497e-08
2.78268e-06
-3.59653e-07
2.15518e-06
-7.45433e-07
1.99713e-06
7.8994e-07
6.4307e-07
7.32009e-07
3.59415e-06
6.31074e-07
4.15331e-06
6.82597e-07
4.32946e-06
7.87178e-07
4.10677e-06
8.30597e-07
1.06045e-06
7.22429e-07
2.27828e-06
5.40909e-07
2.29703e-06
4.28394e-07
2.32444e-06
3.24527e-07
2.52515e-06
2.21118e-07
2.74404e-06
9.97865e-08
2.94225e-06
-5.81976e-08
3.06947e-06
-2.79921e-07
3.04555e-06
-6.17915e-07
3.00401e-06
-7.06164e-07
3.73363e-06
-6.28094e-07
4.55197e-06
-5.83742e-07
5.52723e-06
-5.36309e-07
6.71471e-06
-4.83257e-07
8.16114e-06
-4.25703e-07
9.92132e-06
-3.66775e-07
1.20624e-05
-3.08037e-07
1.46689e-05
-2.50871e-07
1.78425e-05
-1.99509e-07
2.17008e-05
-1.38673e-07
2.64074e-05
-6.98371e-08
1.40313e-06
-9.36459e-08
2.51655e-06
-3.93066e-07
1.8027e-06
-5.44518e-07
1.93206e-06
6.09493e-07
6.36884e-07
7.9606e-07
3.58705e-06
7.38879e-07
4.13404e-06
6.50053e-07
4.33696e-06
6.74745e-07
4.16095e-06
7.32612e-07
1.09027e-06
8.00665e-07
2.35436e-06
6.46075e-07
2.37823e-06
4.59387e-07
2.38201e-06
3.70433e-07
2.59039e-06
2.58739e-07
2.8261e-06
1.38264e-07
3.05216e-06
-1.13479e-08
3.22609e-06
-2.1685e-07
3.27192e-06
-5.09926e-07
3.1348e-06
-7.55793e-07
3.68702e-06
-6.70733e-07
4.53636e-06
-6.26104e-07
5.50943e-06
-5.82341e-07
6.69227e-06
-5.33617e-07
8.13433e-06
-4.80222e-07
9.89053e-06
-4.23532e-07
1.20272e-05
-3.65992e-07
1.46283e-05
-3.08781e-07
1.77963e-05
-2.54211e-07
2.16483e-05
-2.06167e-07
2.63481e-05
-1.49853e-07
3.20504e-05
-7.25903e-08
1.30943e-06
-1.0265e-07
2.22602e-06
-3.98573e-07
1.65664e-06
-4.25321e-07
1.88233e-06
4.74957e-07
6.23537e-07
6.22792e-07
3.5793e-06
8.0357e-07
4.14195e-06
7.30674e-07
4.34161e-06
6.45037e-07
4.18932e-06
6.45984e-07
1.11081e-06
7.11958e-07
2.42734e-06
7.27399e-07
2.46906e-06
5.54914e-07
2.45335e-06
3.87666e-07
2.65186e-06
3.08431e-07
2.90523e-06
1.78842e-07
3.15368e-06
3.55858e-08
3.36875e-06
-1.55874e-07
3.47614e-06
-4.24305e-07
3.37932e-06
-7.60602e-07
3.64009e-06
-7.19694e-07
4.51971e-06
-6.67732e-07
5.49253e-06
-6.25648e-07
6.67066e-06
-5.80525e-07
8.10778e-06
-5.3089e-07
9.85917e-06
-4.77518e-07
1.1991e-05
-4.21785e-07
1.45867e-05
-3.65754e-07
1.77484e-05
-3.10475e-07
2.1593e-05
-2.58127e-07
2.62842e-05
-2.12902e-07
3.19716e-05
-1.54742e-07
3.89391e-05
-9.16344e-08
1.20672e-06
-1.18011e-07
1.94535e-06
-3.6644e-07
1.59766e-06
-5.09919e-07
1.85785e-06
5.343e-07
6.10522e-07
4.87909e-07
3.53028e-06
6.71576e-07
4.15634e-06
7.88882e-07
4.36523e-06
7.06705e-07
4.21307e-06
6.20891e-07
1.12443e-06
6.32249e-07
2.48004e-06
6.58987e-07
2.55327e-06
6.4286e-07
2.5544e-06
4.5347e-07
2.70873e-06
3.30282e-07
2.98064e-06
2.32288e-07
3.25091e-06
8.05097e-08
3.49942e-06
-9.68273e-08
3.66186e-06
-3.44537e-07
3.64336e-06
-6.93731e-07
3.64114e-06
-7.71738e-07
4.49527e-06
-7.0892e-07
5.47549e-06
-6.67165e-07
6.64994e-06
-6.24759e-07
8.0818e-06
-5.78416e-07
9.82786e-06
-5.2828e-07
1.19542e-05
-4.75236e-07
1.45441e-05
-4.2063e-07
1.76991e-05
-3.66082e-07
2.15356e-05
-3.12492e-07
2.6218e-05
-2.62621e-07
3.18948e-05
-2.19851e-07
3.8861e-05
-1.75598e-07
4.7273e-05
-8.53851e-08
1.08866e-06
-1.25317e-07
1.70414e-06
-4.70498e-07
1.55814e-06
-4.89245e-07
1.8242e-06
5.22788e-07
6.03149e-07
5.41623e-07
3.46986e-06
5.481e-07
4.13574e-06
6.91889e-07
4.39586e-06
7.579e-07
4.24844e-06
6.70942e-07
1.13623e-06
6.08973e-07
2.52007e-06
5.91936e-07
2.6198e-06
5.92129e-07
2.64406e-06
5.5282e-07
2.7731e-06
3.88595e-07
3.0482e-06
2.62002e-07
3.34436e-06
1.3778e-07
3.6211e-06
-4.28068e-08
3.8332e-06
-2.70868e-07
3.88919e-06
-5.95165e-07
3.76062e-06
-8.22272e-07
4.45544e-06
-7.45538e-07
5.45735e-06
-7.07318e-07
6.62989e-06
-6.67017e-07
8.05654e-06
-6.23438e-07
9.79687e-06
-5.76205e-07
1.19173e-05
-5.25932e-07
1.45008e-05
-4.73389e-07
1.76486e-05
-4.19846e-07
2.14768e-05
-3.66765e-07
2.61504e-05
-3.15691e-07
3.18165e-05
-2.6841e-07
3.8774e-05
-2.32035e-07
4.71485e-05
-1.67699e-07
5.74736e-05
-1.12186e-07
9.63292e-07
-1.45164e-07
1.37873e-06
-4.32989e-07
1.50177e-06
-3.30859e-07
1.77435e-06
3.80616e-07
5.94989e-07
5.30891e-07
3.43448e-06
5.76781e-07
4.09742e-06
5.86135e-07
4.39951e-06
6.87887e-07
4.28878e-06
7.17172e-07
1.15036e-06
6.56706e-07
2.55525e-06
5.73507e-07
2.68018e-06
5.31225e-07
2.72562e-06
5.10176e-07
2.84142e-06
4.84002e-07
3.11868e-06
3.17428e-07
3.42939e-06
1.75966e-07
3.73681e-06
2.05258e-08
3.99304e-06
-2.05145e-07
4.1157e-06
-5.01707e-07
4.00109e-06
-8.4367e-07
4.41043e-06
-7.90621e-07
5.44072e-06
-7.4549e-07
6.61046e-06
-7.07849e-07
8.03197e-06
-6.6646e-07
9.76642e-06
-6.21846e-07
1.18805e-05
-5.74099e-07
1.44571e-05
-5.23871e-07
1.75972e-05
-4.71879e-07
2.14169e-05
-4.19537e-07
2.60812e-05
-3.68561e-07
3.17356e-05
-3.18984e-07
3.86802e-05
-2.74073e-07
4.70271e-05
-2.27381e-07
5.73725e-05
-2.03485e-07
6.97872e-05
-8.53234e-08
8.18086e-07
-1.58647e-07
1.10433e-06
-2.70975e-07
1.44178e-06
-2.31339e-07
1.7203e-06
2.85296e-07
5.82184e-07
3.93369e-07
3.39565e-06
5.69498e-07
4.07584e-06
5.98067e-07
4.38446e-06
6.00829e-07
4.30855e-06
6.67718e-07
1.16531e-06
7.02108e-07
2.5938e-06
6.17884e-07
2.73206e-06
5.21299e-07
2.81258e-06
4.43882e-07
2.90052e-06
4.50596e-07
3.19511e-06
4.06905e-07
3.51554e-06
2.30304e-07
3.84327e-06
6.80366e-08
4.14346e-06
-1.32224e-07
4.32465e-06
-4.18044e-07
4.28698e-06
-7.94759e-07
4.39617e-06
-8.42148e-07
5.41876e-06
-7.85299e-07
6.59161e-06
-7.46681e-07
8.00803e-06
-7.08019e-07
9.7365e-06
-6.65495e-07
1.18441e-05
-6.20164e-07
1.44135e-05
-5.72191e-07
1.75454e-05
-5.22002e-07
2.13562e-05
-4.70825e-07
2.60103e-05
-4.19846e-07
3.16519e-05
-3.69352e-07
3.85827e-05
-3.21209e-07
4.6908e-05
-2.72129e-07
5.72581e-05
-2.50056e-07
6.95911e-05
-1.67587e-07
8.49033e-05
-1.26655e-07
6.59404e-07
-1.7438e-07
1.00768e-06
-1.79922e-07
1.39027e-06
-1.41427e-07
1.66099e-06
2.0064e-07
5.66948e-07
3.00477e-07
3.33263e-06
4.56148e-07
4.05147e-06
5.93579e-07
4.37881e-06
6.0336e-07
4.3103e-06
5.98679e-07
1.17555e-06
6.57358e-07
2.63375e-06
6.61872e-07
2.78435e-06
5.65263e-07
2.88026e-06
4.5323e-07
2.95342e-06
3.90503e-07
3.26071e-06
3.84338e-07
3.60772e-06
3.13787e-07
3.94947e-06
1.22706e-07
4.28176e-06
-7.24558e-08
4.52125e-06
-3.32458e-07
4.56281e-06
-7.00325e-07
4.47411e-06
-8.84461e-07
5.38345e-06
-8.23471e-07
6.57134e-06
-7.8514e-07
7.98505e-06
-7.47902e-07
9.70722e-06
-7.07803e-07
1.1808e-05
-6.64362e-07
1.437e-05
-6.18546e-07
1.74933e-05
-5.70205e-07
2.12948e-05
-5.20519e-07
2.5938e-05
-4.69873e-07
3.15662e-05
-4.18845e-07
3.84829e-05
-3.69702e-07
4.67885e-05
-3.19258e-07
5.71314e-05
-2.8281e-07
6.93949e-05
-2.1407e-07
8.47543e-05
-2.06645e-07
0.000103102
-6.32729e-08
4.84996e-07
-1.19765e-07
9.47472e-07
-8.50166e-08
1.33376e-06
-1.15399e-07
1.60276e-06
1.73533e-07
5.50323e-07
2.17213e-07
3.26091e-06
3.71972e-07
4.00405e-06
5.03278e-07
4.36977e-06
6.02263e-07
4.31505e-06
5.98219e-07
1.18096e-06
5.93161e-07
2.66321e-06
6.2762e-07
2.83745e-06
6.08441e-07
2.94695e-06
4.98176e-07
3.01039e-06
3.95789e-07
3.31654e-06
3.34033e-07
3.68883e-06
3.02322e-07
4.06105e-06
2.00879e-07
4.41453e-06
-1.21397e-08
4.70532e-06
-2.5991e-07
4.82346e-06
-5.98957e-07
4.68122e-06
-9.18101e-07
5.34131e-06
-8.58817e-07
6.55092e-06
-8.23244e-07
7.96271e-06
-7.87102e-07
9.67874e-06
-7.48619e-07
1.17725e-05
-7.07325e-07
1.43268e-05
-6.63162e-07
1.74412e-05
-6.16788e-07
2.12331e-05
-5.68606e-07
2.58646e-05
-5.18695e-07
3.14793e-05
-4.6792e-07
3.83815e-05
-4.17778e-07
4.66671e-05
-3.6628e-07
5.69967e-05
-3.22406e-07
6.92019e-05
-2.50337e-07
8.45976e-05
-2.45464e-07
0.000102797
-1.2189e-07
0.000125478
-1.0602e-07
3.65212e-07
-3.55344e-08
8.9794e-07
-6.17949e-08
1.28006e-06
-1.08619e-07
1.54542e-06
1.65872e-07
5.33629e-07
1.90176e-07
3.17817e-06
2.99732e-07
3.94713e-06
4.286e-07
4.33988e-06
5.32826e-07
4.31578e-06
6.01138e-07
1.1857e-06
5.93362e-07
2.68176e-06
5.74325e-07
2.87946e-06
5.8528e-07
3.01503e-06
5.39973e-07
3.08518e-06
4.2291e-07
3.37015e-06
3.41558e-07
3.75839e-06
2.6359e-07
4.16208e-06
2.00007e-07
4.54973e-06
6.37225e-08
4.88027e-06
-1.90233e-07
5.06721e-06
-5.09023e-07
4.98076e-06
-9.08148e-07
5.31164e-06
-9.04526e-07
6.5322e-06
-8.60374e-07
7.94054e-06
-8.25489e-07
9.65085e-06
-7.8854e-07
1.17376e-05
-7.48928e-07
1.42839e-05
-7.06671e-07
1.73894e-05
-6.61826e-07
2.11713e-05
-6.15244e-07
2.57904e-05
-5.66269e-07
3.13917e-05
-5.16365e-07
3.82784e-05
-4.65543e-07
4.65435e-05
-4.12361e-07
5.68554e-05
-3.63267e-07
6.90108e-05
-2.92287e-07
8.44296e-05
-2.70323e-07
0.000102484
-1.52508e-07
0.000125248
-1.58077e-07
0.000152418
6.60964e-10
3.29662e-07
-1.89113e-08
8.55007e-07
-5.64183e-08
1.22778e-06
-1.01493e-07
1.48884e-06
1.57977e-07
5.17118e-07
1.82333e-07
3.09537e-06
2.72752e-07
3.87856e-06
3.68018e-07
4.30002e-06
4.68102e-07
4.29894e-06
5.49285e-07
1.18933e-06
5.97397e-07
2.69811e-06
5.76732e-07
2.90974e-06
5.43702e-07
3.07216e-06
5.27757e-07
3.16823e-06
4.56457e-07
3.42642e-06
3.66022e-07
3.82396e-06
2.75126e-07
4.25063e-06
1.73794e-07
4.67559e-06
7.22727e-08
5.05416e-06
-1.13127e-07
5.29639e-06
-4.24361e-07
5.29715e-06
-8.34165e-07
5.3375e-06
-9.49311e-07
6.5054e-06
-8.98065e-07
7.9183e-06
-8.62663e-07
9.62366e-06
-8.27773e-07
1.17033e-05
-7.89631e-07
1.42415e-05
-7.48934e-07
1.73378e-05
-7.05874e-07
2.11093e-05
-6.60465e-07
2.57158e-05
-6.12731e-07
3.13038e-05
-5.63855e-07
3.81738e-05
-5.12751e-07
4.64178e-05
-4.5845e-07
5.67094e-05
-4.0503e-07
6.8821e-05
-3.3461e-07
8.42509e-05
-3.01545e-07
0.00010217
-1.7557e-07
0.000125018
-1.86645e-07
0.000151959
-1.66857e-08
0.000185481
3.10734e-07
-1.6212e-08
8.14751e-07
-5.12055e-08
1.1774e-06
-9.41518e-08
1.43365e-06
1.49248e-07
5.00668e-07
1.74378e-07
3.01242e-06
2.65064e-07
3.80765e-06
3.43377e-07
4.24965e-06
4.18044e-07
4.27201e-06
4.94643e-07
1.18918e-06
5.4932e-07
2.71113e-06
5.84103e-07
2.9352e-06
5.50938e-07
3.11697e-06
4.98498e-07
3.24073e-06
4.54782e-07
3.486e-06
3.96266e-07
3.88867e-06
3.0047e-07
4.33411e-06
1.90443e-07
4.78846e-06
5.91355e-08
5.21472e-06
-9.10841e-08
5.51982e-06
-3.41147e-07
5.59894e-06
-7.34139e-07
5.47503e-06
-9.85912e-07
6.46745e-06
-9.31687e-07
7.89513e-06
-8.99532e-07
9.59763e-06
-8.66246e-07
1.16696e-05
-8.29678e-07
1.41996e-05
-7.90364e-07
1.72867e-05
-7.4877e-07
2.10474e-05
-7.04803e-07
2.56409e-05
-6.58056e-07
3.12155e-05
-6.10315e-07
3.80677e-05
-5.59088e-07
4.62907e-05
-5.04632e-07
5.65604e-05
-4.4831e-07
6.86315e-05
-3.77028e-07
8.40621e-05
-3.33679e-07
0.000101855
-2.0613e-07
0.000124782
-2.03475e-07
0.000151481
-2.43955e-08
0.000185064
2.94506e-07
-1.41261e-08
7.77625e-07
-4.64253e-08
1.12958e-06
-8.6843e-08
1.38066e-06
1.39743e-07
4.84382e-07
1.65487e-07
2.92872e-06
2.5785e-07
3.73572e-06
3.36706e-07
4.19547e-06
3.97205e-07
4.23645e-06
4.53214e-07
1.18571e-06
4.98003e-07
2.71592e-06
5.44246e-07
2.95639e-06
5.62581e-07
3.15168e-06
5.15835e-07
3.30087e-06
4.37887e-07
3.54005e-06
4.00133e-07
3.95465e-06
3.29458e-07
4.41498e-06
2.18432e-07
4.89462e-06
8.25551e-08
5.35953e-06
-8.83305e-08
5.72711e-06
-3.0267e-07
5.89035e-06
-6.39899e-07
5.74082e-06
-1.01298e-06
6.43137e-06
-9.69987e-07
7.87521e-06
-9.36528e-07
9.57249e-06
-9.04159e-07
1.16368e-05
-8.69148e-07
1.41582e-05
-8.31173e-07
1.72358e-05
-7.90859e-07
2.09855e-05
-7.48158e-07
2.5566e-05
-7.02677e-07
3.11267e-05
-6.55557e-07
3.79602e-05
-6.04582e-07
4.61626e-05
-5.5026e-07
5.64088e-05
-4.92331e-07
6.84412e-05
-4.19587e-07
8.38636e-05
-3.66292e-07
0.000101541
-2.39266e-07
0.000124539
-2.24126e-07
0.000150997
-3.31765e-08
0.000184642
2.80364e-07
-1.25396e-08
7.4369e-07
-4.21306e-08
1.08479e-06
-7.97811e-08
1.33036e-06
1.2999e-07
4.68509e-07
1.5557e-07
2.84458e-06
2.49411e-07
3.66178e-06
3.31501e-07
4.13969e-06
3.9213e-07
4.19681e-06
4.36458e-07
1.18013e-06
4.58683e-07
2.71409e-06
4.99551e-07
2.97105e-06
5.29259e-07
3.18258e-06
5.31286e-07
3.34071e-06
4.75521e-07
3.58581e-06
3.9153e-07
4.01614e-06
3.3783e-07
4.49563e-06
2.47664e-07
4.99658e-06
1.14801e-07
5.49574e-06
-5.62007e-08
5.91603e-06
-2.81293e-07
6.16106e-06
-5.80181e-07
6.08356e-06
-9.94596e-07
6.41846e-06
-1.01974e-06
7.85594e-06
-9.75569e-07
9.54779e-06
-9.41749e-07
1.16049e-05
-9.08231e-07
1.41175e-05
-8.71536e-07
1.71854e-05
-8.32354e-07
2.09239e-05
-7.90811e-07
2.5491e-05
-7.46456e-07
3.10375e-05
-7.00185e-07
3.78515e-05
-6.4911e-07
4.60335e-05
-5.95265e-07
5.6255e-05
-5.36041e-07
6.82498e-05
-4.62708e-07
8.36565e-05
-4.00035e-07
0.00010123
-2.73713e-07
0.000124285
-2.44775e-07
0.000150506
-4.47033e-08
0.000184219
2.67807e-07
-1.12386e-08
7.12749e-07
-3.82678e-08
1.04319e-06
-7.32701e-08
1.28297e-06
1.20568e-07
4.53244e-07
1.45211e-07
2.7609e-06
2.39031e-07
3.58575e-06
3.25157e-07
4.08132e-06
3.8953e-07
4.15505e-06
4.33513e-07
1.17343e-06
4.43045e-07
2.70726e-06
4.65233e-07
2.97905e-06
4.91216e-07
3.21245e-06
4.98995e-07
3.3833e-06
4.88231e-07
3.62938e-06
4.31365e-07
4.07018e-06
3.367e-07
4.57156e-06
2.60785e-07
5.0966e-06
1.46029e-07
5.62496e-06
-1.68473e-08
6.09505e-06
-2.3905e-07
6.40742e-06
-5.33981e-07
6.4329e-06
-9.40516e-07
6.4715e-06
-1.06643e-06
7.8278e-06
-1.01654e-06
9.52237e-06
-9.80207e-07
1.15744e-05
-9.47429e-07
1.40776e-05
-9.11652e-07
1.71355e-05
-8.73505e-07
2.08625e-05
-8.32925e-07
2.54162e-05
-7.89613e-07
3.09479e-05
-7.44011e-07
3.77419e-05
-6.93297e-07
4.59039e-05
-6.39606e-07
5.60991e-05
-5.79236e-07
6.8058e-05
-5.05952e-07
8.34424e-05
-4.35748e-07
0.000100922
-3.09193e-07
0.00012402
-2.65267e-07
0.000150013
-5.883e-08
0.000183792
2.56552e-07
-1.012e-08
6.84555e-07
-3.48244e-08
1.00467e-06
-6.73411e-08
1.23853e-06
1.11683e-07
4.38693e-07
1.35077e-07
2.67874e-06
2.27159e-07
3.50814e-06
3.16363e-07
4.02003e-06
3.86101e-07
4.1104e-06
4.33801e-07
1.16592e-06
4.40915e-07
2.69783e-06
4.52197e-07
2.98105e-06
4.62905e-07
3.23402e-06
4.69255e-07
3.43871e-06
4.43119e-07
3.67068e-06
4.46358e-07
4.12342e-06
3.77338e-07
4.64057e-06
2.66604e-07
5.19123e-06
1.6459e-07
5.74979e-06
1.8872e-08
6.26521e-06
-1.90635e-07
6.64083e-06
-4.78389e-07
6.75695e-06
-8.68177e-07
6.63004e-06
-1.11669e-06
7.79184e-06
-1.0554e-06
9.49697e-06
-1.02133e-06
1.15454e-05
-9.87461e-07
1.40384e-05
-9.5188e-07
1.70862e-05
-9.14536e-07
2.08014e-05
-8.74759e-07
2.53414e-05
-8.32279e-07
3.08578e-05
-7.87323e-07
3.76316e-05
-7.3692e-07
4.57737e-05
-6.83761e-07
5.5941e-05
-6.21756e-07
6.78655e-05
-5.48609e-07
8.32224e-05
-4.72667e-07
0.000100616
-3.45465e-07
0.000123744
-2.86165e-07
0.00014952
-7.44974e-08
0.000183361
2.46416e-07
-9.1556e-09
6.58838e-07
-3.17773e-08
9.69026e-07
-6.20187e-08
1.1969e-06
1.03559e-07
4.24908e-07
1.25428e-07
2.59891e-06
2.14694e-07
3.42946e-06
3.05554e-07
3.95604e-06
3.80006e-07
4.06242e-06
4.33703e-07
1.15747e-06
4.42132e-07
2.68634e-06
4.52121e-07
2.98026e-06
4.52654e-07
3.24783e-06
4.48711e-07
3.47703e-06
4.30461e-07
3.7098e-06
4.03419e-07
4.17406e-06
3.94947e-07
4.7095e-06
3.07337e-07
5.27901e-06
1.77302e-07
5.86767e-06
4.44602e-08
6.42735e-06
-1.46732e-07
6.86332e-06
-4.18706e-07
7.06549e-06
-7.96345e-07
6.90782e-06
-1.16233e-06
7.75655e-06
-1.10614e-06
9.47609e-06
-1.06484e-06
1.15162e-05
-1.02869e-06
1.39999e-05
-9.92776e-07
1.70375e-05
-9.55727e-07
2.07407e-05
-9.16536e-07
2.52667e-05
-8.74675e-07
3.07676e-05
-8.30268e-07
3.75207e-05
-7.80212e-07
4.5643e-05
-7.27411e-07
5.57808e-05
-6.64147e-07
6.76727e-05
-5.90688e-07
8.29972e-05