/*--------------------------------*- C++ -*----------------------------------*\
| =========                 |                                                 |
| \\      /  F ield         | OpenFOAM: The Open Source CFD Toolbox           |
|  \\    /   O peration     | Version:  1.6.x                                 |
|   \\  /    A nd           | Web:      www.OpenFOAM.org                      |
|    \\/     M anipulation  |                                                 |
\*---------------------------------------------------------------------------*/
FoamFile
{
    version     2.0;
    format      ascii;
    class       volScalarField;
    location    "2";
    object      rho;
}
// * * * * * * * * * * * * * * * * * * * * * * * * * * * * * * * * * * * * * //

dimensions      [1 -3 0 0 0 0 0];

internalField   nonuniform List<scalar> 
4608
(
1.05145
1.05231
1.05199
0.785704
1.0525
1.05232
1.05207
1.03225
0.679103
0.376646
1.05267
1.0525
1.05232
1.05207
1.04986
1.00474
0.613043
0.346431
0.172011
1.05284
1.05266
1.05249
1.05231
1.05084
1.04679
0.971767
0.567025
0.332791
0.169905
0.17534
0.151169
1.053
1.05282
1.05265
1.05248
1.0501
1.04232
0.935151
0.530341
0.324964
0.169694
0.154032
0.177207
0.177989
0.1697
1.05315
1.05297
1.0528
1.05264
1.04946
1.0356
0.896795
0.499134
0.316408
0.170008
0.156179
0.154689
0.17788
0.178011
0.178027
0.205793
1.05331
1.05312
1.05295
1.05279
1.04824
1.02654
0.858034
0.47206
0.307411
0.170174
0.157751
0.150363
0.203908
0.178353
0.178021
0.178027
0.17803
0.297098
1.05346
1.05328
1.05311
1.05295
1.04627
1.01512
0.819776
0.448011
0.298972
0.170295
0.1588
0.151847
0.193708
0.269099
0.178028
0.178027
0.178031
0.178034
0.441368
1.05361
1.05343
1.05326
1.0531
1.04341
1.00141
0.782435
0.426144
0.291004
0.170429
0.159451
0.153064
0.175638
0.249214
0.348692
0.178026
0.17803
0.178034
0.178037
0.745811
1.05375
1.05358
1.05341
1.05325
1.03947
0.985474
0.746073
0.405885
0.283365
0.170507
0.159901
0.153426
0.160373
0.219818
0.309647
0.515645
0.17803
0.178034
0.178037
0.17804
1.07041
1.0539
1.05373
1.05356
1.05341
1.03429
0.96741
0.710573
0.387012
0.275947
0.17052
0.1603
0.15382
0.149863
0.194025
0.267127
0.43107
0.797009
0.178033
0.178036
0.178039
0.178042
1.17634
1.05404
1.05387
1.05371
1.05356
1.02769
0.947303
0.675801
0.36948
0.268741
0.170487
0.16057
0.15414
0.149111
0.176559
0.230306
0.360453
0.640265
1.08584
0.178036
0.178039
0.178041
0.178043
1.18858
1.05418
1.05401
1.05386
1.05371
1.01954
0.925226
0.641741
0.353238
0.261777
0.170407
0.16076
0.154784
0.148773
0.165605
0.205116
0.301639
0.519387
0.950478
1.17876
0.178039
0.178041
0.178042
0.178044
1.19017
1.05432
1.05416
1.054
1.05386
1.00971
0.901252
0.608458
0.338165
0.254993
0.170307
0.160989
0.155234
0.149817
0.157749
0.187722
0.26071
0.418219
0.794316
1.15162
1.18901
0.178042
0.178043
0.178043
0.178045
1.19054
1.05446
1.0543
1.05415
1.054
0.998112
0.875423
0.576151
0.324199
0.248225
0.170111
0.161159
0.155609
0.150393
0.151992
0.174959
0.232027
0.348447
0.625779
1.08981
1.18633
1.19027
0.178044
0.178044
0.178045
0.178047
1.19066
1.05459
1.05444
1.05429
1.05414
0.984648
0.847841
0.545063
0.31113
0.241704
0.169595
0.16116
0.155904
0.150793
0.150312
0.165192
0.210979
0.300631
0.497323
0.952124
1.17973
1.18981
1.19056
0.178046
0.178046
0.178049
0.178051
1.19071
1.05471
1.05457
1.05443
1.05429
0.969254
0.818646
0.515344
0.298713
0.235243
0.169258
0.161069
0.156109
0.151091
0.149369
0.157684
0.195347
0.266031
0.410162
0.762933
1.15701
1.189
1.19042
1.19067
0.178047
0.178049
0.178054
0.178057
1.19072
1.05484
1.05469
1.05457
1.05443
0.951873
0.787978
0.487077
0.286501
0.22867
0.168937
0.160975
0.156026
0.151507
0.148945
0.151699
0.182991
0.240494
0.351173
0.602054
1.07746
1.18711
1.19022
1.19061
1.19072
0.178048
0.178053
0.178061
0.178065
1.19073
1.05502
1.05481
1.05469
1.05456
0.932448
0.755987
0.46018
0.274013
0.221491
0.168593
0.160805
0.156038
0.151041
0.149267
0.148641
0.173065
0.221067
0.308963
0.489969
0.917727
1.1803
1.18991
1.19053
1.19068
1.19074
0.17805
0.17806
0.178069
0.178073
1.19073
1.05518
1.05498
1.05482
1.05468
0.910912
0.722791
0.434596
0.260385
0.21338
0.168046
0.16065
0.15606
0.151355
0.147764
0.148483
0.165256
0.20584
0.27762
0.415083
0.730537
1.15033
1.18929
1.19043
1.19065
1.19072
1.19075
0.178055
0.178067
0.178076
0.17808
1.19074
1.05511
1.055
1.05481
0.887176
0.688643
0.409767
0.247086
0.203816
0.167504
0.160509
0.156093
0.151653
0.148754
0.145694
0.159098
0.193722
0.25344
0.362934
0.591883
1.04633
1.18739
1.1903
1.19061
1.1907
1.19074
1.19075
0.178061
0.178075
0.17808
0.178081
1.19074
1.05512
1.05499
0.861162
0.653478
0.386509
0.19348
0.197003
0.166822
0.160398
0.15615
0.15193
0.149144
0.147208
0.153386
0.183658
0.234684
0.324116
0.497031
0.878476
1.17778
1.19007
1.19056
1.19068
1.19073
1.19074
1.19075
0.178069
0.178079
0.178079
0.178076
1.19074
1.05511
0.832717
0.617821
0.349344
0.177894
0.176575
0.166553
0.160352
0.156209
0.152203
0.149583
0.147557
0.149279
0.175121
0.21931
0.294516
0.431079
0.720205
1.13383
1.18943
1.1905
1.19066
1.19072
1.19074
1.19075
1.19076
0.178078
0.178079
0.178072
0.178063
1.19074
0.8018
0.57974
0.318171
0.174319
0.169709
0.163134
0.160437
0.156332
0.15243
0.149976
0.148002
0.147142
0.168171
0.206614
0.270461
0.382856
0.602778
1.02432
1.18693
1.1904
1.19063
1.19071
1.19074
1.19075
1.19075
1.19076
0.178082
0.178073
0.178061
0.178047
1.19074
0.768369
0.541789
0.292793
0.172923
0.167763
0.162745
0.159704
0.156544
0.152683
0.150246
0.148417
0.147161
0.162382
0.196333
0.251023
0.345232
0.518856
0.872512
1.17484
1.19017
1.1906
1.1907
1.19073
1.19075
1.19075
1.19075
1.19076
0.178077
0.178061
0.178046
1.19074
0.733018
0.503883
0.271461
0.172441
0.167028
0.16242
0.159265
0.156455
0.153022
0.150565
0.148658
0.147259
0.157752
0.187646
0.2356
0.315358
0.457117
0.73751
1.12751
1.18949
1.19056
1.19068
1.19073
1.19074
1.19075
1.19075
1.19075
1.19076
0.178064
0.178046
1.19074
0.695911
0.465503
0.253596
0.16953
0.16683
0.16224
0.158965
0.156156
0.153198
0.150982
0.149008
0.147253
0.153903
0.180275
0.222799
0.291632
0.409611
0.632674
1.02883
1.18685
1.19047
1.19067
1.19072
1.19074
1.19075
1.19075
1.19075
1.19076
1.19076
0.178047
1.19074
0.656606
0.428422
0.198852
0.165883
0.165752
0.162184
0.158776
0.15586
0.152936
0.151222
0.14947
0.147315
0.150552
0.174072
0.211973
0.272197
0.372574
0.55315
0.897695
1.17558
1.19026
1.19065
1.19072
1.19074
1.19075
1.19075
1.19076
1.19076
1.19076
1.19076
1.19074
0.615262
0.378659
0.178369
0.163591
0.163808
0.1619
0.158703
0.155661
0.152709
0.15079
0.149736
0.147625
0.14756
0.168578
0.202774
0.255963
0.34289
0.493265
0.776667
1.13632
1.18968
1.19061
1.19071
1.19074
1.19075
1.19076
1.19076
1.19076
1.19076
1.19076
1.19077
1.19075
0.56892
0.332122
0.17323
0.163304
0.16227
0.161199
0.158583
0.155586
0.152606
0.150685
0.149126
0.147845
0.147058
0.163638
0.194717
0.242263
0.31844
0.446352
0.679065
1.05585
1.18767
1.19054
1.1907
1.19074
1.19076
1.19076
1.19076
1.19076
1.19076
1.19076
1.19076
1.19077
1.19075
0.518329
0.292301
0.17163
0.16293
0.161828
0.160432
0.158268
0.155538
0.152607
0.150725
0.149168
0.146616
0.1469
0.159248
0.187648
0.2304
0.297869
0.408343
0.602328
0.9451
1.17982
1.19038
1.19069
1.19074
1.19076
1.19076
1.19076
1.19076
1.19076
1.19076
1.19076
1.19076
1.19077
1.19075
0.463486
0.259728
0.167338
0.16181
0.161578
0.159964
0.157854
0.155397
0.152649
0.150809
0.149329
0.147126
0.144389
0.154984
0.181069
0.22016
0.280057
0.377019
0.541824
0.835921
1.15341
1.18998
1.19066
1.19074
1.19076
1.19077
1.19077
1.19077
1.19077
1.19077
1.19077
1.19077
1.19077
1.19077
1.19075
0.407475
0.187403
0.163753
0.160807
0.160774
0.159684
0.157513
0.155179
0.152636
0.150922
0.149465
0.147497
0.145845
0.151138
0.174745
0.21085
0.264851
0.350478
0.492946
0.742565
1.09589
1.18879
1.19061
1.19073
1.19076
1.19077
1.19077
1.19077
1.19077
1.19077
1.19077
1.19077
1.19077
1.19077
1.19077
1.19075
0.330287
0.172448
0.162169
0.159882
0.159943
0.159194
0.157216
0.154965
0.152558
0.150981
0.14963
0.147659
0.146058
0.148893
0.169483
0.202173
0.251413
0.327931
0.45209
0.665294
1.0086
1.18467
1.19051
1.19073
1.19076
1.19077
1.19078
1.19077
1.19077
1.19077
1.19077
1.19077
1.19077
1.19077
1.19077
1.19077
1.19075
0.264179
0.164264
0.160925
0.159028
0.159129
0.158591
0.156826
0.154703
0.152452
0.150977
0.149747
0.147899
0.146054
0.146792
0.165491
0.194959
0.239231
0.308137
0.417783
0.601495
0.910788
1.17085
1.19028
1.19071
1.19076
1.19078
1.19078
1.19078
1.19078
1.19078
1.19078
1.19078
1.19077
1.19077
1.19077
1.19077
1.19077
1.19075
0.17825
0.161827
0.159922
0.158238
0.158354
0.157941
0.156365
0.154367
0.152198
0.150925
0.149799
0.148077
0.146273
0.145837
0.162009
0.189188
0.229091
0.290461
0.388486
0.548989
0.820074
1.13647
1.18969
1.19068
1.19076
1.19078
1.19079
1.19079
1.19078
1.19078
1.19078
1.19078
1.19078
1.19078
1.19077
1.19077
1.19077
1.19077
1.19075
0.162761
0.160554
0.159053
0.157484
0.15762
0.157283
0.155856
0.153996
0.151895
0.150613
0.149784
0.148193
0.14647
0.145859
0.159011
0.18417
0.220815
0.275814
0.362976
0.504709
0.741073
1.07652
1.18798
1.19062
1.19076
1.19079
1.19079
1.19079
1.19079
1.19079
1.19079
1.19079
1.19078
1.19078
1.19078
1.19078
1.19077
1.19077
1.19078
1.19075
0.160799
0.159636
0.158239
0.156754
0.156914
0.156637
0.155336
0.153598
0.151615
0.15033
0.149406
0.148211
0.146615
0.145855
0.156477
0.179691
0.213627
0.263768
0.341521
0.466596
0.673668
0.995702
1.18254
1.1905
1.19075
1.19079
1.1908
1.1908
1.1908
1.1908
1.19079
1.19079
1.19079
1.19079
1.19078
1.19078
1.19078
1.19078
1.19078
1.19078
0.159872
0.158789
0.157449
0.156043
0.15623
0.156008
0.154822
0.153201
0.151322
0.150135
0.149148
0.147622
0.146641
0.145872
0.154306
0.175696
0.207228
0.2533
0.323599
0.434467
0.61643
0.910169
1.16694
1.19024
1.19074
1.19079
1.1908
1.19081
1.1908
1.1908
1.1908
1.1908
1.1908
1.19079
1.19079
1.19079
1.19078
1.19078
1.19078
1.19077
0.159049
0.157963
0.156679
0.15535
0.155562
0.155396
0.154318
0.152816
0.151047
0.149912
0.149032
0.147439
0.145598
0.145744
0.152521
0.17222
0.201512
0.244055
0.308164
0.40753
0.568489
0.830694
1.13344
1.18961
1.19071
1.19079
1.19081
1.19081
1.19081
1.19081
1.19081
1.19081
1.1908
1.1908
1.1908
1.19079
1.19079
1.19078
1.19078
1.19078
0.158218
0.157149
0.155929
0.154677
0.15491
0.154796
0.153824
0.152436
0.150794
0.14972
0.148863
0.147481
0.145649
0.143776
0.150761
0.169314
0.196512
0.235843
0.294572
0.384494
0.528029
0.760622
1.07907
1.18789
1.19065
1.19079
1.19082
1.19082
1.19082
1.19082
1.19082
1.19081
1.19081
1.19081
1.1908
1.1908
1.19079
1.19079
1.19079
1.19078
0.157385
0.156356
0.155203
0.154027
0.154275
0.154209
0.153338
0.152063
0.150535
0.149557
0.148735
0.14738
0.145921
0.144478
0.148886
0.166488
0.192208
0.228645
0.282553
0.36449
0.493294
0.700223
1.00881
1.18287
1.19054
1.19079
1.19082
1.19083
1.19083
1.19082
1.19082
1.19082
1.19082
1.19082
1.19081
1.19081
1.1908
1.1908
1.19079
1.19079
0.156571
0.15559
0.154504
0.1534
0.15366
0.153634
0.152858
0.151689
0.150278
0.149368
0.148641
0.147343
0.145868
0.14505
0.147736
0.163849
0.188179
0.22236
0.272028
0.346967
0.463258
0.648426
0.934662
1.1698
1.19032
1.19077
1.19082
1.19083
1.19083
1.19083
1.19083
1.19083
1.19083
1.19082
1.19082
1.19082
1.19081
1.19081
1.1908
1.19079
0.155784
0.154854
0.153835
0.152798
0.153065
0.153074
0.152384
0.151315
0.150006
0.149179
0.1485
0.147353
0.145925
0.144875
0.147175
0.161844
0.184501
0.216596
0.262792
0.331606
0.437149
0.604016
0.864877
1.14322
1.18981
1.19075
1.19083
1.19084
1.19084
1.19084
1.19084
1.19084
1.19083
1.19083
1.19083
1.19082
1.19082
1.19081
1.19081
1.1908
0.155029
0.154152
0.153194
0.152219
0.152491
0.152528
0.151919
0.150942
0.149727
0.148962
0.148361
0.147269
0.146054
0.144905
0.146522
0.160572
0.181485
0.211407
0.254415
0.318093
0.414358
0.565443
0.801696
1.10078
1.1886
1.19071
1.19083
1.19085
1.19085
1.19085
1.19085
1.19084
1.19084
1.19084
1.19084
1.19083
1.19083
1.19082
1.19082
1.19081
0.15431
0.153483
0.152582
0.151662
0.151936
0.151998
0.15146
0.150574
0.149445
0.148732
0.148182
0.1472
0.146002
0.144981
0.145887
0.159349
0.17915
0.207009
0.246961
0.305977
0.394378
0.531603
0.745516
1.044
1.1854
1.19063
1.19083
1.19085
1.19086
1.19086
1.19086
1.19085
1.19085
1.19085
1.19084
1.19084
1.19083
1.19083
1.19082
1.19082
0.153627
0.152846
0.151996
0.151124
0.151401
0.151483
0.151008
0.150202
0.149171
0.148501
0.147987
0.147067
0.146003
0.144915
0.145444
0.157953
0.177085
0.203317
0.240548
0.295134
0.376654
0.501862
0.695942
0.980552
1.17733
1.19048
1.19082
1.19086
1.19087
1.19087
1.19087
1.19086
1.19086
1.19086
1.19085
1.19085
1.19084
1.19084
1.19083
1.19083
0.152977
0.152238
0.151433
0.150602
0.150883
0.150982
0.150561
0.149832
0.148878
0.148284
0.147792
0.146914
0.14591
0.144938
0.145107
0.156809
0.175047
0.200051
0.234993
0.285714
0.360912
0.47559
0.652631
0.917808
1.16036
1.19019
1.19081
1.19087
1.19088
1.19088
1.19088
1.19087
1.19087
1.19086
1.19086
1.19086
1.19085
1.19085
1.19084
1.19083
0.152358
0.151655
0.150887
0.150092
0.150378
0.150494
0.150123
0.149456
0.148585
0.148032
0.147618
0.146768
0.14579
0.144883
0.145074
0.155812
0.17323
0.197029
0.230034
0.277437
0.347076
0.452337
0.614509
0.859194
1.13159
1.18955
1.19078
1.19087
1.19089
1.19089
1.19089
1.19088
1.19088
1.19087
1.19087
1.19086
1.19086
1.19086
1.19085
1.19084
0.151766
0.151093
0.150356
0.149589
0.149884
0.150018
0.149695
0.149085
0.148273
0.147787
0.147394
0.146658
0.145694
0.144807
0.144986
0.155308
0.171591
0.194276
0.225523
0.269991
0.334841
0.431824
0.580658
0.805663
1.09009
1.18804
1.19074
1.19087
1.19089
1.1909
1.1909
1.19089
1.19089
1.19088
1.19088
1.19087
1.19087
1.19086
1.19086
1.19085
0.151196
0.150548
0.149835
0.14909
0.149395
0.149548
0.149272
0.148722
0.147969
0.147506
0.147185
0.146465
0.145655
0.144754
0.144898
0.154643
0.170321
0.191775
0.221413
0.26324
0.323873
0.413661
0.550508
0.757304
1.03905
1.18431
1.19066
1.19087
1.1909
1.19091
1.19091
1.1909
1.1909
1.19089
1.19089
1.19088
1.19088
1.19087
1.19086
1.19086
0.150643
0.150013
0.149321
0.148597
0.148909
0.149082
0.148851
0.148361
0.147675
0.147247
0.146926
0.146312
0.145488
0.144763
0.144846
0.154031
0.169093
0.189602
0.217668
0.257104
0.31396
0.397433
0.523662
0.713958
0.984098
1.17595
1.19051
1.19087
1.19091
1.19092
1.19092
1.19091
1.19091
1.1909
1.1909
1.19089
1.19089
1.19088
1.19087
1.19087
0.150102
0.149487
0.148812
0.14811
0.148428
0.148616
0.148428
0.147996
0.147379
0.147
0.146701
0.146075
0.145396
0.144669
0.144869
0.153567
0.167974
0.187595
0.214297
0.251524
0.304966
0.38283
0.499666
0.67547
0.930058
1.16012
1.19023
1.19086
1.19092
1.19093
1.19093
1.19092
1.19092
1.19091
1.19091
1.1909
1.1909
1.19089
1.19088
1.19088
0.14957
0.148969
0.148311
0.147626
0.147951
0.148154
0.148
0.14762
0.147071
0.146741
0.146491
0.145905
0.145165
0.144625
0.144817
0.153249
0.166993
0.185769
0.211207
0.246463
0.296778
0.369627
0.478091
0.64107
0.879014
1.13501
1.18964
1.19084
1.19092
1.19094
1.19094
1.19094
1.19093
1.19093
1.19092
1.19091
1.19091
1.1909
1.19089
1.19088
0.149046
0.148457
0.147815
0.147151
0.147477
0.147694
0.147576
0.147234
0.146745
0.146471
0.146261
0.145759
0.145055
0.144438
0.144819
0.153003
0.166163
0.184117
0.208377
0.241822
0.289274
0.357645
0.4586
0.610015
0.831731
1.09986
1.18834
1.1908
1.19093
1.19095
1.19095
1.19095
1.19094
1.19094
1.19093
1.19092
1.19092
1.19091
1.1909
1.19089
0.14853
0.147952
0.147328
0.146686
0.147011
0.147237
0.147151
0.146856
0.146399
0.146173
0.146019
0.145573
0.144999
0.144402
0.144738
0.152758
0.165463
0.182636
0.205788
0.237555
0.282358
0.346715
0.440933
0.581758
0.788257
1.05683
1.18538
1.19074
1.19093
1.19096
1.19096
1.19096
1.19096
1.19095
1.19094
1.19093
1.19093
1.19092
1.19091
1.1909
0.148021
0.147457
0.146852
0.146233
0.146555
0.146786
0.146725
0.146473
0.146074
0.14585
0.145744
0.14538
0.144874
0.144433
0.14489
0.152749
0.164753
0.181303
0.203424
0.233632
0.275982
0.336679
0.424866
0.556033
0.748429
1.00977
1.17908
1.19062
1.19093
1.19096
1.19097
1.19097
1.19097
1.19096
1.19095
1.19095
1.19094
1.19093
1.19092
1.19091
0.147521
0.146973
0.146388
0.145793
0.14611
0.146344
0.146305
0.146082
0.145735
0.145567
0.145439
0.145128
0.144745
0.144427
0.145306
0.15292
0.164311
0.180074
0.201264
0.23003
0.270116
0.327437
0.410187
0.532613
0.71221
0.962298
1.16739
1.19041
1.19092
1.19097
1.19098
1.19098
1.19098
1.19097
1.19097
1.19096
1.19095
1.19094
1.19093
1.19092
0.147034
0.146502
0.145938
0.145366
0.145678
0.145911
0.145892
0.145702
0.145375
0.145258
0.14519
0.14485
0.144566
0.144441
0.14593
0.153218
0.164077
0.179076
0.199288
0.226719
0.264735
0.318904
0.396731
0.511238
0.679301
0.916335
1.1487
1.19001
1.19091
1.19098
1.19099
1.19099
1.19099
1.19099
1.19098
1.19097
1.19096
1.19095
1.19094
1.19093
0.146559
0.146045
0.145502
0.144944
0.145258
0.145492
0.145486
0.145325
0.145047
0.144927
0.144904
0.144665
0.144367
0.144395
0.146533
0.153639
0.164053
0.178292
0.197548
0.223686
0.259783
0.310982
0.384364
0.491662
0.649197
0.872819
1.122
1.18919
1.19088
1.19098
1.191
1.19101
1.191
1.191
1.19099
1.19098
1.19097
1.19096
1.19095
1.19094
0.146099
0.145602
0.145073
0.144502
0.144842
0.145084
0.145095
0.144949
0.144712
0.144639
0.144598
0.144432
0.144215
0.144364
0.147135
0.154124
0.16414
0.177706
0.196054
0.220947
0.255237
0.303652
0.372964
0.473692
0.621481
0.832056
1.08779
1.18745
1.19084
1.19099
1.19101
1.19102
1.19102
1.19101
1.191
1.191
1.19099
1.19098
1.19096
1.19095
0.145653
0.145168
0.144632
0.144096
0.144398
0.144677
0.144712
0.144597
0.144377
0.144343
0.144356
0.144203
0.144084
0.144387
0.147827
0.154599
0.164297
0.177293
0.194793
0.21851
0.251095
0.296901
0.362446
0.45717
0.595883
0.794061
1.04839
1.1838
1.19077
1.19099
1.19102
1.19103
1.19103
1.19102
1.19102
1.19101
1.191
1.19099
1.19097
1.19096
0.145216
0.144726
0.144214
0.143718
0.144004
0.14423
0.144328
0.144257
0.144087
0.144071
0.14409
0.144046
0.144057
0.144672
0.148628
0.155177
0.164443
0.177013
0.193738
0.216358
0.247352
0.290737
0.352755
0.441969
0.572286
0.758792
1.00668
1.17682
1.19064
1.19099
1.19103
1.19104
1.19104
1.19104
1.19103
1.19102
1.19101
1.191
1.19099
1.19098
0.144774
0.144302
0.143818
0.143332
0.143645
0.143858
0.143865
0.143918
0.143837
0.143852
0.143884
0.143868
0.144151
0.145574
0.149652
0.155833
0.164738
0.176801
0.192866
0.214468
0.243984
0.285134
0.343815
0.427984
0.550554
0.72635
0.964915
1.16501
1.19041
1.19098
1.19104
1.19105
1.19105
1.19105
1.19104
1.19103
1.19102
1.19101
1.191
1.19099
0.144346
0.143896
0.143417
0.143296
0.14331
0.143533
0.143588
0.143448
0.143631
0.143773
0.143763
0.143943
0.144372
0.146766
0.150722
0.156841
0.165229
0.176726
0.192139
0.212817
0.240961
0.280041
0.335561
0.415118
0.530545
0.696458
0.924312
1.14732
1.18999
1.19097
1.19104
1.19106
1.19106
1.19106
1.19106
1.19105
1.19104
1.19103
1.19101
1.191
0.143936
0.143489
0.143175
0.145286
0.14361
0.143301
0.14341
0.143475
0.143598
0.14402
0.143924
0.144248
0.145533
0.147964
0.152036
0.157746
0.165917
0.176839
0.191579
0.211385
0.238259
0.275418
0.327984
0.403268
0.512107
0.668808
0.885569
1.1229
1.18919
1.19095
1.19105
1.19107
1.19107
1.19107
1.19107
1.19106
1.19105
1.19104
1.19102
1.19101
0.143526
0.143172
0.144651
0.147955
0.14581
0.144253
0.143834
0.144151
0.144904
0.145097
0.144806
0.145537
0.146992
0.149447
0.15332
0.158958
0.166642
0.177147
0.191219
0.210174
0.235859
0.271238
0.321054
0.392371
0.495108
0.643135
0.848939
1.09243
1.18754
1.19091
1.19105
1.19108
1.19109
1.19109
1.19108
1.19107
1.19106
1.19105
1.19104
1.19103
0.143185
0.144191
0.147273
0.150766
0.148497
0.146674
0.146085
0.146176
0.14701
0.146933
0.146558
0.147212
0.148706
0.151155
0.154752
0.160175
0.167573
0.177575
0.191066
0.209197
0.233756
0.267479
0.314769
0.382356
0.47944
0.619286
0.814473
1.05771
1.18427
1.19084
1.19105
1.19109
1.1911
1.1911
1.19109
1.19109
1.19108
1.19106
1.19105
1.19104
0.14396
0.146787
0.150098
0.153635
0.151298
0.149385
0.148661
0.148672
0.149276
0.149172
0.148613
0.149247
0.150548
0.152927
0.156436
0.161484
0.168589
0.178178
0.191085
0.208457
0.231947
0.264121
0.309073
0.373097
0.465001
0.597184
0.782235
1.02091
1.1783
1.19073
1.19105
1.1911
1.19111
1.19111
1.19111
1.1911
1.19109
1.19108
1.19106
1.19105
0.146541
0.149609
0.152979
0.156559
0.154156
0.15217
0.151362
0.151318
0.151812
0.151501
0.150902
0.151355
0.152635
0.15478
0.158158
0.162976
0.169711
0.178915
0.191289
0.207934
0.230425
0.261148
0.303923
0.364591
0.451684
0.576738
0.752332
0.983796
1.16848
1.19053
1.19105
1.1911
1.19112
1.19112
1.19112
1.19111
1.1911
1.19109
1.19107
1.19106
0.149361
0.152497
0.155918
0.159538
0.15707
0.155012
0.154115
0.153991
0.154404
0.153993
0.153247
0.153658
0.154753
0.156795
0.159946
0.164557
0.170982
0.17978
0.191659
0.207625
0.229173
0.258542
0.29929
0.356829
0.439418
0.557833
0.724607
0.94738
1.15397
1.1902
1.19104
1.19111
1.19113
1.19113
1.19113
1.19112
1.19112
1.1911
1.19109
1.19108
0.152253
0.155446
0.158912
0.162568
0.160036
0.157906
0.156919
0.156704
0.157025
0.15654
0.1557
0.15598
0.156987
0.158856
0.161846
0.166217
0.172366
0.180789
0.192185
0.207514
0.228177
0.25628
0.295146
0.349792
0.428149
0.540355
0.698836
0.912334
1.13399
1.1896
1.19102
1.19112
1.19114
1.19115
1.19114
1.19114
1.19113
1.19112
1.1911
1.19109
0.155205
0.158448
0.161956
0.165643
0.163054
0.160853
0.159773
0.159459
0.159681
0.15912
0.158209
0.158377
0.159258
0.161003
0.163811
0.167975
0.173848
0.181925
0.192865
0.207588
0.22742
0.254339
0.291457
0.343454
0.417804
0.524203
0.674811
0.878962
1.10881
1.18842
1.19099
1.19112
1.19115
1.19116
1.19116
1.19115
1.19114
1.19113
1.19111
1.1911
0.158212
0.161502
0.165046
0.168755
0.166118
0.163851
0.162679
0.162263
0.162379
0.161735
0.160755
0.160831
0.16159
0.163199
0.165852
0.16981
0.175429
0.183175
0.193686
0.207837
0.226886
0.252695
0.288184
0.337734
0.408285
0.509288
0.65238
0.847348
1.07957
1.18616
1.19095
1.19113
1.19116
1.19117
1.19117
1.19116
1.19115
1.19114
1.19112
1.19111
0.161271
0.164602
0.168173
0.171893
0.169218
0.166895
0.165636
0.165118
0.165124
0.164391
0.163338
0.163324
0.163978
0.165454
0.167951
0.171721
0.177098
0.184533
0.194635
0.208247
0.226559
0.251327
0.285296
0.332577
0.399588
0.495524
0.631487
0.817529
1.04788
1.18206
1.19086
1.19113
1.19117
1.19118
1.19118
1.19118
1.19117
1.19115
1.19114
1.19113
0.164374
0.167737
0.171325
0.175047
0.172346
0.169976
0.168639
0.168024
0.167919
0.167095
0.165962
0.165855
0.166407
0.167761
0.170109
0.173696
0.178845
0.185987
0.195705
0.208805
0.226422
0.250215
0.282763
0.327935
0.391667
0.482849
0.612081
0.789593
1.01529
1.17528
1.19073
1.19113
1.19118
1.19119
1.19119
1.19119
1.19118
1.19117
1.19115
1.19114
0.167514
0.170899
0.174492
0.178204
0.175488
0.173085
0.171681
0.170976
0.170765
0.169849
0.168633
0.168428
0.168875
0.170112
0.172319
0.175733
0.180665
0.187529
0.196884
0.209501
0.226461
0.249337
0.280558
0.323766
0.384468
0.471198
0.594094
0.763564
0.982784
1.16505
1.19052
1.19112
1.19118
1.1912
1.19121
1.1912
1.19119
1.19118
1.19116
1.19115
0.17068
0.174075
0.177662
0.181356
0.178635
0.17621
0.17475
0.173968
0.173659
0.172654
0.171355
0.171049
0.171388
0.172506
0.174576
0.177825
0.182551
0.18915
0.198162
0.210322
0.226663
0.248676
0.278656
0.320035
0.377936
0.460501
0.577439
0.7393
0.951058
1.15072
1.19015
1.19111
1.19119
1.19121
1.19122
1.19122
1.19121
1.19119
1.19118
1.19117
0.17386
0.177254
0.180827
0.184496
0.181777
0.179341
0.177838
0.176988
0.176592
0.175506
0.174128
0.173721
0.173948
0.174944
0.176878
0.179967
0.184496
0.190846
0.199532
0.21126
0.227016
0.248218
0.277034
0.316708
0.372021
0.450685
0.562024
0.716643
0.920533
1.13194
1.18949
1.19109
1.19119
1.19122
1.19123
1.19123
1.19122
1.19121
1.19119
1.19118
0.177044
0.180427
0.183978
0.18762
0.184908
0.182467
0.180932
0.180028
0.179556
0.178399
0.176949
0.176445
0.176561
0.177433
0.179228
0.182158
0.186497
0.192608
0.200986
0.212305
0.227509
0.247946
0.275672
0.313755
0.366673
0.441681
0.547761
0.69543
0.891394
1.10916
1.18827
1.19106
1.1912
1.19123
1.19124
1.19124
1.19123
1.19122
1.1912
1.19119
0.180221
0.183587
0.187113
0.190726
0.188023
0.185582
0.184023
0.183076
0.18254
0.181323
0.179811
0.179217
0.179225
0.179973
0.181629
0.1844
0.188551
0.194433
0.202518
0.213451
0.228132
0.247849
0.274552
0.311147
0.36184
0.433429
0.534576
0.675582
0.863702
1.08334
1.18605
1.19101
1.1912
1.19124
1.19125
1.19125
1.19125
1.19123
1.19122
1.1912
0.183385
0.18673
0.19023
0.193817
0.19112
0.188683
0.187106
0.186123
0.185533
0.184269
0.182704
0.18203
0.181938
0.182567
0.184084
0.186695
0.19066
0.196318
0.204122
0.214688
0.228876
0.247913
0.273656
0.308859
0.357479
0.425876
0.522399
0.657056
0.83751
1.05576
1.18227
1.19093
1.1912
1.19125
1.19126
1.19127
1.19126
1.19125
1.19123
1.19122
0.186532
0.189854
0.19333
0.196894
0.194202
0.191767
0.190174
0.189162
0.188528
0.187225
0.18562
0.184876
0.184694
0.18521
0.186592
0.189045
0.192826
0.198263
0.205794
0.21601
0.229731
0.248127
0.272967
0.306866
0.353551
0.418969
0.51116
0.639802
0.812894
1.02748
1.17632
1.1908
1.19119
1.19125
1.19127
1.19128
1.19128
1.19126
1.19124
1.19123
0.18966
0.192962
0.196417
0.199964
0.197272
0.194836
0.193228
0.192189
0.191516
0.190182
0.188546
0.187745
0.187483
0.187897
0.189151
0.191451
0.19505
0.20027
0.207535
0.217413
0.23069
0.248481
0.27247
0.305145
0.35002
0.412655
0.500793
0.623761
0.78986
0.999225
1.16762
1.19061
1.19119
1.19126
1.19128
1.19129
1.19129
1.19128
1.19126
1.19125
0.192771
0.196056
0.199496
0.203031
0.200335
0.197894
0.196269
0.195204
0.194496
0.193136
0.191475
0.190626
0.190296
0.190618
0.191755
0.193909
0.197331
0.202338
0.209343
0.218895
0.231746
0.248962
0.272151
0.303675
0.346854
0.406888
0.491232
0.608856
0.768306
0.971565
1.15569
1.19029
1.19117
1.19126
1.19129
1.1913
1.1913
1.19129
1.19127
1.19126
0.195868
0.199141
0.202571
0.206098
0.203394
0.200944
0.1993
0.198208
0.197465
0.196081
0.194402
0.193511
0.193123
0.193364
0.194394
0.196412
0.199665
0.204466
0.211218
0.220452
0.232894
0.249563
0.271995
0.302436
0.344024
0.401626
0.482418
0.595007
0.748108
0.944854
1.14025
1.18976
1.19115
1.19126
1.1913
1.19131
1.19132
1.1913
1.19129
1.19127
0.198956
0.202222
0.205647
0.209167
0.206455
0.203993
0.202325
0.201204
0.200425
0.199018
0.197321
0.196395
0.195955
0.196125
0.19706
0.198953
0.202047
0.20665
0.213156
0.222083
0.23413
0.250275
0.27199
0.30141
0.341503
0.396829
0.474295
0.582138
0.729134
0.919257
1.12157
1.18883
1.19112
1.19126
1.1913
1.19132
1.19133
1.19132
1.1913
1.19129
0.20204
0.205303
0.208724
0.21224
0.209518
0.207042
0.205349
0.204196
0.203379
0.201947
0.200233
0.199273
0.198788
0.198894
0.199743
0.201522
0.204468
0.208884
0.215154
0.223784
0.235449
0.251093
0.272126
0.300581
0.339269
0.392462
0.466808
0.570177
0.711305
0.894828
1.10028
1.18722
1.19107
1.19126
1.19131
1.19133
1.19134
1.19133
1.19132
1.1913
0.205123
0.208386
0.211805
0.215314
0.212584
0.210094
0.208375
0.207188
0.206332
0.204873
0.203139
0.202146
0.201617
0.201666
0.202436
0.204111
0.206921
0.211159
0.217205
0.225549
0.236847
0.25201
0.272392
0.299934
0.3373
0.388504
0.459908
0.559062
0.694566
0.871576
1.07729
1.18455
1.191
1.19125
1.19131
1.19134
1.19135
1.19135
1.19133
1.19132
0.208209
0.211471
0.214887
0.218388
0.215652
0.213151
0.211404
0.210184
0.209287
0.207798
0.206042
0.205015
0.204444
0.204437
0.205135
0.206713
0.209396
0.21347
0.219302
0.227373
0.238318
0.253019
0.27278
0.299456
0.335576
0.38492
0.453528
0.548733
0.678875
0.849529
1.05339
1.1804
1.1909
1.19124
1.19131
1.19135
1.19136
1.19136
1.19135
1.19133
0.211297
0.214559
0.217968
0.221458
0.21872
0.216209
0.214438
0.213184
0.212247
0.210727
0.208946
0.207883
0.207269
0.207208
0.207836
0.209323
0.211887
0.215806
0.221438
0.229248
0.239855
0.254114
0.273282
0.299134
0.334076
0.381676
0.447631
0.539129
0.664184
0.828761
1.0292
1.17433
1.19076
1.19123
1.19131
1.19136
1.19138
1.19137
1.19136
1.19135
0.214387
0.217645
0.221045
0.224521
0.221784
0.219267
0.217475
0.216189
0.215213
0.213661
0.211854
0.210754
0.210095
0.20998
0.21054
0.21194
0.214391
0.218164
0.223605
0.231168
0.241452
0.255288
0.27389
0.298957
0.332784
0.378742
0.442194
0.530197
0.650436
0.809214
1.00519
1.166
1.19054
1.19121
1.19131
1.19136
1.19139
1.19139
1.19137
1.19136
0.217475
0.220727
0.224115
0.227574
0.224841
0.222321
0.220511
0.219198
0.218185
0.216602
0.214769
0.21363
0.212926
0.212756
0.213248
0.214563
0.216906
0.220539
0.225799
0.233126
0.243102
0.256533
0.274595
0.298916
0.331686
0.376095
0.437189
0.52189
0.637568
0.790798
0.981724
1.155
1.19021
1.19119
1.19131
1.19137
1.1914
1.1914
1.19139
1.19138
0.22056
0.223802
0.227175
0.230618
0.227889
0.225369
0.223545
0.222207
0.22116
0.21955
0.217691
0.216515
0.215764
0.215538
0.215963
0.217194
0.219431
0.222929
0.228016
0.235117
0.244799
0.257845
0.275392
0.299002
0.330768
0.373716
0.432591
0.514165
0.625518
0.773413
0.959006
1.14131
1.18967
1.19117
1.19131
1.19137
1.19141
1.19141
1.1914
1.19139
0.223637
0.226867
0.230226
0.233652
0.230927
0.228408
0.226573
0.225214
0.224137
0.222502
0.220621
0.219407
0.218611
0.21833
0.218687
0.219835
0.221969
0.225336
0.230255
0.23714
0.24654
0.259218
0.276273
0.299205
0.330017
0.371587
0.428392
0.506978
0.614229
0.756969
0.937142
1.12516
1.18878
1.19114
1.19131
1.19138
1.19142
1.19142
1.19142
1.19141
0.226705
0.229922
0.233266
0.236677
0.233956
0.231438
0.229593
0.228216
0.227112
0.225456
0.223555
0.222308
0.221468
0.221133
0.221423
0.22249
0.224521
0.22776
0.232516
0.239192
0.248322
0.260648
0.277233
0.299518
0.329423
0.369688
0.42455
0.500262
0.603647
0.741416
0.916168
1.10705
1.18733
1.19109
1.19131
1.19138
1.19143
1.19144
1.19143
1.19142
0.229761
0.232966
0.236297
0.239695
0.236977
0.234459
0.232604
0.231211
0.230084
0.228409
0.226491
0.225214
0.224333
0.223947
0.224172
0.225158
0.227089
0.230203
0.234801
0.241274
0.250143
0.262132
0.278267
0.299935
0.328975
0.368002
0.421032
0.494007
0.593723
0.726712
0.896097
1.0876
1.18504
1.19103
1.1913
1.19139
1.19144
1.19145
1.19144
1.19143
0.232808
0.236001
0.23932
0.242707
0.23999
0.237472
0.235607
0.234199
0.233049
0.231358
0.229427
0.228122
0.227205
0.22677
0.226934
0.227841
0.229675
0.232666
0.23711
0.243387
0.252005
0.263669
0.279373
0.300449
0.328665
0.366515
0.417812
0.488193
0.584418
0.712825
0.876959