/*--------------------------------*- C++ -*----------------------------------*\
| =========                 |                                                 |
| \\      /  F ield         | OpenFOAM: The Open Source CFD Toolbox           |
|  \\    /   O peration     | Version:  1.6.x                                 |
|   \\  /    A nd           | Web:      www.OpenFOAM.org                      |
|    \\/     M anipulation  |                                                 |
\*---------------------------------------------------------------------------*/
FoamFile
{
    version     2.0;
    format      ascii;
    class       volScalarField;
    location    "2";
    object      T;
}
// * * * * * * * * * * * * * * * * * * * * * * * * * * * * * * * * * * * * * //

dimensions      [0 0 0 1 0 0 0];

internalField   nonuniform List<scalar> 
4608
(
293.594
293.442
293.422
392.99
293.461
293.439
293.391
298.581
454.994
827.505
293.479
293.463
293.439
293.387
293.571
306.71
504.368
899.288
1860.51
293.499
293.483
293.465
293.44
293.299
294.332
317.206
545.538
935.635
1868.86
1906.76
2180.15
293.522
293.506
293.487
293.466
293.396
295.632
329.687
583.472
957.693
1864.53
2114.15
1887.67
1879.75
1967.22
293.546
293.529
293.51
293.488
293.609
297.56
343.847
620.144
983.351
1856.83
2071.72
2147.22
1880.81
1879.53
1879.4
1635.83
293.573
293.555
293.534
293.512
293.956
300.191
359.45
655.899
1012.09
1852.05
2042.39
2196.39
1651.12
1876.02
1879.42
1879.39
1879.39
1146.54
293.6
293.581
293.559
293.536
294.505
303.582
376.3
691.301
1040.71
1848.84
2023.04
2163.74
1735.04
1263.19
1879.35
1879.39
1879.39
1879.39
778.118
293.629
293.609
293.586
293.561
295.316
307.759
394.337
726.979
1069.33
1846.08
2010.61
2137.8
1905.29
1361.42
981.164
1879.4
1879.39
1879.39
1879.39
463.189
293.658
293.637
293.613
293.588
296.44
312.755
413.641
763.497
1098.34
1844.36
2001.78
2125.96
2076.99
1537.38
1102.29
667.626
1879.4
1879.39
1879.4
1879.4
323.454
293.689
293.667
293.641
293.615
297.933
318.619
434.397
800.993
1128.1
1843.64
1994.31
2115.38
2213.78
1733.63
1273.17
796.778
433.679
1879.4
1879.4
1879.41
1879.41
294.446
293.721
293.697
293.67
293.643
299.855
325.408
456.849
839.298
1158.65
1843.65
1988.9
2107.02
2217.45
1897.32
1470.25
950.113
538.936
318.885
1879.4
1879.41
1879.42
1879.43
291.425
293.755
293.729
293.7
293.672
302.263
333.203
481.211
878.228
1189.83
1844.34
1984.87
2094.6
2217.15
2015.62
1644.14
1131.23
662.975
364.064
293.847
1879.41
1879.42
1879.45
1879.46
291.037
293.79
293.763
293.732
293.702
305.217
342.1
507.666
917.754
1221.89
1845.41
1980.73
2085.44
2195.89
2109.68
1790.01
1304
821.007
435.17
300.748
291.321
1879.41
1879.44
1879.47
1879.48
290.948
293.826
293.797
293.765
293.733
308.778
352.233
536.285
957.71
1255.66
1847.64
1977.59
2077.82
2182.65
2183.41
1914.48
1460.09
982.338
551.333
317.737
291.978
291.014
1879.42
1879.46
1879.48
1879.49
290.918
293.861
293.833
293.799
293.766
313.017
363.736
567.05
998.404
1290.05
1853.44
1976.74
2071.69
2172.73
2202.14
2021.73
1600.51
1135.04
692.055
363.446
293.605
291.126
290.941
1879.44
1879.47
1879.48
1879.49
290.907
293.893
293.867
293.834
293.8
318.007
376.76
599.958
1040.41
1326.04
1857.43
1977.19
2067.12
2164.99
2211.02
2112.2
1723.44
1278.75
836.889
452.94
299.353
291.325
290.977
290.915
1879.46
1879.48
1879.45
1879.46
290.902
293.921
293.899
293.867
293.835
323.836
391.485
635.012
1085.31
1364.78
1861.31
1977.83
2066.6
2155.99
2212.97
2190.06
1834.68
1410.41
974.855
572.836
321.359
291.787
291.026
290.931
290.903
1879.48
1879.46
1879.41
1879.41
290.9
293.951
293.927
293.898
293.868
330.609
408.125
672.398
1135.33
1409.67
1865.53
1979.53
2065.03
2159.95
2204.39
2230.14
1934.89
1530.13
1105.11
702.285
376.98
293.466
291.102
290.951
290.912
290.898
1879.49
1879.43
1879.36
1879.35
290.9
293.994
293.957
293.926
293.899
338.456
426.954
712.282
1195.35
1463.93
1872.1
1981.14
2063.55
2153.02
2223.82
2228.23
2021.51
1639.09
1226.75
827.087
472.854
301.083
291.253
290.975
290.922
290.903
290.896
1879.48
1879.38
1879.32
1879.32
290.899
293.99
293.956
293.927
347.548
448.228
755.773
1260.23
1533.31
1878.59
1982.65
2062.1
2146.71
2205.59
2267.89
2095.18
1737.46
1340.47
943.807
582.556
330.868
291.718
291.006
290.932
290.908
290.899
290.895
1879.45
1879.34
1879.32
1879.34
290.899
293.994
293.957
358.09
472.471
801.608
1608.98
1586.61
1886.73
1983.79
2060.42
2141.02
2197.05
2240.18
2169.43
1828.52
1444.22
1054.5
692.399
393.709
294.091
291.064
290.944
290.914
290.902
290.898
290.895
1879.39
1879.32
1879.36
1879.44
290.899
293.993
370.375
499.893
887.136
1751.34
1769.94
1889.56
1984.07
2058.75
2135.53
2188.28
2231.51
2224.76
1913.92
1541.99
1158.01
796.814
479.569
305.444
291.221
290.96
290.92
290.905
290.899
290.897
290.894
1879.34
1879.36
1879.47
1879.63
290.898
384.728
532.856
974.322
1788.64
1843.01
1929.67
1981.97
2056.22
2130.85
2180.41
2222.02
2253.04
1989.17
1633.41
1258.33
895.501
572.108
337.938
291.834
290.985
290.926
290.908
290.9
290.897
290.896
290.894
1879.34
1879.47
1879.65
1879.86
290.898
401.522
570.291
1059.3
1804.54
1865.97
1935.35
1990.49
2051.83
2125.77
2174.64
2213.32
2249.41
2056.28
1715.66
1353.05
991.238
663.592
396.376
294.826
291.041
290.935
290.911
290.902
290.898
290.896
290.895
290.893
1879.43
1879.64
1879.86
290.898
420.93
613.393
1143.3
1810.69
1875.7
1940.47
1996.39
2051.61
2118.94
2168.07
2207.63
2244.86
2113.07
1791.8
1438.93
1083.16
752.027
468.39
307.149
291.208
290.946
290.915
290.903
290.899
290.897
290.896
290.895
290.893
1879.61
1879.86
290.897
443.476
664.229
1224.8
1842.43
1878.83
1943.95
2001.09
2055.22
2114.5
2159.57
2200.14
2242.42
2162.58
1861.83
1518.89
1169.24
837.921
545.309
336.463
291.854
290.969
290.919
290.905
290.9
290.897
290.896
290.895
290.894
290.892
1879.86
290.897
470.145
722.072
1561.42
1884.63
1891.58
1945.45
2004.44
2059.47
2117.09
2153.78
2190.61
2238.66
2207.56
1925.07
1593.74
1250.62
919.798
622.885
385.32
294.642
291.021
290.925
290.907
290.9
290.898
290.896
290.895
290.894
290.894
290.892
290.897
501.887
817.218
1741.49
1913.5
1915.99
1949.53
2005.87
2062.54
2119.93
2158.54
2184.1
2230.9
2249.14
1984.74
1663.33
1327.76
997.918
697.599
444.941
304.78
291.164
290.935
290.91
290.901
290.898
290.896
290.896
290.895
290.894
290.893
290.892
290.896
542.912
932.171
1796.09
1919.33
1936.44
1959.31
2007.78
2063.66
2121.25
2159.32
2191.31
2224.63
2253.49
2041.63
1729.41
1400.61
1072.94
769.923
508.366
327.896
291.657
290.954
290.913
290.903
290.898
290.897
290.896
290.895
290.894
290.893
290.893
290.891
290.896
596.081
1060.12
1815.63
1925.94
1943.77
1970.32
2012.63
2064.34
2120.92
2158.26
2189.59
2241.3
2252.6
2094.68
1791.86
1470.43
1145.36
840.5
572.52
366.104
293.591
290.994
290.918
290.904
290.899
290.897
290.896
290.895
290.894
290.893
290.893
290.892
290.891
290.896
666.966
1194.61
1864.52
1942.43
1948.77
1977.6
2019.07
2066.64
2120
2156.44
2186.44
2231.85
2289.98
2148.9
1854.12
1536.52
1216.41
909.152
635.768
413.61
300.287
291.094
290.926
290.906
290.899
290.897
290.896
290.895
290.894
290.893
290.893
290.892
290.892
290.891
290.896
759.235
1656.28
1908.96
1958.32
1961.4
1982.67
2024.49
2070.23
2120.15
2154.22
2183.62
2224.98
2264.34
2201.17
1918.19
1601.95
1284.4
976.724
698.048
465.222
315.976
291.386
290.939
290.908
290.9
290.897
290.896
290.895
290.894
290.893
290.893
290.892
290.892
290.892
290.89
290.895
937.355
1802.86
1932.21
1973.83
1974.94
1990.97
2029.46
2073.72
2121.46
2153.09
2180.41
2221.33
2259.34
2231.85
1975.26
1668.16
1351.11
1042.53
760.286
518.801
343.178
292.397
290.966
290.912
290.901
290.897
290.896
290.895
290.894
290.893
290.893
290.892
290.892
290.892
290.891
290.89
290.895
1173.85
1898.23
1952.28
1988.77
1988.77
2001.18
2036.12
2077.97
2123.16
2153.11
2178.18
2216.62
2257.79
2261.51
2020.59
1727.61
1417.85
1108.04
821.794
573.307
379.816
295.834
291.024
290.917
290.902
290.897
290.895
290.894
290.894
290.893
290.892
290.892
290.891
290.891
290.891
290.891
290.89
290.895
1742.81
1933.1
1969.83
2003.17
2002.39
2012.39
2044.09
2083.59
2127.03
2153.81
2177.12
2213.14
2252.97
2274.23
2061.78
1778.24
1478.67
1173.9
882.763
627.559
421.551
304.747
291.169
290.926
290.904
290.898
290.895
290.894
290.893
290.893
290.892
290.891
290.891
290.891
290.891
290.891
290.891
290.89
290.895
1916.59
1955.06
1986.02
2017.38
2015.71
2023.98
2053
2090.03
2131.94
2158.35
2177.1
2210.78
2248.77
2272.1
2098.55
1824.66
1532.29
1234.7
943.709
681.973
466.155
321.637
291.589
290.942
290.907
290.899
290.896
290.894
290.893
290.892
290.892
290.891
290.891
290.89
290.891
290.891
290.89
290.891
290.889
290.894
1947.73
1972.91
2001.75
2031.46
2028.92
2035.62
2062.28
2097.09
2136.83
2162.85
2182.52
2210
2245.6
2270.6
2130.53
1868.18
1582.09
1289.62
1001.87
736.962
512.408
347.604
292.925
290.973
290.91
290.899
290.896
290.894
290.893
290.892
290.891
290.891
290.89
290.89
290.89
290.89
290.89
290.89
290.89
290.889
1966.65
1989.94
2017.27
2045.4
2042.04
2047.26
2071.62
2104.31
2142.11
2166.34
2186.52
2218.52
2244.35
2269.04
2158.7
1908.74
1629.21
1341.45
1056.23
790.694
559.549
380.077
296.827
291.038
290.916
290.901
290.896
290.894
290.893
290.892
290.891
290.89
290.89
290.889
290.889
290.889
290.89
290.89
290.89
290.89
1984.03
2006.61
2032.55
2059.14
2055.09
2058.9
2081.01
2111.47
2147.25
2170.41
2188.69
2221.24
2260.07
2269.84
2182.45
1945.48
1673.7
1390.8
1108
842.166
606.258
416.201
305.562
291.194
290.925
290.902
290.896
290.894
290.893
290.891
290.89
290.89
290.889
290.889
290.889
290.889
290.889
290.889
290.889
290.889
2001.22
2022.97
2047.5
2072.58
2067.99
2070.54
2090.42
2118.68
2152.16
2174.12
2191.8
2220.74
2258.86
2300.73
2206.42
1977.3
1714.65
1437.76
1157.97
891.801
652.2
454.265
320.885
291.616
290.94
290.904
290.897
290.894
290.892
290.891
290.89
290.889
290.889
290.888
290.888
290.888
290.888
290.888
290.888
290.889
2018.13
2038.88
2062.03
2085.66
2080.67
2082.13
2099.89
2125.93
2157.25
2177.49
2194.38
2222.59
2254.39
2288.34
2233.24
2009.27
1751.53
1481.59
1206.05
939.894
697.575
493.138
343.115
292.85
290.968
290.908
290.898
290.894
290.892
290.891
290.89
290.889
290.888
290.888
290.887
290.887
290.888
290.887
290.888
290.888
2034.55
2054.26
2076.07
2098.33
2093.05
2093.6
2109.4
2133.31
2162.43
2181.33
2196.55
2223.53
2255.25
2278.55
2249.43
2040.3
1787.53
1522.11
1251.54
986.484
742.222
532.189
370.179
296.109
291.026
290.912
290.898
290.894
290.892
290.891
290.89
290.889
290.888
290.887
290.887
290.886
290.887
290.886
290.887
290.888
2050.37
2069.05
2089.58
2110.57
2105.11
2104.9
2118.91
2140.82
2167.91
2185.28
2199.49
2223.83
2254.38
2281.21
2257.19
2064.37
1821.79
1561.25
1294.36
1031.29
785.939
570.95
399.861
302.965
291.149
290.92
290.9
290.895
290.892
290.891
290.89
290.889
290.888
290.887
290.886
290.886
290.886
290.886
290.886
290.887
2065.54
2083.21
2102.57
2122.41
2116.81
2115.98
2128.36
2148.4
2173.6
2189.71
2202.5
2225.65
2252.5
2280.35
2266.71
2079.87
1850.84
1598.29
1335.82
1074.19
828.528
609.505
431.16
314.592
291.448
290.932
290.902
290.895
290.892
290.891
290.89
290.888
290.887
290.887
290.886
290.885
290.885
290.885
290.885
290.886
2080.03
2096.75
2115.05
2133.87
2128.17
2126.82
2137.77
2155.99
2179.43
2194.43
2206.19
2227.35
2253.54
2278.94
2275.89
2095.05
1873.94
1631.07
1375
1115.81
869.841
647.881
463.411
331.615
292.232
290.953
290.904
290.895
290.892
290.891
290.889
290.888
290.887
290.886
290.886
290.885
290.885
290.884
290.884
290.885
2093.86
2109.72
2127.07
2145
2139.21
2137.43
2147.09
2163.7
2185.23
2199.26
2210.2
2230.09
2253.87
2279.88
2282.25
2112.58
1894.85
1659.62
1410.6
1155.88
910.092
685.827
496.158
352.957
294.229
290.991
290.907
290.896
290.892
290.891
290.889
290.888
290.887
290.886
290.886
290.885
290.884
290.883
290.884
290.884
2107.07
2122.16
2138.7
2155.86
2149.96
2147.8
2156.35
2171.44
2191.38
2203.98
2214.31
2233.22
2255.73
2279.55
2287.12
2127.17
1915.93
1685.72
1442.95
1193.1
949.09
723.242
528.803
376.945
298.517
291.065
290.913
290.897
290.892
290.89
290.889
290.888
290.887
290.886
290.885
290.885
290.884
290.883
290.883
290.883
2119.72
2134.15
2150
2166.54
2160.48
2157.95
2165.5
2179.3
2197.6
2209.29
2218.21
2236.34
2258.08
2280.54
2287.39
2140.06
1935.12
1710.6
1473.1
1227.83
986.229
759.929
561.307
402.499
306.073
291.223
290.92
290.898
290.893
290.89
290.889
290.888
290.887
290.886
290.885
290.884
290.884
290.883
290.883
290.882
2131.89
2145.77
2161.06
2177.09
2170.85
2167.94
2174.52
2187.13
2204.17
2214.57
2222.92
2239.02
2260.16
2281.91
2288.56
2146.65
1952.77
1733.92
1501.63
1260.84
1021.57
795.523
593.708
429.062
317.669
291.594
290.933
290.899
290.893
290.89
290.889
290.888
290.887
290.886
290.885
290.884
290.884
290.883
290.883
290.882
2143.67
2157.12
2171.97
2187.57
2181.14
2177.83
2183.48
2194.88
2210.66
2220.46
2227.5
2243.02
2261.48
2283.03
2289.81
2155.35
1966.67
1755.65
1528.61
1292.34
1055.48
829.939
625.886
456.262
333.196
292.51
290.954
290.902
290.893
290.89
290.889
290.887
290.886
290.886
290.885
290.884
290.884
290.882
290.882
290.881
2155.16
2168.27
2182.76
2197.98
2191.39
2187.68
2192.43
2202.66
2217.09
2226.1
2232.9
2246.52
2264.84
2283.27
2290.61
2163.52
1980.29
1774.97
1554.04
1322.36
1088.11
863.302
657.618
483.749
351.702
294.581
290.993
290.905
290.894
290.89
290.888
290.887
290.886
290.885
290.885
290.884
290.883
290.882
290.882
290.881
2166.43
2179.28
2193.46
2208.32
2201.57
2197.54
2201.46
2210.55
2223.62
2231.63
2237.87
2251.37
2267.14
2285.22
2290.31
2169.75
1992.89
1793.2
1577.65
1350.89
1119.51
895.7
688.832
511.087
372.019
298.587
291.065
290.91
290.894
290.89
290.888
290.887
290.886
290.885
290.885
290.884
290.883
290.882
290.882
290.881
2177.55
2190.18
2204.06
2218.6
2211.7
2207.36
2210.58
2218.64
2230.4
2237.43
2242.7
2255.28
2271.67
2286.46
2291.28
2174.02
2004.06
1810.12
1599.94
1377.84
1149.71
927.153
719.535
538.273
393.491
305.162
291.21
290.917
290.895
290.89
290.888
290.887
290.886
290.885
290.884
290.884
290.883
290.882
290.882
290.881
2188.55
2200.97
2214.58
2228.77
2221.79
2217.16
2219.67
2226.93
2237.53
2243.49
2247.95
2258.92
2274.4
2290.03
2291.48
2177.37
2013.6
1825.69
1620.91
1403.52
1178.85
957.666
749.722
565.424
415.715
314.871
291.528
290.928
290.897
290.89
290.888
290.887
290.886
290.885
290.884
290.883
290.883
290.882
290.882
290.881
2199.43
2211.66
2224.97
2238.78
2231.78
2226.94
2228.79
2235.14
2245
2250.03
2253.43
2263.31
2276.43
2291.3
2293.08
2180.71
2021.73
1839.88
1640.58
1427.98
1207.04
987.303
779.353
592.62
438.485
327.63
292.257
290.946
290.899
290.891
290.888
290.887
290.886
290.885
290.884
290.883
290.883
290.882
290.882
290.881
2210.2
2222.21
2235.2
2248.62
2241.62
2236.64
2237.98
2243.46
2252.18
2257.01
2259.51
2267.86
2279.67
2291.71
2291.13
2180.94
2030.04
1852.84
1658.95
1451.24
1234.25
1016.17
808.408
619.758
461.649
342.818
293.814
290.976
290.901
290.891
290.888
290.887
290.885
290.884
290.884
290.883
290.883
290.882
290.882
290.881
2220.83
2232.58
2245.23
2258.24
2251.31
2246.22
2247.08
2251.96
2259.65
2263.42
2266.11
2273.43
2282.99
2292.96
2285.18
2178.68
2035.28
1864.96
1676.11
1473.26
1260.38
1044.29
836.909
646.716
484.945
359.637
296.744
291.031
290.905
290.892
290.888
290.887
290.885
290.884
290.884
290.883
290.882
290.882
290.882
290.881
2231.28
2242.76
2255.04
2267.68
2260.78
2255.65
2256.1
2260.3
2267.49
2270.3
2271.88
2279.43
2287.18
2293.71
2276.2
2174.7
2038.07
1874.94
1692.12
1494.1
1285.33
1071.66
864.858
673.451
508.248
377.571
301.553
291.131
290.911
290.893
290.889
290.887
290.885
290.884
290.883
290.883
290.882
290.881
290.882
290.881
2241.52
2252.7
2264.66
2277.05
2270.08
2264.88
2265.02
2268.62
2274.87
2277.58
2278.31
2284.05
2291.78
2295.53
2267.53
2169.12
2038.38
1882.84
1706.47
1513.72
1309.19
1098.39
892.237
699.947
531.615
396.281
308.697
291.331
290.919
290.894
290.889
290.887
290.885
290.884
290.883
290.883
290.882
290.881
290.882
290.88
2251.53
2262.44
2274.17
2286.76
2279.33
2273.96
2273.72
2276.96
2282.38
2284.21
2285.12
2289.5
2295.69
2297.19
2259.01
2162.69
2037.36
1888.8
1718.99
1531.88
1331.88
1124.34
919.055
726.172
555.11
415.57
318.36
291.759
290.932
290.896
290.889
290.887
290.885
290.884
290.883
290.882
290.882
290.881
290.881
290.88
2261.32
2272.05
2283.88
2295.92
2289.06
2283.03
2282.32
2284.92
2289.94
2291.01
2290.94
2294.94
2299.36
2298.08
2249.29
2156.45
2035.54
1893.03
1729.72
1548.41
1353.25
1149.33
945.264
752.077
578.732
435.319
330.266
292.657
290.952
290.898
290.89
290.887
290.885
290.884
290.883
290.882
290.882
290.881
290.881
290.88
2270.98
2281.79
2293.26
2304.67
2298.01
2292.78
2290.95
2292.75
2296.79
2297.46
2297.17
2299.27
2301.36
2294.93
2238.09
2148.93
2033.86
1895.92
1738.79
1563.31
1373.16
1173.15
970.77
777.597
602.36
455.408
343.879
294.387
290.987
290.901
290.891
290.887
290.886
290.884
290.883
290.882
290.881
290.881
290.881
290.88
2280.74
2291.29
2302.31
2313.59
2306.44
2301.36
2300.92
2300.56
2303.04
2303.1
2302.48
2303.94
2301.52
2282
2223.84
2140.45
2030.45
1898.13
1746.37
1576.64
1391.58
1195.67
995.547
802.649
625.892
475.596
358.681
297.36
291.044
290.905
290.892
290.888
290.886
290.884
290.883
290.882
290.881
290.881
290.881
290.88
2290.29
2300.52
2311.5
2316.81
2314.5
2309.19
2307.88
2310.61
2308.6
2306.49
2306.45
2304.63
2299.63
2264.88
2209.04
2127.45
2024.76
1898.94
1752.75
1588.47
1408.55
1216.9
1019.57
827.166
649.244
495.848
374.347
301.928
291.148
290.911
290.893
290.888
290.886
290.884
290.883
290.882
290.881
290.88
290.881
290.879
2299.6
2309.82
2318.12
2287.46
2312.26
2315.56
2313.27
2312.53
2311.43
2304.66
2305.92
2301.63
2282.93
2247.9
2191.1
2115.94
2016.8
1897.82
1757.7
1598.88
1424.07
1236.84
1042.67
851.106
672.357
516.179
390.626
308.464
291.347
290.919
290.894
290.889
290.886
290.885
290.883
290.882
290.881
290.88
290.881
290.879
2308.96
2317.67
2296.9
2248.59
2279.73
2302.75
2308.86
2303.98
2292.74
2289.67
2293.86
2283.07
2261.92
2226.97
2173.83
2100.68
2008.5
1894.7
1760.91
1607.8
1438.14
1255.43
1064.72
874.376
695.173
536.607
407.375
317.027
291.751
290.931
290.896
290.889
290.887
290.885
290.884
290.882
290.881
290.88
290.881
290.879
2317.2
2303.77
2258.4
2208.99
2240.84
2267.08
2275.65
2274.24
2262.06
2263.08
2268.46
2258.94
2237.5
2203.24
2154.83
2085.59
1997.91
1890.38
1762.31
1615.07
1450.7
1272.63
1085.55
896.91
717.616
557.088
424.5
327.383
292.556
290.95
290.898
290.89
290.887
290.885
290.884
290.883
290.881
290.88
290.881
290.879
2307.23
2265.47
2218.28
2170.01
2201.65
2228.26
2238.47
2238.3
2229.71
2231.15
2239.02
2230
2211.77
2179.19
2132.86
2069.57
1986.48
1884.29
1762.17
1620.63
1461.69
1288.41
1105.14
918.8
739.618
577.513
441.874
339.123
294.034
290.98
290.901
290.891
290.888
290.886
290.884
290.883
290.882
290.881
290.881
290.879
2269.05
2225.13
2178.8
2131.64
2163.06
2189.72
2200.74
2201.31
2194.53
2198.76
2206.99
2200.71
2183.23
2154.56
2110.88
2051.57
1974
1876.91
1760.39
1624.58
1471.07
1302.7
1123.47
939.871
761.14
597.787
459.311
351.849
296.494
291.028
290.904
290.892
290.888
290.886
290.884
290.883
290.882
290.881
290.881
290.879
2228.62
2185.31
2139.95
2093.92
2125.08
2151.75
2163.56
2165.17
2159.68
2165.11
2175.07
2169.54
2154.97
2128.34
2088.52
2032.86
1960.02
1868.3
1757.15
1626.94
1478.87
1315.5
1140.49
959.96
782.1
617.842
476.754
365.299
300.209
291.111
290.909
290.893
290.889
290.887
290.885
290.883
290.882
290.881
290.881
290.879
2188.63
2146.11
2101.75
2056.88
2087.73
2114.4
2126.96
2129.69
2125.53
2131.75
2142.62
2138.96
2125.93
2102.17
2065.26
2013.57
1945.03
1858.34
1752.56
1627.81
1485.14
1326.81
1156.15
978.926
802.399
637.616
494.198
379.249
305.474
291.261
290.916
290.894
290.889
290.887
290.885
290.884
290.882
290.881
290.881
290.879
2149.26
2107.58
2064.25
2020.57
2051.04
2077.66
2090.95
2094.81
2092.01
2098.98
2110.42
2108.27
2097.18
2075.58
2041.73
1993.52
1929.23
1847.25
1746.65
1627.27
1489.95
1336.67
1170.46
996.663
821.982
657.05
511.65
393.561
312.381
291.55
290.925
290.896
290.89
290.888
290.886
290.884
290.883
290.882
290.881
290.88
2110.56
2069.77
2027.52
1985.08
2015.07
2041.55
2055.5
2060.46
2059.03
2066.78
2078.71
2077.75
2068.45
2049.05
2017.84
1973
1912.64
1835.2
1739.56
1625.4
1493.36
1345.14
1183.45
1013.23
840.866
676.076
529.094
408.152
320.801
292.106
290.939
290.897
290.891
290.888
290.886
290.885
290.883
290.882
290.882
290.88
2072.59
2032.73
1991.63
1950.52
1979.9
2006.13
2020.62
2026.61
2026.51
2035.06
2047.5
2047.63
2039.85
2022.51
1993.84
1952.09
1895.44
1822.28
1731.42
1622.33
1495.46
1352.27
1195.16
1028.64
858.892
694.638
546.446
422.942
330.453
293.114
290.961
290.9
290.892
290.889
290.887
290.885
290.884
290.882
290.882
290.88
2035.4
1996.56
1956.69
1916.97
1945.64
1971.48
1986.36
1993.26
1994.42
2003.75
2016.74
2017.94
2011.54
1996.04
1969.76
1930.91
1877.75
1808.65
1722.34
1618.17
1496.35
1358.13
1205.62
1042.92
875.993
712.654
563.615
437.804
341.007
294.799
290.995
290.902
290.892
290.889
290.887
290.886
290.884
290.883
290.883
290.88
1999.09
1961.35
1922.79
1884.5
1912.36
1937.7
1952.82
1960.47
1962.76
1972.83
1986.34
1988.61
1983.56
1969.78
1945.69
1909.56
1859.68
1794.41
1712.44
1613
1496.12
1362.79
1214.88
1056.09
892.136
730.059
580.519
452.623
352.224
297.378
291.049
290.906
290.893
290.89
290.888
290.886
290.884
290.883
290.883
290.881
1963.74
1927.19
1889.99
1853.16
1880.15
1904.87
1920.07
1928.31
1931.57
1942.28
1956.29
1959.59
1955.87
1943.74
1921.7
1888.12
1841.31
1779.67
1701.84
1606.94
1494.84
1366.32
1222.99
1068.17
907.309
746.804
597.101
467.369
363.908
301.067
291.14
290.91
290.894
290.89
290.888
290.886
290.885
290.884
290.883
290.881
1929.46
1894.16
1858.36
1822.96
1849.05
1873.08
1888.21
1896.87
1900.93
1912.15
1926.58
1930.86
1928.42
1917.9
1897.84
1866.65
1822.74
1764.52
1690.62
1600.08
1492.61
1368.79
1229.98
1079.16
921.496
762.858
613.315
482.034
375.906
306.038
291.302
290.917
290.895
290.891
290.889
290.887
290.885
290.884
290.884
290.882
1896.3
1862.29
1827.87
1793.87
1819.07
1842.36
1857.31
1866.23
1870.93
1882.52
1897.25
1902.41
1901.19
1892.23
1874.07
1845.19
1804.02
1749.04
1678.87
1592.49
1489.49
1370.27
1235.92
1089.12
934.713
778.203
629.121
496.622
388.12
312.294
291.601
290.926
290.896
290.891
290.889
290.887
290.886
290.885
290.884
290.882
1864.33
1831.61
1798.53
1765.85
1790.19
1812.74
1827.44
1836.49
1841.65
1853.47
1868.38
1874.29
1874.19
1866.71
1850.4
1823.74
1785.2
1733.29
1666.66
1584.27
1485.58
1370.81
1240.86
1098.07
946.986
792.819
644.473
511.094
400.487
319.699
292.144
290.94
290.898
290.892
290.889
290.888
290.886
290.885
290.885
290.883
1833.54
1802.07
1770.27
1738.83
1762.36
1784.18
1798.59
1807.69
1813.18
1825.1
1840.06
1846.58
1847.45
1841.34
1826.79
1802.27
1766.28
1717.32
1654.08
1575.48
1480.92
1370.48
1244.83
1106.04
958.342
806.685
659.334
525.384
412.931
328.008
293.074
290.96
290.9
290.892
290.89
290.888
290.887
290.886
290.885
290.883
1803.9
1773.63
1743.03
1712.73
1735.51
1756.66
1770.75
1779.84
1785.57
1797.48
1812.37
1819.35
1821.06
1816.18
1803.27
1780.8
1747.25
1701.14
1641.15
1566.18
1475.6
1369.35
1247.91
1113.08
968.806
819.797
673.669
539.43
425.352
336.991
294.552
290.991
290.902
290.893
290.89
290.889
290.887
290.886
290.886
290.884
1775.38
1746.23
1716.72
1687.46
1709.57
1730.09
1743.9
1752.93
1758.83
1770.67
1785.4
1792.7
1795.09
1791.3
1779.88
1759.34
1728.13
1684.77
1627.9
1556.44
1469.68
1367.48
1250.15
1119.23
978.41
832.161
687.456
553.18
437.671
346.468
296.734
291.039
290.905
290.894
290.891
290.889
290.888
290.886
290.886
290.884
1747.89
1719.77
1691.26
1662.94
1684.45
1704.41
1717.95
1726.94
1732.97
1744.68
1759.19
1766.7
1769.64
1766.76
1756.7
1737.94
1708.95
1668.21
1614.37
1546.28
1463.22
1364.93
1251.59
1124.55
987.184
843.783
700.68
566.598
449.862
356.276
299.783
291.115
290.909
290.895
290.891
290.89
290.888
290.887
290.886
290.884
1721.35
1694.17
1666.57
1639.12
1660.08
1679.54
1692.85
1701.79
1707.93
1719.5
1733.76
1741.42
1744.77
1742.67
1733.79
1716.66
1689.74
1651.51
1600.56
1535.74
1456.25
1361.75
1252.31
1129.07
995.164
854.675
713.329
579.662
461.919
366.29
303.822
291.244
290.915
290.896
290.892
290.89
290.889
290.887
290.887
290.885
1695.68
1669.35
1642.59
1615.95
1636.39
1655.39
1668.5
1677.43
1683.68
1695.12
1709.12
1716.85
1720.54
1719.1
1711.25
1695.58
1670.58
1634.7
1586.53
1524.86
1448.82
1358
1252.35
1132.84
1002.38
864.852
725.398
592.353
473.849
376.429
308.858
291.47
290.923
290.897
290.893
290.891
290.889
290.888
290.887
290.885
1670.79
1645.24
1619.26
1593.4
1613.35
1631.92
1644.86
1653.78
1660.16
1671.47
1685.22
1693.01
1696.98
1696.09
1689.14
1674.79
1651.53
1617.86
1572.32
1513.67
1440.97
1353.72
1251.76
1135.91
1008.87
874.33
736.888
604.657
485.634
386.643
314.803
291.862
290.934
290.899
290.893
290.891
290.89
290.888
290.888
290.886
1646.62
1621.8
1596.56
1571.46
1590.92
1609.08
1621.86
1630.79
1637.29
1648.5
1662.03
1669.87
1674.07
1673.66
1667.52
1654.34
1632.68
1601.05
1557.99
1502.22
1432.74
1348.95
1250.58
1138.31
1014.65
883.101
747.805
616.558
497.245
396.893
321.487
292.515
290.949
290.9
290.894
290.892
290.89
290.889
290.888
290.886
1623.12
1598.99
1574.48
1550.11
1569.08
1586.83
1599.46
1608.4
1615.02
1626.16
1639.49
1647.38
1651.8
1651.83
1646.4
1634.28
1614.08
1584.34
1543.61
1490.57
1424.18
1343.74
1248.86
1140.11
1019.78
891.196
758.191
628.044
508.644
407.126
328.741
293.539
290.973
290.903
290.895
290.892
290.891
290.89
290.889
290.887
1600.26
1576.8
1553
1529.36
1547.84
1565.18
1577.64
1586.57
1593.31
1604.38
1617.54
1625.49
1630.12
1630.56
1625.8
1614.64
1595.78
1567.79
1529.23
1478.78
1415.34
1338.13
1246.64
1141.32
1024.27
898.654
768.048
639.114
519.801
417.261
336.426
295.046
291.007
290.905
290.896
290.893
290.891
290.89
290.889
290.887
1578.02
1555.22
1532.12
1509.2
1527.19
1544.11
1556.38
1565.3
1572.13
1583.14
1596.14
1604.16
1608.99
1609.82
1605.68
1595.43
1577.8
1551.43
1514.91
1466.9
1406.27
1332.16
1243.96
1141.99
1028.18
905.507
777.369
649.766
530.693
427.271
344.417
297.144
291.058
290.909
290.897
290.894
290.892
290.891
290.89
290.888
1556.39
1534.25
1511.84
1489.62
1507.12
1523.62
1535.68
1544.56
1551.47
1562.4
1575.25
1583.34
1588.37
1589.58
1586.02
1576.62
1560.15
1535.3
1500.68
1454.98
1397.02
1325.88
1240.85
1142.16
1031.53
911.782
786.15
659.995
541.311
437.152
352.604
299.957
291.138
290.913
290.898
290.895
290.893
290.892
290.891
290.888
1535.38
1513.89
1492.15
1470.6
1487.63
1503.7
1515.55
1524.35
1531.31
1542.15
1554.85
1562.99
1568.22
1569.79
1566.79
1558.19
1542.82
1519.4
1486.57
1443.05
1387.63
1319.34
1237.37
1141.85
1034.35
917.494
794.392
669.802
551.646
446.908
360.909
303.539
291.267
290.919
290.899
290.896
290.894
290.892
290.891
290.889
1514.97
1494.11
1473.03
1452.12
1468.69
1484.35
1495.97
1504.68
1511.66
1522.38
1534.91
1543.1
1548.51
1550.41
1547.95
1540.12
1525.79
1503.71
1472.59
1431.13
1378.14
1312.55
1233.54
1141.1
1036.66
922.67
802.074
679.191
561.693
456.546
369.279
307.874
291.483
290.927
290.901
290.897
290.894
290.893
290.892
290.89
1495.15
1474.91
1454.45
1434.14
1450.29
1465.55
1476.94
1485.54
1492.51
1503.1
1515.45
1523.65
1529.22
1531.44
1529.48
1522.37
1509.03
1488.24
1458.74
1419.24
1368.55
1305.56
1229.38
1139.95
1038.51
927.336
809.234
688.205
571.449
466.053
377.683
312.886
291.838
290.938
290.903
290.898
290.895
290.894
290.893
290.891
1475.91
1456.26
1436.38
1416.65
1432.39
1447.27
1458.43
1466.92
1473.87
1484.31
1496.46
1504.65
1510.34
1512.85
1511.36
1504.94
1492.53
1472.97
1445
1407.37
1358.88
1298.38
1224.94
1138.41
1039.9
931.518
815.903
696.819
580.911
475.411
386.091
318.451
292.4
290.953
290.905
290.899
290.896
290.895
290.894
290.891
1457.22
1438.12
1418.8
1399.61
1414.96
1429.49
1440.44
1448.81
1455.72
1466
1477.94
1486.1
1491.89
1494.64
1493.58
1487.8
1476.28
1457.88
1431.38
1395.53
1349.14
1291.03
1220.23
1136.52
1040.88
935.24
822.104
705.022
590.072
484.602
394.465
324.453
293.246
290.974
290.907
290.9
290.897
290.896
290.894
290.892
1439.05
1420.48
1401.68
1383
1397.99
1412.18
1422.92
1431.19
1438.05
1448.17
1459.89
1468
1473.85
1476.82
1476.15
1470.97
1460.28
1442.97
1417.86
1383.72
1339.34
1283.52
1215.26
1134.29
1041.45
938.521
827.854
712.811
598.926
493.607
402.752
330.789
294.456
291.003
290.91
290.901
290.898
290.897
290.895
290.893
1421.37
1403.3
1384.99
1366.81
1381.44
1395.31
1405.86
1414.02
1420.84
1430.8
1442.3
1450.35
1456.25
1459.39
1459.07
1454.43
1444.51
1428.24
1404.46
1371.94
1329.48
1275.86
1210.05
1131.74
1041.64
941.38
833.165
720.187
607.467
502.412
410.934
337.365
296.107
291.046
290.913
290.902
290.899
290.898
290.896
290.894
1404.15
1386.55
1368.73
1351.01
1365.31
1378.86
1389.22
1397.28
1404.06
1413.87
1425.16
1433.13
1439.06
1442.36
1442.34
1438.2
1429
1413.71
1391.17
1360.2
1319.57
1268.05
1204.62
1128.89
1041.47
943.833
838.049
727.132
615.697
511.006
419.006
344.091
298.289
291.108
290.917
290.904
290.901
290.899
290.897
290.895
1387.38
1370.23
1352.86
1335.6
1349.56
1362.82
1373
1380.96
1387.69
1397.36
1408.44
1416.35
1422.29
1425.71
1425.97
1422.29
1413.76
1399.37
1378.01
1348.5
1309.62
1260.13
1198.98
1125.76
1040.95
945.899
842.522
733.666
623.639
519.387
426.971
350.901
301.046
291.204
290.922
290.905
290.902
290.9
290.898
290.896
1371.03
1354.31
1337.38
1320.57
1334.21
1347.17
1357.17
1365.03
1371.72
1381.25
1392.13
1399.97
1405.91
1409.46
1409.96
1406.69
1398.78
1385.24
1364.98
1336.86
1299.64
1252.08
1193.15
1122.36
1040.11
947.593
846.599
739.806
631.278
527.55
434.835
357.754
304.381
291.356
290.929
290.907
290.903
290.901
290.9
290.897
1355.09
1338.79
1322.29
1305.9
1319.22
1331.9
1341.71
1349.47
1356.12
1365.51
1376.21
1383.98
1389.93
1393.57
1394.31
1391.42
1384.07
1371.32
1352.11
1325.29
1289.65
1243.95
1187.14
1118.71
1038.95
948.928
850.294
745.566
638.604
535.491
442.593
364.627
308.251
291.594
290.937
290.909
290.904
290.902
290.901
290.898
1339.54
1323.64
1307.56
1291.58
1304.6
1316.99
1326.63
1334.28
1340.88
1350.13
1360.66
1368.35
1374.31
1378.05
1378.99
1376.46
1369.65
1357.64
1339.4
1313.81
1279.66
1235.73
1180.97
1114.83
1037.49
949.919
853.618
750.956
645.608
543.202
450.23
371.501
312.58
291.961
290.949
290.911
290.906
290.904
290.902
290.899