/*--------------------------------*- C++ -*----------------------------------*\
| =========                 |                                                 |
| \\      /  F ield         | OpenFOAM: The Open Source CFD Toolbox           |
|  \\    /   O peration     | Version:  1.6.x                                 |
|   \\  /    A nd           | Web:      www.OpenFOAM.org                      |
|    \\/     M anipulation  |                                                 |
\*---------------------------------------------------------------------------*/
FoamFile
{
    version     2.0;
    format      ascii;
    class       volVectorField;
    location    "2";
    object      U;
}
// * * * * * * * * * * * * * * * * * * * * * * * * * * * * * * * * * * * * * //

dimensions      [0 1 -1 0 0 0 0];

internalField   nonuniform List<vector> 
4608
(
(44.7667 -0.327877 1.44141e-12)
(43.7837 -0.0139225 1.04432e-12)
(53.3906 -0.557525 8.96394e-12)
(46.5848 1.38101 2.79166e-12)
(43.7988 -0.0107911 6.62066e-14)
(52.4991 -0.043089 1.79637e-11)
(57.2218 -0.348697 2.79218e-11)
(54.9645 -0.243441 1.66322e-11)
(47.6397 1.02464 5.37487e-12)
(36.8011 2.9982 3.86269e-12)
(43.8379 -0.017226 6.3401e-13)
(52.5189 -0.0295584 1.70244e-11)
(56.3192 -0.051905 2.67649e-11)
(58.3107 -0.125745 -3.1412e-12)
(58.8504 0.101252 1.31412e-11)
(55.3489 -0.292824 9.62209e-12)
(48.1724 0.921827 -4.90809e-12)
(42.8969 1.82177 5.69617e-12)
(24.1992 2.56688 1.25218e-13)
(43.9252 -0.0207845 6.72227e-12)
(52.4482 -0.0359724 1.87852e-11)
(56.0485 -0.0380509 2.43535e-11)
(57.1812 -0.0266305 -3.47614e-12)
(59.8255 -0.0368621 3.52746e-12)
(59.1458 0.168116 1.14178e-11)
(55.2088 -0.155132 6.33597e-12)
(48.734 0.969631 4.11085e-12)
(43.9261 1.58565 9.9664e-12)
(32.2822 2.009 4.65748e-12)
(8.38053 -1.81441 2.03275e-11)
(15.0057 0.143413 -5.12774e-12)
(44.0317 -0.0251903 5.08598e-12)
(52.4128 -0.0398845 2.05964e-11)
(55.8071 -0.0418618 1.43394e-11)
(56.8939 -0.0175858 2.19868e-11)
(60.4551 -0.0845931 -2.54901e-11)
(58.9697 0.166952 7.58578e-13)
(55.1099 0.0160508 5.22207e-12)
(49.2683 0.969514 8.30147e-12)
(44.6326 1.61411 9.13626e-13)
(35.8764 2.24717 2.14869e-11)
(19.4776 0.668544 -2.27835e-11)
(13.8836 -1.21004 2.18423e-12)
(10.9462 0.0737295 9.36595e-11)
(11.7402 0.322941 -5.24934e-11)
(44.1625 -0.029386 4.76178e-12)
(52.3595 -0.0439151 2.22436e-11)
(55.5686 -0.0449685 1.07198e-11)
(56.552 -0.018753 1.91884e-11)
(60.3033 -0.0825339 -2.57215e-11)
(58.8148 0.165517 -3.39357e-12)
(55.055 0.127264 4.44307e-12)
(49.7221 0.970074 6.4795e-12)
(45.3936 1.57427 1.52215e-11)
(37.8468 2.41225 1.11338e-11)
(23.0756 1.15159 -3.54806e-11)
(12.4594 0.190566 -1.95499e-11)
(12.6305 -0.624717 -1.96634e-11)
(14.5596 0.0328725 1.0433e-11)
(10.165 -0.0141229 9.76272e-11)
(6.13518 0.42676 -2.7002e-11)
(44.3181 -0.0339087 3.71629e-12)
(52.2981 -0.0481352 2.25756e-11)
(55.3121 -0.0477018 -2.89999e-12)
(56.2324 -0.0196788 1.89283e-11)
(60.1784 -0.061613 -1.26825e-11)
(58.6751 0.141195 -5.36802e-12)
(55.0094 0.202524 5.50052e-12)
(50.1062 0.992992 1.68965e-11)
(46.0568 1.54715 8.6051e-12)
(39.2009 2.3262 2.42266e-11)
(25.8625 1.52992 -2.50191e-11)
(14.1659 0.200562 -1.57738e-11)
(6.75955 0.155327 -2.2442e-11)
(7.21635 -0.154524 -2.83002e-11)
(13.4764 -0.0182422 -1.94708e-11)
(14.3059 -0.016081 2.3543e-12)
(10.2652 -0.00635598 5.6109e-11)
(3.29466 -0.0790184 -2.35762e-11)
(44.5018 -0.038849 2.6199e-12)
(52.2241 -0.0527795 1.82376e-11)
(55.0404 -0.0502853 -1.35263e-11)
(55.892 -0.0208105 -7.9765e-12)
(60.0673 -0.0410813 -3.91417e-11)
(58.523 0.117188 -6.65626e-12)
(54.9807 0.262932 -3.87645e-12)
(50.4255 1.02414 1.39014e-11)
(46.6011 1.54858 1.42503e-11)
(40.1582 2.24365 5.8144e-13)
(27.9481 1.65142 -1.07017e-11)
(16.4648 0.492668 -4.40828e-11)
(7.79458 -0.0754377 -1.24448e-11)
(4.5981 -0.0148397 -1.88629e-11)
(8.36152 -0.00244399 -8.79751e-11)
(13.2568 -0.000986336 -1.0119e-11)
(14.3559 -0.00145731 -4.60839e-12)
(10.2054 -0.00877946 9.5184e-11)
(1.8745 -0.172882 -9.68802e-12)
(44.7168 -0.0440466 1.25061e-12)
(52.1379 -0.0581393 2.14321e-11)
(54.7536 -0.0528329 -1.01804e-11)
(55.5397 -0.0218321 -1.12194e-11)
(59.9423 -0.0234413 -3.46117e-11)
(58.3745 0.108171 -6.95462e-12)
(54.9681 0.315902 -1.33693e-11)
(50.6842 1.06214 7.57376e-12)
(47.0413 1.56197 1.31179e-11)
(40.9015 2.20284 1.55471e-11)
(29.4995 1.67516 -6.22733e-12)
(18.6835 0.723726 -3.54757e-11)
(9.4803 0.0526155 -4.38779e-11)
(5.36843 -0.121836 -1.11354e-11)
(3.15138 -0.0870218 -1.32704e-11)
(8.06371 -0.00433547 -4.59756e-11)
(13.3234 0.00419571 -7.19708e-12)
(14.3606 -0.0052083 -2.25635e-12)
(10.1716 -0.00928529 1.13753e-10)
(1.12204 -0.0211888 -1.92275e-12)
(44.9662 -0.0491155 2.31149e-13)
(52.0392 -0.064048 2.16478e-11)
(54.4523 -0.0556788 2.84932e-12)
(55.1723 -0.0227919 -4.80553e-11)
(59.8101 -0.00682747 -2.68342e-11)
(58.2367 0.108957 -1.08265e-11)
(54.9656 0.362967 -2.17662e-11)
(50.8924 1.1083 2.10741e-12)
(47.3981 1.5859 5.18879e-12)
(41.5101 2.18276 3.00414e-12)
(30.7168 1.68755 -1.49906e-11)
(20.6332 0.891012 -2.18387e-11)
(11.5123 0.249892 -3.56309e-11)
(6.64116 -0.0442581 -1.62298e-11)
(3.88945 -0.140897 -9.48581e-12)
(1.84196 -0.072309 -6.11992e-12)
(8.12701 0.00167158 -2.57927e-11)
(13.3154 0.0050621 -6.98576e-12)
(14.3792 -0.00574052 3.45274e-11)
(10.127 -0.0100582 5.68398e-11)
(0.93185 -0.0207193 6.23943e-14)
(45.2525 -0.0539077 -3.40506e-13)
(51.928 -0.0703151 1.52178e-11)
(54.1247 -0.0588133 -3.4126e-13)
(54.7912 -0.0236844 -1.8812e-11)
(59.6761 0.00618716 -1.98298e-11)
(58.1066 0.115951 6.41427e-13)
(54.9704 0.407483 -1.89728e-11)
(51.061 1.16011 -5.29506e-12)
(47.6922 1.61854 3.70758e-13)
(42.0227 2.17691 -1.54624e-11)
(31.7338 1.69071 -1.30069e-11)
(22.2176 1.00683 -1.72362e-11)
(13.4825 0.392666 -2.56203e-11)
(8.32394 0.0858246 -2.38888e-11)
(4.90017 -0.100883 -1.07785e-11)
(2.42654 -0.128915 -5.16923e-12)
(1.1515 -0.0523724 -1.17251e-12)
(8.08521 0.000493881 -4.5764e-11)
(13.328 0.00539909 -7.68308e-12)
(14.3986 -0.00690587 2.02904e-11)
(10.077 -0.0109743 9.03335e-11)
(0.901765 0.00846188 2.4755e-12)
(45.5757 -0.0576969 -5.79599e-13)
(51.8036 -0.0773348 1.71377e-11)
(53.7722 -0.0614722 1.26977e-12)
(54.3973 -0.0245782 1.95729e-12)
(59.5406 0.0164949 -1.33903e-11)
(57.9858 0.12817 3.15342e-12)
(54.9807 0.453273 -1.8905e-11)
(51.1928 1.21589 6.40271e-12)
(47.9376 1.65486 -5.40639e-12)
(42.4654 2.17877 -1.16554e-11)
(32.6121 1.69866 -3.06599e-12)
(23.5331 1.07581 -1.78392e-11)
(15.1993 0.491638 -2.01105e-11)
(10.0613 0.168405 -2.2131e-11)
(6.32588 -0.018386 -1.64725e-11)
(3.13659 -0.122845 -4.59612e-12)
(1.45779 -0.0957549 1.4398e-12)
(0.929756 -0.0152469 5.36063e-12)
(8.06813 0.000928438 -5.80797e-11)
(13.3389 0.00613161 -4.6474e-11)
(14.4214 -0.00830511 6.34333e-13)
(10.0198 -0.0118326 9.84185e-11)
(0.902341 -0.00567991 1.98544e-11)
(45.9327 -0.0591856 6.98604e-12)
(51.6636 -0.0844759 1.54726e-11)
(53.3982 -0.0631578 1.03879e-11)
(53.9923 -0.0256679 -1.72455e-12)
(59.4048 0.0248805 -8.37271e-12)
(57.8754 0.144125 1.11212e-12)
(54.9925 0.500997 -2.77117e-12)
(51.2882 1.27187 8.88239e-12)
(48.1364 1.69205 2.82235e-12)
(42.8474 2.1826 -1.12552e-11)
(33.3805 1.70829 -1.69446e-11)
(24.6707 1.12533 -9.50591e-12)
(16.6768 0.588166 -2.18803e-11)
(11.6802 0.233381 -2.03246e-11)
(7.87887 0.0387001 -1.92155e-11)
(4.19379 -0.0888796 -9.65461e-12)
(1.8763 -0.114211 1.23924e-12)
(1.00521 -0.0537192 1.29593e-11)
(0.912841 -0.0187908 2.56626e-11)
(8.04269 0.00125401 -2.75283e-11)
(13.354 0.00679705 -8.22324e-12)
(14.4476 -0.00962565 4.82641e-11)
(9.95688 -0.0122869 3.68987e-11)
(0.899002 0.00293059 3.55156e-12)
(46.3206 -0.0579072 5.73252e-12)
(51.503 -0.0913613 7.38293e-12)
(52.9953 -0.0626049 5.367e-12)
(53.5778 -0.027327 2.9393e-12)
(59.2706 0.0323567 -6.25398e-12)
(57.7741 0.163156 3.03791e-12)
(55.0004 0.550827 -1.82628e-13)
(51.3477 1.32894 4.79455e-12)
(48.2914 1.72775 1.27517e-11)
(43.1703 2.18655 6.78489e-12)
(34.0568 1.71857 -1.21697e-11)
(25.675 1.16468 5.83674e-12)
(17.9962 0.675932 -2.40824e-12)
(13.1444 0.327781 -2.40296e-11)
(9.3883 0.0848601 -2.04098e-11)
(5.4498 -0.0529416 -1.61639e-11)
(2.58471 -0.114414 -6.67706e-12)
(1.1352 -0.0786276 2.39953e-12)
(0.914534 -0.0352907 2.47588e-11)
(0.899025 -0.0086392 1.05462e-11)
(8.0161 0.0017693 -2.82579e-11)
(13.3735 0.00777354 -1.76536e-11)
(14.4772 -0.0102914 5.96873e-11)
(9.89074 -0.0117864 5.29276e-11)
(0.899604 -0.00462199 7.88068e-13)
(46.742 -0.0526349 6.47325e-12)
(51.3171 -0.101729 2.86535e-12)
(52.577 -0.0579406 -8.4549e-12)
(53.1541 -0.0299731 1.34006e-11)
(59.1388 0.0396058 1.20797e-12)
(57.6799 0.184645 -1.25087e-11)
(54.9978 0.603924 -2.62557e-12)
(51.3636 1.388 2.23601e-11)
(48.4073 1.76468 1.07151e-11)
(43.4427 2.19144 2.41156e-11)
(34.6536 1.7324 4.28393e-12)
(26.5783 1.19937 8.32426e-12)
(19.1807 0.756433 4.23582e-12)
(14.4797 0.41246 2.99167e-14)
(10.8059 0.169867 -2.55733e-11)
(6.74917 -0.0193519 -2.12592e-11)
(3.51972 -0.113031 -1.64634e-11)
(1.4853 -0.102864 -1.3116e-11)
(0.920746 -0.0479165 -2.51448e-11)
(0.895981 -0.0254175 -2.15414e-11)
(0.900403 -0.0134645 3.36615e-12)
(7.9861 0.00295753 9.13464e-12)
(13.3993 0.00902781 -2.95302e-11)
(14.5098 -0.0100224 1.18717e-10)
(9.82791 -0.00996063 4.60852e-11)
(0.898629 -0.000581143 2.62979e-14)
(47.2056 -0.0381586 6.37853e-12)
(51.1093 -0.118855 7.6059e-12)
(52.1747 -0.0508722 -2.34482e-11)
(52.7198 -0.0335787 4.29451e-11)
(59.0098 0.0469096 -2.81302e-11)
(57.5896 0.208788 -1.46648e-11)
(54.9743 0.660552 2.43857e-12)
(51.3298 1.44642 2.37716e-12)
(48.4754 1.80381 2.12759e-11)
(43.673 2.19772 1.95175e-11)
(35.1868 1.74841 2.90259e-11)
(27.3917 1.23892 5.44501e-12)
(20.2691 0.820904 -1.16134e-11)
(15.7152 0.494291 1.66333e-12)
(12.1195 0.246035 2.96451e-12)
(8.03622 0.0491871 -2.76709e-11)
(4.56781 -0.093292 -2.4579e-11)
(2.09161 -0.125951 -2.37172e-11)
(0.988088 -0.0668561 -4.02136e-11)
(0.89073 -0.0345462 -1.62175e-11)
(0.897042 -0.024782 2.49995e-12)
(0.897797 -0.00884402 2.88236e-12)
(7.95185 0.00556948 -3.47677e-11)
(13.4357 0.00990415 -2.47843e-12)
(14.5403 -0.00884004 7.51193e-11)
(9.77816 -0.00691071 5.10337e-11)
(0.898649 -0.00360398 -2.98989e-13)
(47.7162 -0.00592243 5.41937e-12)
(50.8902 -0.143431 1.74345e-11)
(51.7563 -0.0390799 -1.30951e-11)
(52.2749 -0.0375205 9.02139e-12)
(58.8834 0.0546605 -2.65739e-11)
(57.4971 0.235708 -1.69792e-11)
(54.9201 0.718899 -2.37884e-11)
(51.2561 1.50914 -1.90333e-12)
(48.4893 1.84393 1.89951e-11)
(43.8494 2.20401 2.70516e-11)
(35.6713 1.76134 6.29996e-12)
(28.1281 1.27416 1.07299e-11)
(21.2567 0.886295 1.05999e-12)
(16.8733 0.56891 -1.89295e-11)
(13.3633 0.32317 -1.0028e-12)
(9.26616 0.110452 -4.82206e-12)
(5.67102 -0.040866 -3.05822e-11)
(2.87627 -0.124696 -3.243e-11)
(1.19725 -0.0965158 -3.89766e-11)
(0.892811 -0.042526 -4.90862e-11)
(0.891088 -0.0320009 4.21977e-12)
(0.895104 -0.020419 8.33807e-12)
(0.897723 -0.0101676 6.58438e-12)
(7.9055 0.00906031 2.53106e-11)
(13.4816 0.00872489 -3.58937e-11)
(14.5623 -0.00501254 4.62683e-11)
(9.7513 -0.00287067 6.04336e-11)
(0.898283 -0.00224488 -2.93873e-13)
(48.2389 0.0478681 2.46412e-13)
(50.6719 -0.179444 1.76693e-11)
(51.3443 -0.0211322 -1.55901e-11)
(51.8243 -0.0432768 -1.02322e-11)
(58.757 0.0631443 -2.06832e-11)
(57.3961 0.264963 -5.39599e-12)
(54.8345 0.779998 -2.25046e-11)
(51.1423 1.58168 -6.24373e-12)
(48.464 1.89599 1.32809e-11)
(43.9653 2.21252 4.25135e-11)
(36.0927 1.77136 2.27576e-11)
(28.8155 1.30579 3.73232e-12)
(22.1569 0.938946 1.99457e-12)
(17.9286 0.638153 -1.02921e-11)
(14.5459 0.398189 -2.71459e-11)
(10.4442 0.176218 -1.09983e-11)
(6.77092 0.00794584 -3.01992e-11)
(3.75795 -0.101511 -3.59438e-11)
(1.65513 -0.125021 -4.64357e-11)
(0.919442 -0.0620166 -3.60885e-11)
(0.88775 -0.0376278 5.18105e-12)
(0.890498 -0.0281658 1.27749e-11)
(0.89511 -0.018973 1.8526e-11)
(0.896794 -0.00846373 1.95635e-11)
(7.84739 0.0123323 1.78605e-11)
(13.5322 0.00421381 -3.57242e-11)
(14.5679 0.00115788 3.36651e-11)
(9.74834 0.00250288 7.60666e-11)
(0.898245 -0.00297151 1.92271e-12)
(48.6968 0.136427 6.5063e-13)
(50.4061 -0.223659 1.1519e-11)
(50.9461 0.00442681 -1.32288e-11)
(51.3843 -0.0516513 -3.27388e-11)
(58.6276 0.0724024 -1.42694e-11)
(57.2849 0.2973 -4.1544e-12)
(54.7123 0.843733 -3.06387e-11)
(51.0293 1.68316 -9.45232e-12)
(48.399 1.96775 2.12272e-12)
(44.042 2.24352 3.42256e-11)
(36.4432 1.7806 3.88293e-11)
(29.4258 1.336 1.79717e-11)
(23.0105 0.99043 -5.93816e-12)
(18.9029 0.707037 -4.53354e-12)
(15.6322 0.460117 -1.58574e-11)
(11.5776 0.238149 -2.45988e-11)
(7.84547 0.0611529 -2.72855e-11)
(4.68834 -0.0668662 -5.38907e-11)
(2.30373 -0.122495 -4.45977e-11)
(1.02346 -0.0871231 -6.24296e-11)
(0.886519 -0.0458813 1.38476e-11)
(0.887172 -0.0337327 1.78158e-11)
(0.890876 -0.0256576 2.23078e-11)
(0.894642 -0.0167021 3.90379e-11)
(0.896495 -0.00836225 9.13814e-12)
(7.78767 0.015266 -2.23244e-11)
(13.5821 -0.00453454 2.79112e-11)
(14.5414 0.00916298 3.61259e-11)
(9.76514 0.00899955 8.60877e-11)
(0.898182 -0.00255748 1.06375e-11)
(49.056 0.26906 1.86029e-13)
(49.9787 -0.278237 4.30351e-12)
(50.5388 0.0386122 -6.15553e-12)
(50.9658 -0.0607742 -6.90157e-12)
(58.4937 0.0827577 -1.00016e-11)
(57.158 0.333634 -1.76639e-12)
(54.5706 0.911755 -2.63611e-11)
(50.7754 1.84861 -1.02739e-11)
(48.3399 2.08969 -4.34078e-12)
(44.0766 2.29933 6.07561e-12)
(36.7468 1.80348 3.81768e-11)
(29.9525 1.3574 2.64925e-11)
(23.7644 1.03302 9.97078e-12)
(19.829 0.769464 -1.66271e-11)
(16.6529 0.540552 -9.09379e-12)
(12.6411 0.280959 -1.65761e-11)
(8.89324 0.111617 -2.75735e-11)
(5.62506 -0.0270937 -4.30336e-11)
(3.04232 -0.107596 -6.4001e-11)
(1.31486 -0.109467 -4.96658e-11)
(0.890662 -0.0591995 -1.29124e-11)
(0.88514 -0.0411435 2.30492e-11)
(0.887475 -0.0310894 3.07043e-11)
(0.89108 -0.023044 3.11733e-11)
(0.894398 -0.0151853 2.46161e-11)
(0.896189 -0.00771182 1.19824e-11)
(7.73473 0.0180046 -2.30775e-11)
(13.6218 -0.0220722 2.06658e-11)
(14.4517 0.0148324 3.39887e-11)
(9.8176 0.019902 1.14757e-11)
(0.89819 -0.00251894 8.5449e-13)
(49.6675 -0.309381 5.07895e-12)
(50.091 0.0636571 -9.63187e-12)
(50.547 -0.0667886 -1.69168e-11)
(58.3523 0.0945015 -6.34598e-12)
(57.0194 0.374797 -1.83216e-11)
(54.3379 1.01843 -2.26577e-11)
(50.7195 2.3406 -7.61576e-12)
(48.1322 2.26403 -1.0168e-12)
(44.1162 2.41836 -3.13802e-13)
(37.001 1.83414 1.43878e-11)
(30.4251 1.38836 2.7142e-11)
(24.4285 1.06063 2.2249e-11)
(20.6536 0.806021 8.87817e-13)
(17.619 0.607277 -2.57556e-11)
(13.6747 0.362501 -1.5198e-11)
(9.88904 0.147697 -3.36311e-11)
(6.55784 0.0139758 -3.18015e-11)
(3.81468 -0.0839905 -4.80852e-11)
(1.81514 -0.119243 -4.40522e-11)
(0.934314 -0.0755496 -1.31766e-11)
(0.881746 -0.0490659 2.62779e-11)
(0.88497 -0.037357 3.5209e-11)
(0.887833 -0.0283242 4.86601e-11)
(0.891235 -0.0208004 2.49901e-11)
(0.894149 -0.0137602 3.337e-11)
(0.896091 -0.00728599 1.33819e-11)
(7.69183 0.0199062 -4.98674e-11)
(13.6276 -0.0567939 2.23934e-11)
(14.2736 0.0173869 3.16709e-11)
(9.95772 0.0410673 4.89594e-11)
(0.898226 -0.00236494 -2.05585e-12)
(49.7113 0.0251691 -8.24733e-12)
(50.0946 -0.0689587 -2.32677e-11)
(58.2036 0.108501 -5.92266e-12)
(56.8304 0.431969 -2.07099e-11)
(54.1346 1.05791 -1.9871e-11)
(51.3469 2.9152 -3.14682e-11)
(48.2126 3.03391 -1.51167e-12)
(44.0149 2.54886 1.60151e-11)
(37.2535 1.90244 9.39376e-12)
(30.8415 1.41907 2.31455e-11)
(25.036 1.09839 1.57017e-11)
(21.3911 0.846774 1.13271e-11)
(18.4933 0.63762 -3.66618e-12)
(14.6552 0.426779 -3.06536e-11)
(10.8696 0.217633 -2.32852e-11)
(7.4597 0.0448555 -3.13e-11)
(4.60815 -0.0539281 -3.1754e-11)
(2.41429 -0.110804 -3.38768e-11)
(1.08536 -0.0948419 -1.03717e-11)
(0.879684 -0.0552201 3.19186e-11)
(0.881763 -0.0440336 3.61779e-11)
(0.88513 -0.0340133 4.41114e-11)
(0.888142 -0.0257418 3.37287e-11)
(0.891293 -0.018797 1.62471e-11)
(0.894027 -0.0125799 2.80045e-11)
(0.896087 -0.00683073 -2.6857e-12)
(7.68489 0.012162 -7.2088e-11)
(13.5828 -0.117249 -4.39579e-12)
(13.9991 0.0240104 3.58405e-11)
(10.1917 0.070583 1.39352e-10)
(0.898265 -0.00223393 -1.46398e-11)
(49.7119 -0.0389944 1.52577e-12)
(58.0135 0.126003 -5.8565e-12)
(56.6365 0.440977 -3.35847e-11)
(54.3592 1.155 -2.75861e-11)
(51.6442 2.63757 -2.42419e-11)
(48.8849 3.58774 -1.75489e-11)
(44.2459 3.40326 6.50141e-12)
(37.4015 1.96518 9.50895e-12)
(31.2517 1.47729 1.74906e-11)
(25.582 1.13174 2.65067e-11)
(22.0694 0.893166 2.92544e-12)
(19.2806 0.692114 3.27003e-12)
(15.5651 0.450563 -1.38156e-11)
(11.818 0.275838 -4.23375e-11)
(8.35748 0.0981401 -2.80101e-11)
(5.39288 -0.0301627 -3.04635e-11)
(3.05361 -0.0939034 -4.38736e-11)
(1.41134 -0.111167 -8.32423e-12)
(0.891608 -0.0666745 2.45775e-11)
(0.878201 -0.0494131 4.14326e-11)
(0.88202 -0.0398904 4.07236e-11)
(0.88537 -0.0308679 3.79032e-11)
(0.888373 -0.0233742 3.56678e-11)
(0.891349 -0.017047 2.09992e-11)
(0.893998 -0.0115326 -4.62578e-13)
(0.896134 -0.00638646 -1.70939e-11)
(7.79042 -0.0127811 -3.98965e-11)
(13.4824 -0.19199 -3.27461e-12)
(13.498 0.0502872 3.4891e-11)
(10.3835 0.0933391 4.50038e-11)
(0.898316 -0.00223887 -6.43197e-13)
(57.828 0.131661 -8.00122e-12)
(56.6321 0.469547 -4.90104e-11)
(54.5912 1.35012 -1.2153e-11)
(51.1158 2.34097 -1.39965e-11)
(49.0739 2.80043 -1.84708e-11)
(44.9166 3.658 -2.46812e-12)
(37.7865 2.45636 7.9602e-12)
(31.5809 1.52691 2.55434e-12)
(26.1179 1.18732 1.64655e-11)
(22.6851 0.93174 1.72484e-11)
(20.0052 0.744904 -8.67708e-12)
(16.3996 0.505713 -9.37364e-12)
(12.7032 0.298616 -3.44283e-11)
(9.24246 0.147252 -4.33078e-11)
(6.18504 0.00938788 -3.28699e-11)
(3.70541 -0.0790621 -3.22673e-11)
(1.87273 -0.110034 -3.07787e-11)
(0.954018 -0.0812266 1.55555e-11)
(0.874981 -0.0542945 8.90572e-12)
(0.878605 -0.0445774 3.65297e-11)
(0.882345 -0.0360986 3.8912e-11)
(0.885605 -0.0279791 3.67027e-11)
(0.888568 -0.0212386 3.24977e-11)
(0.891431 -0.015492 4.52311e-12)
(0.894042 -0.0105908 -1.97422e-11)
(0.896201 -0.00613889 -1.9617e-11)
(8.13443 -0.0566846 -9.71691e-12)
(13.2853 -0.263278 -1.77107e-11)
(12.6282 0.0779634 2.88604e-11)
(10.5399 0.109759 -6.47698e-12)
(0.898337 -0.00197413 -3.08785e-14)
(57.7516 0.147185 -2.84896e-12)
(56.6484 0.572544 -4.64191e-11)
(54.422 1.48942 -1.6035e-11)
(50.3813 2.29539 -3.30603e-11)
(48.5119 2.28684 -1.21049e-11)
(45.0605 2.69599 -6.61852e-12)
(38.5012 2.62523 1.4497e-11)
(32.0451 1.84063 1.22643e-11)
(26.5851 1.23292 9.2615e-12)
(23.2874 0.989109 7.92106e-12)
(20.6675 0.788241 1.39622e-11)
(17.1785 0.558225 -1.21291e-11)
(13.535 0.338761 -2.36334e-11)
(10.0783 0.171628 -5.15087e-11)
(6.98039 0.0480415 -3.68629e-11)
(4.37568 -0.0514032 -3.96185e-11)
(2.38746 -0.102981 -2.34283e-11)
(1.11842 -0.0953177 3.9337e-12)
(0.875192 -0.060093 1.34436e-11)
(0.875377 -0.0490307 6.16202e-11)
(0.879061 -0.040608 3.85676e-11)
(0.88267 -0.0326 3.80935e-11)
(0.885838 -0.0253794 2.91093e-11)
(0.888762 -0.019303 9.68155e-12)
(0.891552 -0.0140922 1.83483e-12)
(0.894115 -0.00989519 -3.69787e-11)
(0.896262 -0.00549943 -7.84919e-13)
(8.75081 -0.111517 -2.35697e-11)
(12.511 -0.339273 -3.57506e-11)
(11.6451 0.090997 -4.08343e-12)
(0.898416 -0.00244219 -7.13822e-14)
(57.6783 0.179255 -5.14382e-11)
(56.5015 0.628002 -5.68612e-11)
(53.992 1.66188 -2.92504e-11)
(50.0413 2.95219 -1.45076e-11)
(47.8225 2.18451 -2.19383e-11)
(44.6011 2.0636 -7.88341e-12)
(38.8505 1.99162 9.74228e-12)
(32.7718 1.97258 1.51134e-11)
(27.1199 1.46248 8.86468e-12)
(23.8271 1.03328 9.85881e-12)
(21.3146 0.847642 -8.94313e-13)
(17.9008 0.609451 1.35562e-12)
(14.3325 0.384039 -1.81932e-11)
(10.8719 0.204952 -3.48939e-11)
(7.74583 0.0701168 -4.93318e-11)
(5.06038 -0.0230914 -3.37374e-11)
(2.92678 -0.0874984 -3.21907e-11)
(1.42382 -0.107749 2.73801e-13)
(0.892471 -0.0700504 2.16697e-11)
(0.872456 -0.0532594 5.99692e-11)
(0.875913 -0.0446238 3.58588e-11)
(0.879525 -0.0367753 3.83128e-11)
(0.882992 -0.0294652 3.83816e-11)
(0.886082 -0.0230332 1.10285e-11)
(0.888973 -0.017528 -6.28232e-13)
(0.891697 -0.0129914 -2.74253e-11)
(0.894209 -0.00879389 -1.89553e-12)
(0.896372 -0.005927 1.28435e-11)
(9.43286 -0.161651 -2.72416e-11)
(11.6036 -0.408757 1.86988e-12)
(0.898392 -0.00169776 7.40668e-12)
(57.5295 0.195761 -1.30231e-11)
(56.2643 0.722428 -4.78207e-11)
(53.652 2.15636 1.28905e-11)
(50.1468 3.38522 -1.48198e-11)
(47.5239 2.72626 -1.91543e-11)
(44.0529 1.91686 -1.15492e-11)
(38.7355 1.6541 -6.01189e-12)
(33.2874 1.63445 1.18615e-11)
(27.8574 1.59269 1.37511e-11)
(24.405 1.22432 7.42536e-12)
(21.903 0.891281 9.46767e-12)
(18.6071 0.674269 -6.57857e-12)
(15.0863 0.438458 -7.4444e-12)
(11.6399 0.244178 -2.30332e-11)
(8.48154 0.098699 -3.72411e-11)
(5.73521 -0.0045725 -3.49621e-11)
(3.4896 -0.0700021 -2.41686e-11)
(1.81838 -0.104454 -3.85916e-12)
(0.956861 -0.0830795 2.66425e-11)
(0.870126 -0.056937 5.42092e-11)
(0.873024 -0.0481716 3.26824e-11)
(0.87644 -0.0405487 2.08917e-11)
(0.879984 -0.033249 3.3557e-11)
(0.883318 -0.0266672 1.30537e-11)
(0.88635 -0.0208893 -4.13626e-12)
(0.889196 -0.0160864 -3.40148e-11)
(0.891829 -0.0114923 -2.06402e-12)
(0.894314 -0.00906442 2.58166e-11)
(0.896324 -0.00450974 1.02381e-11)
(10.093 -0.147949 -2.25676e-11)
(0.898501 -0.00298143 3.55195e-13)
(57.3161 0.223741 -7.16007e-12)
(56.0445 0.820887 -6.07292e-11)
(53.791 2.77995 -2.58785e-11)
(49.8958 2.66343 -9.18589e-12)
(47.6523 2.99283 -1.15809e-11)
(43.8152 2.27603 -2.42087e-11)
(38.4864 1.59477 -1.43574e-11)
(33.4342 1.4132 8.5322e-12)
(28.4795 1.383 1.05866e-11)
(25.1539 1.35032 4.36308e-12)
(22.5113 1.05855 6.04277e-12)
(19.2595 0.720723 5.25784e-12)
(15.8271 0.50651 -1.89076e-11)
(12.3774 0.292215 -1.36606e-11)
(9.19895 0.131754 -2.39949e-11)
(6.39507 0.0196478 -3.03679e-11)
(4.06009 -0.0560784 -2.22875e-11)
(2.2589 -0.0944026 -3.14683e-12)
(1.10263 -0.0934956 2.58438e-11)
(0.871004 -0.0622187 4.88011e-11)
(0.870303 -0.0517299 3.04974e-11)
(0.873544 -0.0439917 2.13512e-11)
(0.876976 -0.036722 2.84701e-11)
(0.880434 -0.0300816 1.29686e-11)
(0.883656 -0.0241412 -4.58053e-12)
(0.886628 -0.0191145 -2.56423e-11)
(0.889393 -0.0142372 -1.88193e-12)
(0.892006 -0.0115434 2.10257e-11)
(0.894299 -0.00684999 1.1191e-11)
(0.896603 -0.00628013 2.1577e-12)
(0.898425 -0.00130813 3.71892e-14)
(57.1315 0.245238 -9.78389e-12)
(56.0963 0.972764 -3.01489e-11)
(53.7085 2.57092 -6.18561e-12)
(48.9933 2.06416 1.76957e-11)
(47.4694 2.34589 -7.6168e-12)
(43.9663 2.40322 -4.99339e-12)
(38.4018 1.82773 -1.80416e-12)
(33.4289 1.35929 7.87636e-12)
(28.8006 1.21033 1.9514e-11)
(25.8227 1.19887 8.44049e-12)
(23.2696 1.18138 -2.3254e-12)
(19.9084 0.864754 1.04472e-12)
(16.52 0.54811 -1.16424e-11)
(13.1075 0.354378 -2.07277e-11)
(9.89635 0.170123 -1.74182e-11)
(7.04512 0.0454546 -3.27211e-11)
(4.62858 -0.0375162 -1.98394e-11)
(2.71627 -0.0856994 -8.06632e-12)
(1.36271 -0.101597 2.25839e-11)
(0.886269 -0.0708692 4.46505e-11)
(0.867709 -0.0554543 2.96928e-11)
(0.870823 -0.0471795 2.53365e-11)
(0.874085 -0.0399593 2.41656e-11)
(0.877522 -0.0332475 2.36093e-11)
(0.880878 -0.0272251 -3.20877e-12)
(0.883998 -0.0220273 -1.74866e-11)
(0.886895 -0.0169324 -1.45387e-12)
(0.889651 -0.0140346 2.8177e-11)
(0.892032 -0.00871429 -5.39454e-13)
(0.894644 -0.00908915 -7.03112e-12)
(0.89626 -0.00327855 3.09902e-13)
(0.89856 -0.00368542 7.37283e-13)
(57.087 0.282845 -2.81859e-12)
(56.1289 1.16747 -2.25188e-11)
(52.775 2.26963 1.83893e-12)
(48.2687 2.37791 1.0507e-11)
(46.71 1.84569 5.47298e-12)
(43.9157 1.94336 -2.97121e-12)
(38.5879 1.9606 -1.26705e-11)
(33.5015 1.50473 4.9199e-12)
(28.9706 1.16026 1.60405e-11)
(26.2207 1.06176 1.90386e-11)
(23.9666 1.06826 7.83861e-12)
(20.6835 0.987795 -3.96602e-12)
(17.2026 0.659268 -7.27266e-12)
(13.7993 0.387093 -2.51766e-11)
(10.5918 0.221664 -1.69513e-11)
(7.68425 0.0739585 -1.95444e-11)
(5.19667 -0.0178417 -2.72412e-11)
(3.18238 -0.0749584 -7.22635e-12)
(1.69284 -0.100801 3.39438e-12)
(0.939133 -0.0812453 3.63155e-11)
(0.865542 -0.0586205 2.97182e-11)
(0.868226 -0.0501759 2.94357e-11)
(0.871326 -0.0430097 3.19909e-11)
(0.874669 -0.0362185 2.0902e-11)
(0.878063 -0.0301127 2.57614e-13)
(0.881307 -0.0248051 -1.10016e-11)
(0.884336 -0.0195242 -7.9592e-13)
(0.887215 -0.0164762 2.18827e-11)
(0.889712 -0.0107605 -1.47141e-12)
(0.892385 -0.0112915 -7.97963e-12)
(0.894155 -0.00465104 -9.80177e-12)
(0.896853 -0.00704758 -1.08383e-11)
(0.898441 -0.000763979 1.24404e-14)
(57.0377 0.360183 -5.10382e-11)
(55.656 1.39176 -2.54262e-11)
(51.9799 2.88154 7.13507e-12)
(47.8731 2.3386 6.23415e-12)
(46.0729 2.06625 5.24112e-12)
(43.3802 1.58412 -7.86892e-12)
(38.6753 1.68899 1.73604e-12)
(33.7437 1.61444 -2.76853e-13)
(29.1768 1.25912 6.0095e-12)
(26.4733 1.02114 1.61181e-11)
(24.4114 0.95557 2.00817e-11)
(21.4126 0.912969 1.11583e-12)
(17.9966 0.788895 -6.2704e-12)
(14.4875 0.465221 -1.54919e-11)
(11.2608 0.252679 -2.76391e-11)
(8.32685 0.113839 -1.37169e-11)
(5.76316 0.00373366 -1.1443e-11)
(3.65946 -0.0615763 -9.04236e-12)
(2.05466 -0.0942085 9.46997e-12)
(1.05431 -0.0901166 5.50083e-11)
(0.86561 -0.0624494 3.23095e-11)
(0.865611 -0.0532447 3.33082e-11)
(0.868678 -0.0459184 3.54989e-11)
(0.8719 -0.039042 8.22787e-12)
(0.87527 -0.0328336 2.77094e-12)
(0.878581 -0.0274304 -8.7196e-12)
(0.881723 -0.0220114 1.05207e-12)
(0.88471 -0.0188306 1.68488e-11)
(0.887313 -0.0128465 -1.99214e-12)
(0.890103 -0.013459 -1.80654e-11)
(0.891945 -0.00560791 -1.22605e-11)
(0.8951 -0.0097734 -2.61121e-11)
(0.896136 -0.00176794 -1.15699e-13)
(0.898601 -0.00427975 -6.71322e-13)
(56.8079 0.457938 -4.5598e-11)
(55.1171 2.00789 1.31169e-11)
(51.5413 2.8938 7.08205e-12)
(47.1593 1.61831 2.84986e-11)
(45.7331 2.02561 6.98937e-12)
(42.8806 1.70111 -3.56965e-12)
(38.4193 1.42313 -3.47911e-12)
(33.9292 1.4451 -3.26829e-13)
(29.4869 1.34467 4.84014e-12)
(26.748 1.10169 7.38287e-12)
(24.7183 0.922194 1.54717e-11)
(21.9113 0.818002 1.50011e-11)
(18.7423 0.742107 -2.66535e-12)
(15.2729 0.59002 -8.90191e-12)
(11.9226 0.312035 -1.8379e-11)
(8.95575 0.142955 -1.70995e-11)
(6.33779 0.0341769 -8.04232e-12)
(4.14317 -0.0459096 -4.74416e-12)
(2.43396 -0.0851724 9.88813e-12)
(1.25308 -0.0977028 4.2257e-11)
(0.875625 -0.0693728 3.1051e-11)
(0.863126 -0.0563812 3.87395e-11)
(0.866106 -0.0486621 4.11042e-11)
(0.869213 -0.041757 -1.58721e-12)
(0.872525 -0.0354248 2.52536e-12)
(0.875857 -0.0299193 -6.87265e-12)
(0.879073 -0.024385 -1.13698e-11)
(0.882154 -0.0211021 1.23679e-11)
(0.88486 -0.0148823 7.18178e-12)
(0.887779 -0.0155132 -1.85708e-11)
(0.889735 -0.00680805 -2.26954e-11)
(0.892964 -0.0119717 -2.55548e-11)
(0.893837 -0.00207493 -4.88632e-13)
(0.897056 -0.00792678 7.05742e-12)
(0.898441 -7.12386e-07 -5.27195e-12)
(56.5025 0.609224 -2.5558e-11)
(54.9186 2.60337 1.00397e-11)
(50.6426 2.00561 1.52275e-11)
(46.1249 1.17037 -4.95877e-12)
(45.1392 1.49001 1.72436e-11)
(42.6253 1.66235 3.29089e-12)
(38.138 1.47149 -4.18253e-12)
(33.8717 1.2512 5.33668e-12)
(29.7567 1.23583 2.02106e-12)
(27.0991 1.17658 2.93601e-13)
(25.039 0.991857 7.93094e-12)
(22.2892 0.796868 1.16326e-11)
(19.2948 0.656167 2.47269e-12)
(16.009 0.562615 -4.87068e-12)
(12.6581 0.412269 -8.42656e-12)
(9.57729 0.188518 -1.49961e-11)
(6.9097 0.057956 -1.00331e-11)
(4.63808 -0.0236901 -1.42452e-12)
(2.82514 -0.0761155 8.52674e-12)
(1.51564 -0.0983207 2.9441e-11)
(0.910002 -0.0783956 2.90954e-11)
(0.861074 -0.0592454 1.57681e-11)
(0.86365 -0.0511577 3.3295e-11)
(0.866597 -0.0443669 3.86447e-12)
(0.869831 -0.0379175 5.48445e-13)
(0.873155 -0.0322948 -4.92132e-12)
(0.876412 -0.0266519 -8.36423e-12)
(0.879565 -0.0232805 2.05109e-11)
(0.882368 -0.016859 6.04493e-12)
(0.885393 -0.0174596 -2.68044e-11)
(0.887432 -0.00815749 -2.54655e-11)
(0.890747 -0.0141249 -3.68558e-11)
(0.891511 -0.00207624 -8.58685e-13)
(0.895549 -0.0108313 1.74074e-11)
(0.896004 -1.38712e-05 -7.0544e-12)
(0.89865 -0.00436419 -4.52594e-12)
(56.3857 0.804869 -1.06659e-11)
(54.1918 2.25828 9.04281e-12)
(49.289 1.32607 -2.04191e-11)
(44.9254 0.779854 -1.5498e-11)
(44.2596 1.13451 -2.18424e-12)
(42.1954 1.32412 8.09169e-12)
(38.0173 1.45183 1.05258e-11)
(33.7682 1.26714 3.12799e-12)
(29.8443 1.09536 3.06569e-12)
(27.4143 1.09749 1.73469e-12)
(25.4182 1.05993 -4.2897e-12)
(22.6717 0.860072 6.68196e-12)
(19.7449 0.657132 4.78774e-12)
(16.5971 0.493422 -9.51911e-12)
(13.3609 0.399226 -6.50457e-12)
(10.2504 0.261202 -1.76649e-11)
(7.47826 0.0904174 -9.71142e-12)
(5.1389 -0.00512532 -4.61017e-12)
(3.23283 -0.0635397 8.0824e-12)
(1.81153 -0.0935541 2.12812e-11)
(0.988125 -0.0859081 2.66892e-11)
(0.859924 -0.0623604 1.17187e-11)
(0.86122 -0.053783 2.92571e-11)
(0.864072 -0.0468646 6.85358e-12)
(0.867189 -0.0403259 1.89638e-13)
(0.870483 -0.0345768 -3.32375e-12)
(0.87376 -0.0288264 -4.12451e-12)
(0.876957 -0.0253657 1.6728e-11)
(0.879842 -0.0187712 4.23814e-12)
(0.882955 -0.0193336 -2.558e-11)
(0.885052 -0.00956919 -2.66419e-11)
(0.88847 -0.0161135 -3.64911e-11)
(0.889273 -0.00232915 -1.17054e-12)
(0.893636 -0.0132553 1.70551e-11)
(0.893489 0.000993067 -7.5478e-12)
(0.897212 -0.00844618 -5.42244e-12)
(0.898423 0.000612778 -3.96188e-12)
(56.1149 1.15929 -1.61676e-12)
(52.6324 1.72826 -9.312e-13)
(47.7269 0.706619 -1.72874e-11)
(43.6458 0.667354 -1.12951e-11)
(43.2298 0.815603 -1.57233e-11)
(41.5256 1.08147 -8.13353e-12)
(37.7858 1.21002 -1.17425e-12)
(33.7699 1.25965 6.0047e-12)
(29.8805 1.09651 6.17131e-12)
(27.5729 0.987018 2.47106e-12)
(25.7633 0.999724 1.91988e-12)
(23.0895 0.922037 -1.34005e-12)
(20.1878 0.718431 3.48091e-12)
(17.1015 0.509938 -2.40856e-12)
(13.9472 0.353927 -1.34503e-11)
(10.9052 0.258464 -8.39642e-12)
(8.08215 0.140522 -1.60323e-11)
(5.64288 0.0186142 -4.14178e-12)
(3.65414 -0.0503136 -2.10012e-12)
(2.12937 -0.0846013 1.68582e-11)
(1.12433 -0.0919747 2.43094e-11)
(0.863645 -0.0667654 1.66229e-11)
(0.858764 -0.0566483 2.4202e-11)
(0.861633 -0.0492991 2.06182e-11)
(0.864613 -0.0426598 8.51795e-13)
(0.867845 -0.0367808 -2.01239e-12)
(0.871125 -0.0309236 -1.13315e-12)
(0.874343 -0.0273733 1.30803e-11)
(0.877296 -0.0206213 1.44459e-12)
(0.880472 -0.0211468 -2.32186e-11)
(0.882629 -0.0110134 -2.70751e-11)
(0.886146 -0.0179419 -3.30031e-11)
(0.886997 -0.00279554 -2.55969e-12)
(0.891574 -0.0156018 2.48253e-11)
(0.89094 0.00208443 1.12335e-12)
(0.895788 -0.0117604 -1.26976e-11)
(0.895892 0.00235559 -1.68134e-14)
(0.898633 -0.00355718 -2.96962e-12)
(55.162 1.22831 1.97474e-13)
(50.5878 0.731947 -1.03452e-11)
(46.0627 0.571526 -3.69786e-12)
(42.3745 0.637216 -5.57188e-12)