/*--------------------------------*- C++ -*----------------------------------*\
| =========                 |                                                 |
| \\      /  F ield         | OpenFOAM: The Open Source CFD Toolbox           |
|  \\    /   O peration     | Version:  2.3.0                                 |
|   \\  /    A nd           | Web:      www.OpenFOAM.org                      |
|    \\/     M anipulation  |                                                 |
\*---------------------------------------------------------------------------*/
FoamFile
{
    version     2.0;
    format      ascii;
    class       volScalarField;
    location    "9800/wall";
    object      T;
}
// * * * * * * * * * * * * * * * * * * * * * * * * * * * * * * * * * * * * * //

dimensions      [0 0 0 1 0 0 0];

internalField   nonuniform List<scalar> 
2000
(
809.5913
809.5802
809.5591
809.5294
809.4926
809.4499
809.4017
809.3488
809.2915
809.2303
809.1655
809.0973
809.0261
808.952
808.8753
808.7961
808.7147
808.631
808.5454
808.4579
808.3685
808.2776
808.185
808.091
807.9957
807.899
807.8011
807.7021
807.602
807.5009
807.3988
807.2959
807.1922
807.0877
806.9826
806.8768
806.7704
806.6635
806.5561
806.4483
806.34
806.2315
806.1226
806.0136
805.9043
805.7948
805.6852
805.5756
805.466
805.3563
805.2467
805.1372
805.0279
804.9187
804.8098
804.7011
804.5928
804.4848
804.3772
804.27
804.1633
804.0572
803.9516
803.8466
803.7424
803.6388
803.536
803.434
803.3329
803.2328
803.1336
803.0354
802.9384
802.8425
802.7479
802.6545
802.5626
802.472
802.383
802.2957
802.21
802.1261
802.0442
801.9643
801.8865
801.811
801.738
801.6675
801.5999
801.5352
801.4737
801.4157
801.3615
801.3114
801.2659
801.2254
801.1905
801.1621
801.1413
801.1296
802.9794
802.9701
802.9523
802.9268
802.8945
802.8562
802.8127
802.7643
802.7116
802.655
802.5947
802.531
802.4643
802.3947
802.3224
802.2476
802.1705
802.0913
802.0099
801.9267
801.8416
801.7549
801.6666
801.5768
801.4856
801.393
801.2993
801.2043
801.1083
801.0113
800.9133
800.8144
800.7147
800.6142
800.5131
800.4112
800.3088
800.2058
800.1024
799.9985
799.8942
799.7895
799.6846
799.5794
799.474
799.3684
799.2627
799.1569
799.0512
798.9454
798.8396
798.734
798.6285
798.5232
798.4181
798.3133
798.2088
798.1046
798.0009
797.8976
797.7948
797.6925
797.5908
797.4897
797.3893
797.2896
797.1907
797.0927
796.9955
796.8992
796.804
796.7098
796.6167
796.5248
796.4341
796.3448
796.2568
796.1703
796.0854
796.0021
795.9205
795.8407
795.7629
795.6871
795.6135
795.5422
795.4734
795.4071
795.3437
795.2833
795.2261
795.1724
795.1225
795.0767
795.0355
794.9992
794.9685
794.9441
794.9269
794.9178
796.3769
796.369
796.3536
796.3312
796.3025
796.2682
796.2287
796.1845
796.136
796.0836
796.0275
795.9682
795.9057
795.8404
795.7723
795.7018
795.6289
795.5539
795.4767
795.3977
795.3168
795.2342
795.15
795.0643
794.9771
794.8887
794.7989
794.7081
794.616
794.523
794.429
794.3341
794.2384
794.1419
794.0446
793.9467
793.8482
793.7491
793.6496
793.5495
793.4491
793.3483
793.2472
793.1459
793.0443
792.9426
792.8407
792.7388
792.6368
792.5349
792.4329
792.3311
792.2295
792.128
792.0267
791.9257
791.825
791.7247
791.6247
791.5252
791.4262
791.3278
791.2299
791.1327
791.0361
790.9403
790.8452
790.751
790.6577
790.5653
790.4739
790.3836
790.2944
790.2064
790.1197
790.0343
789.9503
789.8677
789.7867
789.7074
789.6298
789.554
789.4802
789.4085
789.3389
789.2716
789.2068
789.1446
789.0852
789.0289
788.9757
788.926
788.8801
788.8382
788.8008
788.7682
788.741
788.7197
788.705
788.6975
789.7825
789.7756
789.7621
789.7422
789.7166
789.6856
789.6496
789.6092
789.5645
789.5161
789.464
789.4087
789.3503
789.289
789.2251
789.1586
789.0898
789.0188
788.9458
788.8708
788.7939
788.7154
788.6352
788.5535
788.4704
788.3859
788.3002
788.2132
788.1252
788.0361
787.946
787.855
787.7632
787.6706
787.5772
787.4832
787.3885
787.2933
787.1976
787.1014
787.0048
786.9079
786.8106
786.713
786.6153
786.5174
786.4193
786.3211
786.223
786.1248
786.0266
785.9286
785.8307
785.733
785.6355
785.5383
785.4413
785.3448
785.2486
785.1529
785.0577
784.963
784.8689
784.7755
784.6827
784.5907
784.4994
784.409
784.3195
784.231
784.1434
784.0569
783.9716
783.8874
783.8045
783.723
783.6428
783.5641
783.487
783.4116
783.3379
783.266
783.1961
783.1282
783.0626
782.9992
782.9383
782.88
782.8244
782.7719
782.7225
782.6765
782.6342
782.5959
782.5618
782.5325
782.5082
782.4894
782.4766
782.4701
783.1953
783.1892
783.1771
783.1594
783.1363
783.1082
783.0754
783.0383
782.9972
782.9524
782.9041
782.8526
782.798
782.7406
782.6806
782.6181
782.5532
782.4862
782.4171
782.346
782.2732
782.1985
782.1223
782.0446
781.9654
781.8848
781.803
781.7199
781.6358
781.5505
781.4643
781.3772
781.2892
781.2004
781.1109
781.0207
780.9299
780.8384
780.7465
780.6541
780.5613
780.4681
780.3746
780.2809
780.1869
780.0927
779.9984
779.904
779.8095
779.7151
779.6207
779.5264
779.4323
779.3383
779.2445
779.151
779.0578
778.965
778.8726
778.7806
778.6891
778.5982
778.5078
778.4181
778.3291
778.2408
778.1533
778.0667
777.9809
777.8962
777.8124
777.7297
777.6481
777.5677
777.4886
777.4108
777.3345
777.2596
777.1863
777.1146
777.0447
776.9767
776.9105
776.8464
776.7845
776.7249
776.6677
776.6131
776.5612
776.5123
776.4665
776.424
776.385
776.3499
776.3189
776.2923
776.2705
776.2537
776.2424
776.2367
776.6144
776.6089
776.5981
776.5821
776.5613
776.5357
776.5058
776.4718
776.434
776.3925
776.3477
776.2998
776.2489
776.1952
776.1389
776.0802
776.0192
775.9559
775.8907
775.8235
775.7544
775.6837
775.6113
775.5374
775.462
775.3853
775.3073
775.2281
775.1477
775.0663
774.9839
774.9006
774.8164
774.7314
774.6456
774.5592
774.4721
774.3845
774.2963
774.2077
774.1186
774.0291
773.9394
773.8493
773.7591
773.6686
773.578
773.4873
773.3966
773.3059
773.2152
773.1246
773.0341
772.9438
772.8537
772.7639
772.6745
772.5853
772.4966
772.4083
772.3205
772.2333
772.1466
772.0606
771.9753
771.8907
771.8069
771.724
771.642
771.5609
771.4808
771.4018
771.324
771.2473
771.1719
771.0979
771.0252
770.9541
770.8845
770.8165
770.7503
770.6859
770.6235
770.5631
770.5048
770.4488
770.3952
770.3441
770.2958
770.2502
770.2077
770.1685
770.1326
770.1004
770.0721
770.048
770.0283
770.0133
770.0032
769.9981
770.0392
770.0343
770.0245
770.0101
769.9912
769.9679
769.9406
769.9094
769.8746
769.8363
769.7948
769.7503
769.7028
769.6527
769.6
769.5449
769.4876
769.4281
769.3665
769.303
769.2377
769.1707
769.1021
769.032
768.9604
768.8874
768.8131
768.7377
768.6611
768.5834
768.5048
768.4252
768.3447
768.2635
768.1814
768.0987
768.0154
767.9314
767.847
767.762
767.6766
767.5909
767.5048
767.4184
767.3318
767.2451
767.1581
767.0711
766.9841
766.897
766.81
766.723
766.6362
766.5496
766.4632
766.377
766.2912
766.2057
766.1206
766.036
765.9519
765.8683
765.7853
765.7029
765.6213
765.5403
765.4602
765.3809
765.3025
765.2251
765.1487
765.0734
764.9992
764.9262
764.8544
764.784
764.715
764.6475
764.5816
764.5172
764.4546
764.3939
764.335
764.2781
764.2234
764.1709
764.1207
764.0731
764.028
763.9857
763.9464
763.9101
763.8771
763.8476
763.8218
763.7999
763.7821
763.7685
763.7594
763.7549
763.4692
763.4647
763.4559
763.4428
763.4256
763.4045
763.3795
763.3509
763.3189
763.2836
763.2452
763.2039
763.1598
763.1131
763.0638
763.0123
762.9584
762.9025
762.8446
762.7847
762.7231
762.6597
762.5948
762.5283
762.4604
762.3911
762.3206
762.2488
762.1759
762.1019
762.027
761.9511
761.8743
761.7967
761.7183
761.6393
761.5596
761.4793
761.3985
761.3172
761.2355
761.1534
761.0709
760.9882
760.9052
760.8221
760.7388
760.6554
760.572
760.4885
760.4051
760.3218
760.2386
760.1556
760.0728
759.9903
759.908
759.8262
759.7447
759.6637
759.5832
759.5032
759.4238
759.345
759.267
759.1897
759.1131
759.0375
758.9627
758.8888
758.816
758.7443
758.6737
758.6043
758.5361
758.4693
758.4039
758.34
758.2776
758.2168
758.1577
758.1004
758.0451
757.9917
757.9403
757.8912
757.8444
757.7999
757.7581
757.7189
757.6825
757.6491
757.6188
757.5918
757.5682
757.5483
757.5321
757.5199
757.5117
757.5077
756.9038
756.8998
756.8918
756.88
756.8644
756.8451
756.8223
756.7962
756.7668
756.7343
756.6988
756.6606
756.6197
756.5762
756.5303
756.4821
756.4317
756.3793
756.3248
756.2685
756.2105
756.1507
756.0893
756.0265
755.9621
755.8965
755.8295
755.7614
755.6921
755.6218
755.5504
755.4781
755.405
755.331
755.2563
755.1808
755.1048
755.0281
754.9509
754.8732
754.7951
754.7166
754.6377
754.5586
754.4792
754.3997
754.32
754.2402
754.1603
754.0805
754.0006
753.9209
753.8413
753.7618
753.6826
753.6036
753.525
753.4467
753.3688
753.2913
753.2144
753.138
753.0621
752.9869
752.9124
752.8387
752.7657
752.6936
752.6223
752.5521
752.4828
752.4146
752.3475
752.2817
752.217
752.1537
752.0918
752.0314
751.9724
751.9151
751.8595
751.8057
751.7537
751.7036
751.6556
751.6097
751.5661
751.5248
751.486
751.4497
751.4162
751.3855
751.3577
751.333
751.3115
751.2934
751.2788
751.2677
751.2604
751.2567
750.3427
750.3391
750.3319
750.3212
750.3071
750.2896
750.2688
750.245
750.218
750.1882
750.1556
750.1202
750.0824
750.042
749.9994
749.9544
749.9074
749.8583
749.8073
749.7544
749.6998
749.6435
749.5857
749.5263
749.4656
749.4034
749.34
749.2755
749.2097
749.143
749.0752
749.0064
748.9368
748.8664
748.7953
748.7234
748.6509
748.5778
748.5041
748.43
748.3554
748.2805
748.2052
748.1296
748.0538
747.9778
747.9016
747.8254
747.7491
747.6727
747.5965
747.5203
747.4442
747.3683
747.2926
747.2171
747.142
747.0673
746.9929
746.9189
746.8455
746.7726
746.7003
746.6286
746.5576
746.4874
746.4179
746.3493
746.2815
746.2148
746.149
746.0843
746.0207
745.9583
745.8971
745.8373
745.7788
745.7218
745.6662
745.6123
745.5601
745.5095
745.4608
745.4141
745.3693
745.3266
745.286
745.2478
745.2119
745.1784
745.1476
745.1194
745.094
745.0715
745.052
745.0356
745.0224
745.0125
745.0058
745.0026
743.7855
743.7822
743.7757
743.7661
743.7534
743.7376
743.7188
743.697
743.6725
743.6452
743.6153
743.5828
743.5478
743.5105
743.4709
743.4292
743.3854
743.3396
743.2919
743.2424
743.1912
743.1383
743.0839
743.028
742.9706
742.912
742.8521
742.791
742.7287
742.6655
742.6012
742.536
742.4699
742.403
742.3353
742.267
742.198
742.1284
742.0582
741.9876
741.9166
741.8451
741.7733
741.7013
741.629
741.5565
741.4838
741.411
741.3382
741.2654
741.1926
741.1199
741.0473
740.9749
740.9027
740.8308
740.7591
740.6878
740.6169
740.5465
740.4765
740.4071
740.3383
740.2701
740.2025
740.1357
740.0697
740.0046
739.9403
739.8769
739.8146
739.7533
739.6931
739.6341
739.5764
739.5199
739.4648
739.4111
739.3589
739.3083
739.2594
739.2121
739.1666
739.123
739.0814
739.0417
739.0042
738.9688
738.9358
738.9051
738.8768
738.8511
738.828
738.8076
738.79
738.7752
738.7633
738.7544
738.7484
738.7455
737.2317
737.2288
737.223
737.2144
737.203
737.1888
737.1719
737.1522
737.13
737.1051
737.0778
737.048
737.0159
736.9815
736.945
736.9063
736.8657
736.823
736.7786
736.7324
736.6844
736.6349
736.5838
736.5313
736.4774
736.4221
736.3656
736.3079
736.2491
736.1893
736.1285
736.0667
736.0041
735.9406
735.8764
735.8115
735.746
735.6798
735.6132
735.546
735.4784
735.4104
735.3421
735.2735
735.2047
735.1356
735.0664
734.9972
734.9278
734.8584
734.7891
734.7198
734.6507
734.5817
734.513
734.4445
734.3763
734.3085
734.241
734.174
734.1075
734.0415
733.976
733.9112
733.8471
733.7838
733.7212
733.6594
733.5985
733.5385
733.4796
733.4217
733.3648
733.3092
733.2548
733.2016
733.1498
733.0995
733.0505
733.0032
732.9574
732.9133
732.871
732.8305
732.7919
732.7553
732.7206
732.6881
732.6578
732.6298
732.604
732.5807
732.5598
732.5414
732.5255
732.5123
732.5017
732.4938
732.4885
732.486
730.6811
730.6785
730.6734
730.6658
730.6557
730.6431
730.6279
730.6103
730.5903
730.5678
730.543
730.5159
730.4866
730.455
730.4214
730.3858
730.3482
730.3087
730.2674
730.2243
730.1796
730.1334
730.0856
730.0363
729.9857
729.9338
729.8807
729.8263
729.7709
729.7144
729.657
729.5986
729.5394
729.4793
729.4185
729.357
729.2949
729.2322
729.1689
729.1052
729.041
728.9765
728.9116
728.8464
728.781
728.7153
728.6496
728.5837
728.5178
728.4518
728.3859
728.32
728.2543
728.1888
728.1234
728.0583
727.9935
727.9291
727.865
727.8014
727.7382
727.6756
727.6136
727.5522
727.4914
727.4314
727.3722
727.3138
727.2562
727.1996
727.144
727.0894
727.0359
726.9835
726.9324
726.8825
726.8339
726.7868
726.7411
726.6969
726.6543
726.6133
726.5741
726.5366
726.5009
726.4672
726.4355
726.4057
726.3781
726.3526
726.3293
726.3083
726.2895
726.2731
726.259
726.2473
726.2379
726.231
726.2264
726.2241
724.1332
724.131
724.1266
724.12
724.1112
724.1001
724.0868
724.0712
724.0533
724.0332
724.0108
723.9863
723.9596
723.9309
723.9002
723.8674
723.8328
723.7964
723.7581
723.7182
723.6767
723.6336
723.589
723.543
723.4957
723.447
723.3972
723.3461
723.294
723.2409
723.1867
723.1317
723.0758
723.0191
722.9617
722.9035
722.8448
722.7854
722.7255
722.6652
722.6044
722.5432
722.4817
722.4198
722.3578
722.2955
722.2332
722.1706
722.1081
722.0455
721.983
721.9205
721.8581
721.7959
721.734
721.6722
721.6108
721.5497
721.489
721.4287
721.3689
721.3096
721.2509
721.1929
721.1354
721.0787
721.0228
720.9677
720.9134
720.8601
720.8077
720.7564
720.7061
720.657
720.6091
720.5624
720.5171
720.4731
720.4305
720.3894
720.3499
720.312
720.2758
720.2413
720.2085
720.1777
720.1487
720.1217
720.0967
720.0737
720.0528
720.034
720.0174
720.0029
719.9906
719.9803
719.9722
719.9662
719.9623
719.9604
717.5878
717.5859
717.5822
717.5767
717.5692
717.5597
717.5481
717.5345
717.5188
717.501
717.4811
717.4591
717.4351
717.4091
717.3811
717.3513
717.3196
717.2861
717.2509
717.2141
717.1756
717.1356
717.0942
717.0514
717.0072
716.9618
716.9151
716.8673
716.8185
716.7686
716.7177
716.666
716.6134
716.56
716.5058
716.451
716.3955
716.3395
716.2829
716.2259
716.1684
716.1106
716.0524
715.9939
715.9352
715.8763
715.8172
715.758
715.6988
715.6395
715.5803
715.5212
715.4622
715.4033
715.3446
715.2862
715.2281
715.1703
715.1129
715.0559
714.9994
714.9435
714.888
714.8332
714.7791
714.7257
714.673
714.6211
714.5701
714.52
714.4709
714.4227
714.3757
714.3298
714.285
714.2415
714.1992
714.1584
714.1189
714.0809
714.0444
714.0094
713.9762
713.9446
713.9147
713.8866
713.8604
713.836
713.8136
713.7931
713.7746
713.7581
713.7436
713.731
713.7204
713.7117
713.7049
713.6999
713.6966
713.6951
711.0444
711.0429
711.04
711.0356
711.0294
711.0216
711.0119
711.0002
710.9867
710.9712
710.9537
710.9342
710.9128
710.8895
710.8643
710.8372
710.8084
710.7779
710.7456
710.7118
710.6763
710.6394
710.6011
710.5613
710.5203
710.478
710.4345
710.3899
710.3443
710.2976
710.2499
710.2014
710.152
710.1019
710.051
709.9994
709.9472
709.8944
709.8411
709.7874
709.7332
709.6786
709.6237
709.5685
709.5131
709.4574
709.4017
709.3458
709.2898
709.2339
709.178
709.1221
709.0664
709.0108
708.9554
708.9003
708.8454
708.7909
708.7368
708.6831
708.6298
708.5771
708.5249
708.4733
708.4224
708.3722
708.3228
708.2741
708.2263
708.1794
708.1334
708.0884
708.0445
708.0017
707.9601
707.9196
707.8805
707.8426
707.8062
707.7712
707.7376
707.7057
707.6753
707.6465
707.6195
707.5942
707.5706
707.5489
707.529
707.511
707.4949
707.4806
707.4682
707.4576
707.4487
707.4416
707.4361
707.4322
707.4297
707.4285
704.5026
704.5016
704.4996
704.4964
704.4917
704.4856
704.4777
704.4682
704.4568
704.4436
704.4285
704.4115
704.3927
704.372
704.3495
704.3253
704.2992
704.2715
704.2422
704.2113
704.1788
704.1449
704.1096
704.0729
704.0349
703.9957
703.9553
703.9139
703.8713
703.8278
703.7833
703.7379
703.6917
703.6448
703.5971
703.5487
703.4997
703.4502
703.4001
703.3496
703.2986
703.2473
703.1956
703.1437
703.0915
703.0391
702.9866
702.9339
702.8812
702.8285
702.7758
702.7232
702.6707
702.6184
702.5663
702.5144
702.4627
702.4115
702.3605
702.3101
702.26
702.2105
702.1615
702.1132
702.0654
702.0184
701.9721
701.9266
701.8819
701.8381
701.7953
701.7534
701.7126
701.6729
701.6343
701.5969
701.5607
701.5259
701.4924
701.4604
701.4297
701.4006
701.3731
701.3472
701.3229
701.3003
701.2794
701.2603
701.243
701.2274
701.2136
701.2016
701.1913
701.1827
701.1757
701.1703
701.1662
701.1634
701.1618
701.161
697.962
697.9616
697.9607
697.9588
697.9558
697.9515
697.9456
697.9382
697.929
697.9181
697.9054
697.891
697.8747
697.8566
697.8368
697.8153
697.792
697.7671
697.7406
697.7126
697.6831
697.6521
697.6197
697.586
697.551
697.5149
697.4775
697.4391
697.3997
697.3592
697.3178
697.2756
697.2325
697.1887
697.1441
697.0989
697.0531
697.0067
696.9599
696.9125
696.8647
696.8166
696.7681
696.7194
696.6704
696.6212
696.5719
696.5224
696.473
696.4235
696.374
696.3246
696.2753
696.2261
696.1772
696.1285
696.0801
696.032
695.9842
695.9369
695.8901
695.8437
695.7979
695.7527
695.7081
695.6642
695.621
695.5786
695.537
695.4963
695.4565
695.4177
695.3799
695.3432
695.3076
695.2732
695.2401
695.2082
695.1776
695.1485
695.1207
695.0944
695.0697
695.0465
695.025
695.0051
694.9868
694.9703
694.9555
694.9424
694.931
694.9212
694.9131
694.9066
694.9016
694.8979
694.8954
694.894
694.8932
694.893
691.422
691.4225
691.4229
691.4227
691.4215
691.4191
691.4154
691.4101
691.4032
691.3947
691.3844
691.3725
691.3587
691.3433
691.3261
691.3072
691.2867
691.2646
691.2409
691.2157
691.189
691.1609
691.1314
691.1007
691.0686
691.0354
691.0011
690.9657
690.9292
690.8918
690.8535
690.8143
690.7743
690.7336
690.6922
690.6501
690.6074
690.5641
690.5203
690.4761
690.4315
690.3865
690.3412
690.2956
690.2498
690.2037
690.1576
690.1113
690.065
690.0187
689.9724
689.9261
689.88
689.834
689.7882
689.7427
689.6974
689.6524
689.6078
689.5636
689.5199
689.4767
689.434
689.3918
689.3503
689.3095
689.2694
689.2301
689.1915
689.1539
689.1171
689.0813
689.0465
689.0128
688.9802
688.9487
688.9185
688.8895
688.8618
688.8355
688.8105
688.7871
688.7651
688.7446
688.7258
688.7085
688.6929
688.6789
688.6666
688.656
688.647
688.6396
688.6337
688.6294
688.6264
688.6247
688.624
688.6241
688.6246
688.6251
684.8816
684.8837
684.886
684.8878
684.8886
684.8884
684.8869
684.8839
684.8794
684.8732
684.8654
684.8559
684.8447
684.8319
684.8173
684.8011
684.7833
684.7638
684.7429
684.7205
684.6966
684.6713
684.6447
684.6168
684.5877
684.5574
684.526
684.4935
684.4601
684.4256
684.3903
684.3541
684.3172
684.2795
684.2411
684.202
684.1624
684.1222
684.0816
684.0404
683.9989
683.957
683.9148
683.8723
683.8296
683.7867
683.7437
683.7005
683.6573
683.6141
683.5709
683.5278
683.4848
683.4419
683.3993
683.3568
683.3147
683.2728
683.2313
683.1902
683.1496
683.1094
683.0698
683.0307
682.9923
682.9545
682.9174
682.8811
682.8455
682.8109
682.7771
682.7442
682.7124
682.6816
682.6519
682.6233
682.5959
682.5698
682.5449
682.5214
682.4992
682.4785
682.4592
682.4415
682.4253
682.4107
682.3976
682.3862
682.3764
682.3682
682.3617
682.3567
682.3532
682.3511
682.3503
682.3507
682.3521
682.354
682.3562
682.3579
)
;

boundaryField
{
    leftLet
    {
        type            zeroGradient;
    }
    rightLet
    {
        type            zeroGradient;
    }
    frontAndBack
    {
        type            empty;
    }
    wall_to_bottomAir
    {
        type            compressible::turbulentTemperatureCoupledBaffleMixed;
        refValue        nonuniform List<scalar> 
100
(
1199.253
1199.07
1198.773
1198.408
1198.052
1197.703
1197.353
1197.003
1196.653
1196.304
1195.955
1195.606
1195.258
1194.91
1194.562
1194.214
1193.867
1193.52
1193.173
1192.827
1192.48
1192.135
1191.789
1191.443
1191.098
1190.753
1190.409
1190.064
1189.72
1189.376
1189.033
1188.689
1188.346
1188.003
1187.661
1187.319
1186.976
1186.635
1186.293
1185.952
1185.61
1185.27
1184.929
1184.589
1184.248
1183.909
1183.569
1183.229
1182.89
1182.551
1182.213
1181.874
1181.536
1181.198
1180.86
1180.523
1180.186
1179.849
1179.512
1179.175
1178.839
1178.503
1178.167
1177.832
1177.496
1177.161
1176.826
1176.492
1176.157
1175.823
1175.489
1175.156
1174.822
1174.489
1174.156
1173.824
1173.492
1173.159
1172.828
1172.496
1172.165
1171.834
1171.503
1171.172
1170.842
1170.512
1170.182
1169.853
1169.523
1169.194
1168.866
1168.537
1168.209
1167.881
1167.554
1167.227
1166.9
1166.573
1166.247
1165.921
)
;
        refGradient     uniform 0;
        valueFraction   nonuniform List<scalar> 
100
(
0.008498584
0.008498584
0.008498584
0.008498584
0.008498584
0.008498584
0.008498584
0.008498584
0.008498584
0.008498584
0.008498584
0.008498584
0.008498584
0.008498584
0.008498584
0.008498584
0.008498584
0.008498584
0.008498584
0.008498584
0.008498584
0.008498584
0.008498584
0.008498584
0.008498584
0.008498584
0.008498584
0.008498584
0.008498584
0.008498584
0.008498584
0.008498584
0.008498584
0.008498584
0.008498584
0.008498584
0.008498584
0.008498584
0.008498584
0.008498584
0.008498584
0.008498584
0.008498584
0.008498584
0.008498584
0.008498584
0.008498584
0.008498584
0.008498584
0.008498584
0.008498584
0.008498584
0.008498584
0.008498584
0.008498584
0.008498584
0.008498584
0.008498584
0.008498584
0.008498584
0.008498584
0.008498584
0.008498584
0.008498584
0.008498584
0.008498584
0.008498584
0.008498584
0.008498584
0.008498584
0.008498584
0.008498584
0.008498584
0.008498584
0.008498584
0.008498584
0.008498584
0.008498584
0.008498584
0.008498584
0.008498584
0.008498584
0.008498584
0.008498584
0.008498584
0.008498584
0.008498584
0.008498584
0.008498584
0.008498584
0.008498584
0.008498584
0.008498584
0.008498584
0.008498584
0.008498584
0.008498584
0.008498584
0.008498584
0.008498584
)
;
        value           nonuniform List<scalar> 
100
(
812.9027
812.8901
812.8667
812.8341
812.7947
812.7493
812.6986
812.6431
812.5834
812.5197
812.4525
812.3819
812.3083
812.2319
812.1529
812.0715
811.9877
811.9019
811.814
811.7243
811.6328
811.5396
811.4449
811.3488
811.2513
811.1525
811.0525
810.9514
810.8492
810.746
810.6419
810.537
810.4312
810.3248
810.2176
810.1098
810.0014
809.8925
809.7831
809.6732
809.563
809.4525
809.3417
809.2306
809.1194
809.008
808.8965
808.7849
808.6732
808.5617
808.4501
808.3387
808.2274
808.1163
808.0054
807.8948
807.7845
807.6745
807.565
807.4558
807.3472
807.2391
807.1316
807.0247
806.9184
806.8129
806.7081
806.6042
806.5011
806.3989
806.2977
806.1976
806.0985
806.0006
805.904
805.8086
805.7146
805.622
805.5309
805.4415
805.3537
805.2678
805.1837
805.1016
805.0217
804.9441
804.8689
804.7962
804.7263
804.6594
804.5956
804.5353
804.4788
804.4263
804.3784
804.3355
804.2981
804.2672
804.2438
804.2294
)
;
        Tnbr            T;
        thicknessLayers 0();
        kappaLayers     0();
        kappa           solidThermo;
        kappaName       none;
    }
    wall_to_topAir
    {
        type            compressible::turbulentTemperatureCoupledBaffleMixed;
        refValue        nonuniform List<scalar> 
100
(
299.9741
300.1835
300.3444
300.4763
300.6117
300.7501
300.8881
301.0258
301.1635
301.3013
301.4392
301.577
301.7149
301.8528
301.9906
302.1286
302.2665
302.4044
302.5424
302.6803
302.8183
302.9563
303.0943
303.2324
303.3704
303.5084
303.6465
303.7846
303.9226
304.0607
304.1988
304.3369
304.475
304.6132
304.7513
304.8894
305.0276
305.1657
305.3039
305.4421
305.5802
305.7184
305.8566
305.9948
306.133
306.2712
306.4094
306.5476
306.6859
306.8241
306.9623
307.1006
307.2388
307.3771
307.5153
307.6536
307.7919
307.9302
308.0684
308.2067
308.345
308.4833
308.6216
308.7599
308.8983
309.0366
309.1749
309.3133
309.4516
309.59
309.7283
309.8667
310.0051
310.1435
310.2819
310.4203
310.5587
310.6971
310.8355
310.974
311.1124
311.2509
311.3894
311.5279
311.6664
311.8049
311.9434
312.0819
312.2205
312.359
312.4976
312.6362
312.7748
312.9134
313.052
313.1906
313.3293
313.4679
313.6065
313.7451
)
;
        refGradient     uniform 0;
        valueFraction   nonuniform List<scalar> 
100
(
0.008498584
0.008498584
0.008498584
0.008498584
0.008498584
0.008498584
0.008498584
0.008498584
0.008498584
0.008498584
0.008498584
0.008498584
0.008498584
0.008498584
0.008498584
0.008498584
0.008498584
0.008498584
0.008498584
0.008498584
0.008498584
0.008498584
0.008498584
0.008498584
0.008498584
0.008498584
0.008498584
0.008498584
0.008498584
0.008498584
0.008498584
0.008498584
0.008498584
0.008498584
0.008498584
0.008498584
0.008498584
0.008498584
0.008498584
0.008498584
0.008498584
0.008498584
0.008498584
0.008498584
0.008498584
0.008498584
0.008498584
0.008498584
0.008498584
0.008498584
0.008498584
0.008498584
0.008498584
0.008498584
0.008498584
0.008498584
0.008498584
0.008498584
0.008498584
0.008498584
0.008498584
0.008498584
0.008498584
0.008498584
0.008498584
0.008498584
0.008498584
0.008498584
0.008498584
0.008498584
0.008498584
0.008498584
0.008498584
0.008498584
0.008498584
0.008498584
0.008498584
0.008498584
0.008498584
0.008498584
0.008498584
0.008498584
0.008498584
0.008498584
0.008498584
0.008498584
0.008498584
0.008498584
0.008498584
0.008498584
0.008498584
0.008498584
0.008498584
0.008498584
0.008498584
0.008498584
0.008498584
0.008498584
0.008498584
0.008498584
)
;
        value           nonuniform List<scalar> 
100
(
681.6103
681.6142
681.6178
681.6207
681.6227
681.6236
681.6233
681.6215
681.6182
681.6133
681.6067
681.5985
681.5885
681.5769
681.5637
681.5488
681.5323
681.5142
681.4946
681.4735
681.451
681.4271
681.4019
681.3754
681.3477
681.3189
681.2889
681.2579
681.2259
681.1929
681.1591
681.1244
681.0889
681.0527
681.0158
680.9783
680.9401
680.9015
680.8623
680.8227
680.7827
680.7424
680.7017
680.6607
680.6196
680.5782
680.5367
680.4951
680.4535
680.4118
680.3701
680.3286
680.2871
680.2458
680.2046
680.1637
680.1231
680.0828
680.0428
680.0032
679.9641
679.9255
679.8873
679.8498
679.8128
679.7765
679.7409
679.7061
679.6721
679.6388
679.6065
679.5751
679.5447
679.5154
679.4871
679.4599
679.4339
679.4092
679.3857
679.3636
679.3428
679.3234
679.3055
679.2891
679.2742
679.2609
679.2491
679.239
679.2304
679.2235
679.2182
679.2144
679.2121
679.2112
679.2117
679.2132
679.2157
679.2188
679.2222
679.225
)
;
        Tnbr            T;
        thicknessLayers 0();
        kappaLayers     0();
        kappa           solidThermo;
        kappaName       none;
    }
}


// ************************************************************************* //
