/*--------------------------------*- C++ -*----------------------------------*\
| =========                 |                                                 |
| \\      /  F ield         | OpenFOAM: The Open Source CFD Toolbox           |
|  \\    /   O peration     | Version:  2.3.0                                 |
|   \\  /    A nd           | Web:      www.OpenFOAM.org                      |
|    \\/     M anipulation  |                                                 |
\*---------------------------------------------------------------------------*/
FoamFile
{
    version     2.0;
    format      ascii;
    class       volScalarField;
    location    "9600/wall";
    object      T;
}
// * * * * * * * * * * * * * * * * * * * * * * * * * * * * * * * * * * * * * //

dimensions      [0 0 0 1 0 0 0];

internalField   nonuniform List<scalar> 
2000
(
1177.035
1177.15
1177.212
1177.22
1177.221
1177.223
1177.225
1177.225
1177.226
1177.227
1177.227
1177.227
1177.228
1177.228
1177.228
1177.229
1177.229
1177.229
1177.229
1177.23
1177.23
1177.23
1177.23
1177.231
1177.231
1177.231
1177.231
1177.232
1177.232
1177.232
1177.232
1177.233
1177.233
1177.233
1177.233
1177.234
1177.234
1177.234
1177.234
1177.235
1177.235
1177.235
1177.235
1177.236
1177.236
1177.236
1177.236
1177.237
1177.237
1177.237
1177.237
1177.238
1177.238
1177.238
1177.238
1177.238
1177.239
1177.239
1177.239
1177.239
1177.24
1177.24
1177.24
1177.24
1177.241
1177.241
1177.241
1177.241
1177.242
1177.242
1177.242
1177.242
1177.242
1177.243
1177.243
1177.243
1177.243
1177.244
1177.244
1177.244
1177.244
1177.244
1177.245
1177.245
1177.245
1177.245
1177.246
1177.246
1177.246
1177.246
1177.246
1177.247
1177.247
1177.247
1177.247
1177.247
1177.247
1177.248
1177.248
1177.248
1132.139
1132.181
1132.215
1132.231
1132.238
1132.242
1132.245
1132.247
1132.248
1132.249
1132.25
1132.25
1132.251
1132.251
1132.252
1132.252
1132.252
1132.253
1132.253
1132.253
1132.253
1132.254
1132.254
1132.254
1132.254
1132.255
1132.255
1132.255
1132.255
1132.256
1132.256
1132.256
1132.256
1132.257
1132.257
1132.257
1132.257
1132.257
1132.258
1132.258
1132.258
1132.258
1132.259
1132.259
1132.259
1132.259
1132.26
1132.26
1132.26
1132.26
1132.26
1132.261
1132.261
1132.261
1132.261
1132.262
1132.262
1132.262
1132.262
1132.262
1132.263
1132.263
1132.263
1132.263
1132.263
1132.264
1132.264
1132.264
1132.264
1132.265
1132.265
1132.265
1132.265
1132.265
1132.266
1132.266
1132.266
1132.266
1132.266
1132.267
1132.267
1132.267
1132.267
1132.267
1132.268
1132.268
1132.268
1132.268
1132.268
1132.269
1132.269
1132.269
1132.269
1132.269
1132.269
1132.269
1132.27
1132.27
1132.27
1132.269
1087.199
1087.216
1087.235
1087.248
1087.256
1087.261
1087.265
1087.267
1087.269
1087.27
1087.271
1087.272
1087.273
1087.273
1087.274
1087.274
1087.274
1087.275
1087.275
1087.275
1087.276
1087.276
1087.276
1087.276
1087.277
1087.277
1087.277
1087.277
1087.278
1087.278
1087.278
1087.278
1087.278
1087.279
1087.279
1087.279
1087.279
1087.279
1087.28
1087.28
1087.28
1087.28
1087.28
1087.281
1087.281
1087.281
1087.281
1087.282
1087.282
1087.282
1087.282
1087.282
1087.283
1087.283
1087.283
1087.283
1087.283
1087.284
1087.284
1087.284
1087.284
1087.284
1087.285
1087.285
1087.285
1087.285
1087.285
1087.286
1087.286
1087.286
1087.286
1087.286
1087.287
1087.287
1087.287
1087.287
1087.287
1087.288
1087.288
1087.288
1087.288
1087.288
1087.288
1087.289
1087.289
1087.289
1087.289
1087.289
1087.29
1087.29
1087.29
1087.29
1087.29
1087.29
1087.29
1087.29
1087.29
1087.29
1087.29
1087.29
1042.241
1042.249
1042.26
1042.269
1042.275
1042.28
1042.284
1042.287
1042.289
1042.29
1042.291
1042.292
1042.293
1042.294
1042.294
1042.295
1042.295
1042.295
1042.296
1042.296
1042.296
1042.297
1042.297
1042.297
1042.297
1042.298
1042.298
1042.298
1042.298
1042.298
1042.299
1042.299
1042.299
1042.299
1042.299
1042.3
1042.3
1042.3
1042.3
1042.3
1042.301
1042.301
1042.301
1042.301
1042.301
1042.302
1042.302
1042.302
1042.302
1042.302
1042.303
1042.303
1042.303
1042.303
1042.303
1042.303
1042.304
1042.304
1042.304
1042.304
1042.304
1042.305
1042.305
1042.305
1042.305
1042.305
1042.306
1042.306
1042.306
1042.306
1042.306
1042.306
1042.307
1042.307
1042.307
1042.307
1042.307
1042.308
1042.308
1042.308
1042.308
1042.308
1042.308
1042.309
1042.309
1042.309
1042.309
1042.309
1042.309
1042.309
1042.31
1042.31
1042.31
1042.31
1042.31
1042.31
1042.31
1042.31
1042.31
1042.309
997.2732
997.2775
997.2838
997.29
997.2954
997.2996
997.303
997.3056
997.3076
997.3092
997.3105
997.3115
997.3123
997.313
997.3136
997.3141
997.3145
997.3149
997.3153
997.3156
997.3159
997.3161
997.3164
997.3166
997.3168
997.3171
997.3173
997.3175
997.3177
997.3179
997.3181
997.3182
997.3184
997.3186
997.3188
997.319
997.3192
997.3193
997.3195
997.3197
997.3199
997.3201
997.3202
997.3204
997.3206
997.3208
997.3209
997.3211
997.3213
997.3215
997.3217
997.3218
997.322
997.3222
997.3224
997.3225
997.3227
997.3229
997.3231
997.3232
997.3234
997.3236
997.3237
997.3239
997.3241
997.3243
997.3244
997.3246
997.3248
997.325
997.3251
997.3253
997.3255
997.3256
997.3258
997.326
997.3261
997.3263
997.3265
997.3266
997.3268
997.3269
997.3271
997.3272
997.3274
997.3275
997.3276
997.3278
997.3279
997.328
997.3281
997.3282
997.3282
997.3282
997.3283
997.3282
997.3282
997.328
997.3278
997.3276
952.3001
952.3027
952.3066
952.3109
952.3149
952.3184
952.3214
952.3238
952.3257
952.3273
952.3286
952.3296
952.3305
952.3312
952.3318
952.3323
952.3328
952.3332
952.3335
952.3338
952.3341
952.3344
952.3346
952.3349
952.3351
952.3353
952.3355
952.3357
952.3359
952.336
952.3362
952.3364
952.3366
952.3367
952.3369
952.3371
952.3373
952.3374
952.3376
952.3377
952.3379
952.3381
952.3382
952.3384
952.3386
952.3387
952.3389
952.3391
952.3392
952.3394
952.3396
952.3397
952.3399
952.34
952.3402
952.3404
952.3405
952.3407
952.3408
952.341
952.3412
952.3413
952.3415
952.3416
952.3418
952.342
952.3421
952.3423
952.3424
952.3426
952.3427
952.3429
952.3431
952.3432
952.3434
952.3435
952.3437
952.3438
952.344
952.3441
952.3443
952.3444
952.3445
952.3447
952.3448
952.3449
952.345
952.3451
952.3452
952.3453
952.3454
952.3455
952.3455
952.3455
952.3455
952.3454
952.3453
952.3452
952.345
952.3447
907.3233
907.325
907.3276
907.3307
907.3337
907.3365
907.339
907.3411
907.3429
907.3444
907.3456
907.3467
907.3475
907.3482
907.3489
907.3494
907.3498
907.3502
907.3506
907.3509
907.3512
907.3515
907.3517
907.3519
907.3521
907.3523
907.3525
907.3527
907.3529
907.353
907.3532
907.3534
907.3535
907.3537
907.3539
907.354
907.3542
907.3543
907.3545
907.3546
907.3548
907.3549
907.3551
907.3552
907.3554
907.3555
907.3557
907.3558
907.356
907.3561
907.3563
907.3564
907.3566
907.3567
907.3569
907.357
907.3572
907.3573
907.3575
907.3576
907.3578
907.3579
907.3581
907.3582
907.3584
907.3585
907.3587
907.3588
907.3589
907.3591
907.3592
907.3594
907.3595
907.3597
907.3598
907.3599
907.3601
907.3602
907.3604
907.3605
907.3606
907.3607
907.3609
907.361
907.3611
907.3612
907.3613
907.3614
907.3615
907.3616
907.3616
907.3616
907.3617
907.3617
907.3616
907.3615
907.3614
907.3613
907.3611
907.3608
862.3439
862.3451
862.3469
862.3491
862.3515
862.3537
862.3558
862.3576
862.3592
862.3606
862.3617
862.3627
862.3635
862.3642
862.3649
862.3654
862.3658
862.3662
862.3666
862.3669
862.3672
862.3674
862.3677
862.3679
862.3681
862.3683
862.3684
862.3686
862.3688
862.3689
862.3691
862.3692
862.3694
862.3695
862.3697
862.3698
862.37
862.3701
862.3702
862.3704
862.3705
862.3707
862.3708
862.3709
862.3711
862.3712
862.3714
862.3715
862.3716
862.3718
862.3719
862.3721
862.3722
862.3723
862.3725
862.3726
862.3727
862.3729
862.373
862.3731
862.3733
862.3734
862.3736
862.3737
862.3738
862.374
862.3741
862.3742
862.3744
862.3745
862.3746
862.3748
862.3749
862.375
862.3752
862.3753
862.3754
862.3755
862.3757
862.3758
862.3759
862.376
862.3761
862.3762
862.3763
862.3764
862.3765
862.3766
862.3767
862.3767
862.3768
862.3768
862.3768
862.3768
862.3767
862.3766
862.3765
862.3764
862.3761
862.3759
817.3624
817.3633
817.3646
817.3663
817.3681
817.3699
817.3716
817.3732
817.3746
817.3758
817.3769
817.3778
817.3786
817.3793
817.3798
817.3803
817.3808
817.3812
817.3815
817.3818
817.3821
817.3823
817.3826
817.3828
817.3829
817.3831
817.3833
817.3835
817.3836
817.3838
817.3839
817.384
817.3842
817.3843
817.3845
817.3846
817.3847
817.3848
817.385
817.3851
817.3852
817.3854
817.3855
817.3856
817.3857
817.3859
817.386
817.3861
817.3863
817.3864
817.3865
817.3866
817.3868
817.3869
817.387
817.3871
817.3873
817.3874
817.3875
817.3876
817.3878
817.3879
817.388
817.3881
817.3883
817.3884
817.3885
817.3886
817.3888
817.3889
817.389
817.3891
817.3892
817.3894
817.3895
817.3896
817.3897
817.3898
817.3899
817.3901
817.3902
817.3903
817.3904
817.3905
817.3906
817.3906
817.3907
817.3908
817.3908
817.3909
817.3909
817.3909
817.3909
817.3909
817.3908
817.3907
817.3906
817.3905
817.3903
817.39
772.3792
772.3799
772.3809
772.3822
772.3836
772.3851
772.3865
772.3878
772.389
772.3901
772.3911
772.3919
772.3927
772.3933
772.3939
772.3944
772.3948
772.3951
772.3955
772.3958
772.396
772.3963
772.3965
772.3967
772.3968
772.397
772.3972
772.3973
772.3975
772.3976
772.3977
772.3979
772.398
772.3981
772.3982
772.3984
772.3985
772.3986
772.3987
772.3988
772.399
772.3991
772.3992
772.3993
772.3994
772.3995
772.3997
772.3998
772.3999
772.4
772.4001
772.4002
772.4004
772.4005
772.4006
772.4007
772.4008
772.4009
772.401
772.4012
772.4013
772.4014
772.4015
772.4016
772.4017
772.4018
772.402
772.4021
772.4022
772.4023
772.4024
772.4025
772.4026
772.4027
772.4029
772.403
772.4031
772.4032
772.4033
772.4034
772.4035
772.4036
772.4037
772.4037
772.4038
772.4039
772.404
772.404
772.4041
772.4041
772.4041
772.4041
772.4041
772.4041
772.404
772.4039
772.4038
772.4036
772.4035
772.4032
727.3944
727.395
727.3958
727.3968
727.398
727.3992
727.4004
727.4016
727.4026
727.4036
727.4045
727.4052
727.4059
727.4065
727.407
727.4075
727.4079
727.4082
727.4085
727.4088
727.409
727.4093
727.4094
727.4096
727.4098
727.41
727.4101
727.4102
727.4104
727.4105
727.4106
727.4107
727.4109
727.411
727.4111
727.4112
727.4113
727.4114
727.4115
727.4116
727.4118
727.4119
727.412
727.4121
727.4122
727.4123
727.4124
727.4125
727.4126
727.4127
727.4128
727.4129
727.413
727.4131
727.4132
727.4134
727.4135
727.4136
727.4137
727.4138
727.4139
727.414
727.4141
727.4142
727.4143
727.4144
727.4145
727.4146
727.4147
727.4148
727.4149
727.415
727.4151
727.4152
727.4153
727.4154
727.4155
727.4156
727.4157
727.4158
727.4159
727.416
727.4161
727.4161
727.4162
727.4163
727.4163
727.4164
727.4164
727.4164
727.4165
727.4165
727.4164
727.4164
727.4163
727.4162
727.4161
727.416
727.4158
727.4156
682.4083
682.4088
682.4095
682.4104
682.4114
682.4124
682.4135
682.4145
682.4154
682.4162
682.417
682.4177
682.4183
682.4188
682.4193
682.4197
682.4201
682.4204
682.4207
682.421
682.4212
682.4214
682.4216
682.4217
682.4219
682.422
682.4222
682.4223
682.4224
682.4226
682.4227
682.4228
682.4229
682.423
682.4231
682.4232
682.4233
682.4234
682.4235
682.4236
682.4237
682.4238
682.4239
682.424
682.4241
682.4242
682.4243
682.4244
682.4245
682.4246
682.4247
682.4248
682.4249
682.425
682.4251
682.4252
682.4253
682.4254
682.4254
682.4255
682.4256
682.4257
682.4258
682.4259
682.426
682.4261
682.4262
682.4263
682.4264
682.4265
682.4266
682.4267
682.4268
682.4269
682.427
682.4271
682.4271
682.4272
682.4273
682.4274
682.4275
682.4276
682.4276
682.4277
682.4278
682.4278
682.4279
682.4279
682.428
682.428
682.428
682.428
682.428
682.4279
682.4279
682.4278
682.4277
682.4275
682.4274
682.4272
637.4211
637.4215
637.4222
637.423
637.4238
637.4248
637.4257
637.4265
637.4273
637.4281
637.4288
637.4294
637.4299
637.4304
637.4308
637.4312
637.4315
637.4318
637.4321
637.4323
637.4325
637.4327
637.4329
637.4331
637.4332
637.4333
637.4335
637.4336
637.4337
637.4338
637.4339
637.434
637.4341
637.4342
637.4343
637.4344
637.4345
637.4346
637.4347
637.4348
637.4348
637.4349
637.435
637.4351
637.4352
637.4353
637.4354
637.4355
637.4356
637.4356
637.4357
637.4358
637.4359
637.436
637.4361
637.4362
637.4363
637.4364
637.4364
637.4365
637.4366
637.4367
637.4368
637.4369
637.437
637.4371
637.4371
637.4372
637.4373
637.4374
637.4375
637.4376
637.4377
637.4377
637.4378
637.4379
637.438
637.4381
637.4381
637.4382
637.4383
637.4384
637.4384
637.4385
637.4386
637.4386
637.4387
637.4387
637.4387
637.4387
637.4388
637.4387
637.4387
637.4387
637.4386
637.4386
637.4385
637.4383
637.4382
637.438
592.4327
592.4332
592.4338
592.4346
592.4354
592.4363
592.4371
592.4378
592.4386
592.4392
592.4398
592.4404
592.4408
592.4413
592.4416
592.442
592.4423
592.4425
592.4428
592.443
592.4432
592.4433
592.4435
592.4436
592.4438
592.4439
592.444
592.4441
592.4442
592.4443
592.4444
592.4445
592.4446
592.4447
592.4448
592.4448
592.4449
592.445
592.4451
592.4452
592.4453
592.4453
592.4454
592.4455
592.4456
592.4457
592.4457
592.4458
592.4459
592.446
592.4461
592.4462
592.4462
592.4463
592.4464
592.4465
592.4466
592.4466
592.4467
592.4468
592.4469
592.447
592.447
592.4471
592.4472
592.4473
592.4474
592.4474
592.4475
592.4476
592.4477
592.4477
592.4478
592.4479
592.448
592.4481
592.4481
592.4482
592.4483
592.4483
592.4484
592.4485
592.4485
592.4486
592.4486
592.4487
592.4487
592.4488
592.4488
592.4488
592.4488
592.4488
592.4488
592.4488
592.4487
592.4486
592.4486
592.4484
592.4483
592.4481
547.4434
547.4439
547.4446
547.4454
547.4462
547.447
547.4478
547.4485
547.4491
547.4497
547.4502
547.4507
547.4511
547.4514
547.4518
547.4521
547.4523
547.4526
547.4528
547.453
547.4531
547.4533
547.4534
547.4535
547.4537
547.4538
547.4539
547.454
547.4541
547.4541
547.4542
547.4543
547.4544
547.4545
547.4546
547.4546
547.4547
547.4548
547.4549
547.4549
547.455
547.4551
547.4552
547.4552
547.4553
547.4554
547.4555
547.4555
547.4556
547.4557
547.4557
547.4558
547.4559
547.456
547.456
547.4561
547.4562
547.4563
547.4563
547.4564
547.4565
547.4565
547.4566
547.4567
547.4568
547.4568
547.4569
547.457
547.4571
547.4571
547.4572
547.4573
547.4573
547.4574
547.4575
547.4575
547.4576
547.4577
547.4577
547.4578
547.4579
547.4579
547.458
547.458
547.4581
547.4581
547.4582
547.4582
547.4582
547.4583
547.4583
547.4583
547.4582
547.4582
547.4582
547.4581
547.458
547.4579
547.4578
547.4577
502.4529
502.4536
502.4545
502.4555
502.4564
502.4572
502.4579
502.4585
502.459
502.4595
502.46
502.4604
502.4607
502.461
502.4613
502.4616
502.4618
502.462
502.4622
502.4623
502.4625
502.4626
502.4627
502.4628
502.4629
502.463
502.4631
502.4632
502.4633
502.4634
502.4634
502.4635
502.4636
502.4637
502.4637
502.4638
502.4639
502.4639
502.464
502.4641
502.4641
502.4642
502.4643
502.4643
502.4644
502.4645
502.4645
502.4646
502.4647
502.4647
502.4648
502.4649
502.4649
502.465
502.4651
502.4651
502.4652
502.4653
502.4653
502.4654
502.4655
502.4655
502.4656
502.4657
502.4657
502.4658
502.4659
502.4659
502.466
502.4661
502.4661
502.4662
502.4663
502.4663
502.4664
502.4664
502.4665
502.4666
502.4666
502.4667
502.4667
502.4668
502.4668
502.4669
502.4669
502.467
502.467
502.4671
502.4671
502.4671
502.4671
502.4671
502.4671
502.4671
502.4671
502.467
502.4669
502.4669
502.4668
502.4666
457.4614
457.4624
457.4638
457.465
457.466
457.4668
457.4674
457.468
457.4684
457.4689
457.4692
457.4695
457.4698
457.4701
457.4703
457.4705
457.4707
457.4708
457.471
457.4711
457.4713
457.4714
457.4715
457.4716
457.4716
457.4717
457.4718
457.4719
457.472
457.472
457.4721
457.4722
457.4722
457.4723
457.4724
457.4724
457.4725
457.4725
457.4726
457.4727
457.4727
457.4728
457.4729
457.4729
457.473
457.473
457.4731
457.4732
457.4732
457.4733
457.4733
457.4734
457.4735
457.4735
457.4736
457.4736
457.4737
457.4738
457.4738
457.4739
457.4739
457.474
457.474
457.4741
457.4742
457.4742
457.4743
457.4743
457.4744
457.4745
457.4745
457.4746
457.4746
457.4747
457.4748
457.4748
457.4749
457.4749
457.475
457.475
457.4751
457.4751
457.4752
457.4752
457.4753
457.4753
457.4753
457.4754
457.4754
457.4754
457.4754
457.4755
457.4755
457.4754
457.4754
457.4754
457.4753
457.4753
457.4752
457.4751
412.4683
412.4704
412.4726
412.4742
412.4753
412.476
412.4766
412.477
412.4774
412.4777
412.478
412.4782
412.4784
412.4786
412.4788
412.479
412.4791
412.4792
412.4793
412.4794
412.4795
412.4796
412.4797
412.4798
412.4799
412.48
412.48
412.4801
412.4801
412.4802
412.4803
412.4803
412.4804
412.4804
412.4805
412.4806
412.4806
412.4807
412.4807
412.4808
412.4808
412.4809
412.4809
412.481
412.481
412.4811
412.4812
412.4812
412.4813
412.4813
412.4814
412.4814
412.4815
412.4815
412.4816
412.4816
412.4817
412.4817
412.4818
412.4818
412.4819
412.482
412.482
412.4821
412.4821
412.4822
412.4822
412.4823
412.4823
412.4824
412.4824
412.4825
412.4825
412.4826
412.4826
412.4827
412.4827
412.4828
412.4828
412.4829
412.4829
412.483
412.483
412.4831
412.4831
412.4832
412.4832
412.4832
412.4833
412.4833
412.4833
412.4833
412.4833
412.4833
412.4833
412.4833
412.4833
412.4832
412.4832
412.4831
367.4727
367.4776
367.4816
367.4834
367.4843
367.4849
367.4853
367.4857
367.4859
367.4861
367.4863
367.4865
367.4866
367.4867
367.4869
367.487
367.4871
367.4872
367.4873
367.4873
367.4874
367.4875
367.4875
367.4876
367.4877
367.4877
367.4878
367.4878
367.4879
367.4879
367.488
367.4881
367.4881
367.4882
367.4882
367.4882
367.4883
367.4883
367.4884
367.4884
367.4885
367.4885
367.4886
367.4886
367.4887
367.4887
367.4888
367.4888
367.4889
367.4889
367.489
367.489
367.4891
367.4891
367.4892
367.4892
367.4893
367.4893
367.4893
367.4894
367.4894
367.4895
367.4895
367.4896
367.4896
367.4897
367.4897
367.4898
367.4898
367.4899
367.4899
367.49
367.49
367.4901
367.4901
367.4901
367.4902
367.4902
367.4903
367.4903
367.4904
367.4904
367.4905
367.4905
367.4905
367.4906
367.4906
367.4906
367.4907
367.4907
367.4907
367.4908
367.4908
367.4908
367.4908
367.4908
367.4908
367.4908
367.4907
367.4907
322.4719
322.4851
322.4923
322.4932
322.4933
322.4936
322.4938
322.494
322.4941
322.4942
322.4943
322.4943
322.4944
322.4945
322.4946
322.4946
322.4947
322.4947
322.4948
322.4948
322.4949
322.4949
322.495
322.495
322.4951
322.4951
322.4952
322.4952
322.4953
322.4953
322.4954
322.4954
322.4954
322.4955
322.4955
322.4956
322.4956
322.4956
322.4957
322.4957
322.4958
322.4958
322.4959
322.4959
322.4959
322.496
322.496
322.4961
322.4961
322.4962
322.4962
322.4962
322.4963
322.4963
322.4964
322.4964
322.4964
322.4965
322.4965
322.4966
322.4966
322.4967
322.4967
322.4967
322.4968
322.4968
322.4969
322.4969
322.4969
322.497
322.497
322.4971
322.4971
322.4971
322.4972
322.4972
322.4973
322.4973
322.4973
322.4974
322.4974
322.4975
322.4975
322.4975
322.4976
322.4976
322.4977
322.4977
322.4977
322.4978
322.4978
322.4978
322.4979
322.4979
322.4979
322.4979
322.498
322.498
322.498
322.498
)
;

boundaryField
{
    leftLet
    {
        type            zeroGradient;
    }
    rightLet
    {
        type            zeroGradient;
    }
    frontAndBack
    {
        type            empty;
    }
    wall_to_bottomAir
    {
        type            compressible::turbulentTemperatureCoupledBaffleMixed;
        refValue        nonuniform List<scalar> 
100
(
1199.451
1199.686
1199.763
1199.744
1199.737
1199.739
1199.74
1199.74
1199.74
1199.741
1199.741
1199.741
1199.741
1199.742
1199.742
1199.742
1199.742
1199.743
1199.743
1199.743
1199.743
1199.744
1199.744
1199.744
1199.744
1199.745
1199.745
1199.745
1199.745
1199.746
1199.746
1199.746
1199.746
1199.747
1199.747
1199.747
1199.747
1199.748
1199.748
1199.748
1199.748
1199.749
1199.749
1199.749
1199.749
1199.75
1199.75
1199.75
1199.75
1199.751
1199.751
1199.751
1199.751
1199.752
1199.752
1199.752
1199.752
1199.753
1199.753
1199.753
1199.753
1199.754
1199.754
1199.754
1199.754
1199.755
1199.755
1199.755
1199.755
1199.756
1199.756
1199.756
1199.756
1199.756
1199.757
1199.757
1199.757
1199.757
1199.758
1199.758
1199.758
1199.758
1199.759
1199.759
1199.759
1199.759
1199.76
1199.76
1199.76
1199.76
1199.76
1199.761
1199.761
1199.761
1199.761
1199.761
1199.762
1199.762
1199.762
1199.762
)
;
        refGradient     uniform 0;
        valueFraction   uniform 0.9988347;
        value           nonuniform List<scalar> 
100
(
1199.424
1199.66
1199.737
1199.718
1199.71
1199.713
1199.714
1199.714
1199.714
1199.714
1199.715
1199.715
1199.715
1199.715
1199.716
1199.716
1199.716
1199.716
1199.717
1199.717
1199.717
1199.717
1199.718
1199.718
1199.718
1199.718
1199.719
1199.719
1199.719
1199.719
1199.72
1199.72
1199.72
1199.72
1199.721
1199.721
1199.721
1199.721
1199.722
1199.722
1199.722
1199.722
1199.723
1199.723
1199.723
1199.723
1199.724
1199.724
1199.724
1199.724
1199.725
1199.725
1199.725
1199.725
1199.726
1199.726
1199.726
1199.726
1199.727
1199.727
1199.727
1199.727
1199.728
1199.728
1199.728
1199.728
1199.729
1199.729
1199.729
1199.729
1199.73
1199.73
1199.73
1199.73
1199.73
1199.731
1199.731
1199.731
1199.731
1199.732
1199.732
1199.732
1199.732
1199.733
1199.733
1199.733
1199.733
1199.734
1199.734
1199.734
1199.734
1199.734
1199.735
1199.735
1199.735
1199.735
1199.735
1199.736
1199.736
1199.736
)
;
        Tnbr            T;
        thicknessLayers 0();
        kappaLayers     0();
        kappa           solidThermo;
        kappaName       none;
    }
    wall_to_topAir
    {
        type            compressible::turbulentTemperatureCoupledBaffleMixed;
        refValue        nonuniform List<scalar> 
100
(
299.9382
299.9654
299.9742
299.972
299.9712
299.9715
299.9716
299.9716
299.9717
299.9717
299.9718
299.9718
299.9718
299.9719
299.9719
299.9719
299.972
299.972
299.9721
299.9721
299.9721
299.9722
299.9722
299.9723
299.9723
299.9723
299.9724
299.9724
299.9725
299.9725
299.9725
299.9726
299.9726
299.9727
299.9727
299.9727
299.9728
299.9728
299.9729
299.9729
299.9729
299.973
299.973
299.973
299.9731
299.9731
299.9732
299.9732
299.9732
299.9733
299.9733
299.9734
299.9734
299.9734
299.9735
299.9735
299.9736
299.9736
299.9736
299.9737
299.9737
299.9737
299.9738
299.9738
299.9739
299.9739
299.9739
299.974
299.974
299.9741
299.9741
299.9741
299.9742
299.9742
299.9742
299.9743
299.9743
299.9744
299.9744
299.9744
299.9745
299.9745
299.9745
299.9746
299.9746
299.9747
299.9747
299.9747
299.9748
299.9748
299.9748
299.9749
299.9749
299.975
299.975
299.975
299.9751
299.9751
299.9751
299.9752
)
;
        refGradient     uniform 0;
        valueFraction   nonuniform List<scalar> 
100
(
0.9988347
0.9988347
0.9988347
0.9988347
0.9988347
0.9988347
0.9988347
0.9988347
0.9988347
0.9988347
0.9988347
0.9988347
0.9988347
0.9988347
0.9988347
0.9988347
0.9988347
0.9988347
0.9988347
0.9988347
0.9988347
0.9988347
0.9988347
0.9988347
0.9988347
0.9988347
0.9988347
0.9988347
0.9988347
0.9988347
0.9988347
0.9988347
0.9988347
0.9988347
0.9988347
0.9988347
0.9988347
0.9988347
0.9988347
0.9988347
0.9988347
0.9988347
0.9988347
0.9988347
0.9988347
0.9988347
0.9988347
0.9988347
0.9988347
0.9988347
0.9988347
0.9988347
0.9988347
0.9988347
0.9988347
0.9988347
0.9988347
0.9988347
0.9988347
0.9988347
0.9988347
0.9988347
0.9988347
0.9988347
0.9988347
0.9988347
0.9988347
0.9988347
0.9988347
0.9988347
0.9988347
0.9988347
0.9988347
0.9988347
0.9988347
0.9988347
0.9988347
0.9988347
0.9988347
0.9988347
0.9988347
0.9988347
0.9988347
0.9988347
0.9988347
0.9988347
0.9988347
0.9988347
0.9988347
0.9988347
0.9988347
0.9988347
0.9988347
0.9988347
0.9988347
0.9988347
0.9988347
0.9988347
0.9988347
0.9988347
)
;
        value           nonuniform List<scalar> 
100
(
299.9645
299.9917
300.0004
299.9983
299.9975
299.9977
299.9979
299.9979
299.9979
299.998
299.998
299.998
299.9981
299.9981
299.9982
299.9982
299.9982
299.9983
299.9983
299.9984
299.9984
299.9984
299.9985
299.9985
299.9985
299.9986
299.9986
299.9987
299.9987
299.9987
299.9988
299.9988
299.9989
299.9989
299.9989
299.999
299.999
299.9991
299.9991
299.9991
299.9992
299.9992
299.9993
299.9993
299.9993
299.9994
299.9994
299.9994
299.9995
299.9995
299.9996
299.9996
299.9996
299.9997
299.9997
299.9998
299.9998
299.9998
299.9999
299.9999
300
300
300
300.0001
300.0001
300.0001
300.0002
300.0002
300.0003
300.0003
300.0003
300.0004
300.0004
300.0005
300.0005
300.0005
300.0006
300.0006
300.0006
300.0007
300.0007
300.0008
300.0008
300.0008
300.0009
300.0009
300.0009
300.001
300.001
300.0011
300.0011
300.0011
300.0012
300.0012
300.0012
300.0013
300.0013
300.0013
300.0014
300.0014
)
;
        Tnbr            T;
        thicknessLayers 0();
        kappaLayers     0();
        kappa           solidThermo;
        kappaName       none;
    }
}


// ************************************************************************* //
