/*--------------------------------*- C++ -*----------------------------------*\
| =========                 |                                                 |
| \\      /  F ield         | OpenFOAM: The Open Source CFD Toolbox           |
|  \\    /   O peration     | Version:  2.3.0                                 |
|   \\  /    A nd           | Web:      www.OpenFOAM.org                      |
|    \\/     M anipulation  |                                                 |
\*---------------------------------------------------------------------------*/
FoamFile
{
    version     2.0;
    format      ascii;
    class       volScalarField;
    location    "10";
    object      CH4;
}
// * * * * * * * * * * * * * * * * * * * * * * * * * * * * * * * * * * * * * //

dimensions      [0 0 0 0 0 0 0];

internalField   nonuniform List<scalar> 
26600
(
1.43383e-15
1.76238e-12
4.62353e-11
4.66684e-10
3.53886e-09
2.1347e-08
8.4673e-08
2.41797e-07
5.52803e-07
1.1375e-06
1.91992e-06
3.08111e-06
4.45036e-06
6.06396e-06
7.79546e-06
9.68526e-06
1.16774e-05
1.37845e-05
1.5525e-05
1.73465e-05
1.92051e-05
2.10917e-05
2.29364e-05
2.46336e-05
2.62322e-05
2.78776e-05
2.94421e-05
3.11214e-05
3.26264e-05
3.39466e-05
3.50863e-05
3.6125e-05
3.69814e-05
3.78506e-05
3.84771e-05
3.90339e-05
3.93742e-05
3.97199e-05
3.9948e-05
4.01585e-05
5.77184e-13
3.79827e-11
7.93202e-10
6.62093e-09
4.37235e-08
2.31186e-07
7.69672e-07
1.8392e-06
3.47348e-06
6.22431e-06
8.71273e-06
1.33983e-05
1.7303e-05
2.20205e-05
2.57931e-05
2.99919e-05
3.35624e-05
3.70223e-05
4.08103e-05
4.42002e-05
4.72798e-05
5.01875e-05
5.27486e-05
5.49777e-05
5.69472e-05
5.85008e-05
5.94887e-05
6.02879e-05
6.05484e-05
6.03866e-05
6.00259e-05
5.948e-05
5.86208e-05
5.77378e-05
5.63591e-05
5.52488e-05
5.36497e-05
5.25138e-05
4.97146e-05
4.92053e-05
1.44497e-11
5.11807e-10
7.68307e-09
5.67476e-08
3.00229e-07
1.02751e-06
2.70541e-06
5.88346e-06
1.02989e-05
1.68117e-05
2.39933e-05
3.1784e-05
3.90607e-05
4.58674e-05
5.18203e-05
5.71093e-05
6.18305e-05
6.57189e-05
6.92928e-05
7.20204e-05
7.39627e-05
7.60562e-05
7.64573e-05
7.59196e-05
7.43847e-05
7.23009e-05
7.01045e-05
6.80747e-05
6.56896e-05
6.29145e-05
5.86849e-05
5.48645e-05
5.00802e-05
4.5713e-05
4.08986e-05
3.60097e-05
3.18083e-05
2.78007e-05
2.09242e-05
2.16659e-05
9.84878e-11
2.98296e-09
3.71471e-08
2.33208e-07
1.06267e-06
3.23589e-06
7.23065e-06
1.3603e-05
2.2063e-05
3.184e-05
4.25874e-05
5.30377e-05
6.25144e-05
7.07642e-05
7.75213e-05
8.29083e-05
8.74859e-05
9.03703e-05
9.28442e-05
9.33064e-05
9.23247e-05
9.03629e-05
8.6604e-05
8.15425e-05
7.477e-05
6.81984e-05
6.00425e-05
5.38171e-05
4.5938e-05
3.64441e-05
2.76993e-05
2.14463e-05
1.48708e-05
1.14751e-05
7.24988e-06
7.68941e-06
1.0851e-05
1.49183e-05
1.95749e-05
2.27335e-05
4.9146e-10
1.26174e-08
1.29576e-07
8.23882e-07
3.1054e-06
7.75995e-06
1.53564e-05
2.63756e-05
3.97977e-05
5.36658e-05
6.78474e-05
8.05173e-05
9.14854e-05
9.99605e-05
0.000106006
0.000109789
0.000112903
0.000113037
0.000109865
0.000105847
9.81439e-05
9.16448e-05
7.92534e-05
6.56534e-05
5.38348e-05
4.20061e-05
2.96647e-05
2.91627e-05
2.54085e-05
3.12063e-05
4.16115e-05
6.76915e-05
9.45002e-05
0.000143324
0.000212908
0.000412153
0.000919916
0.00183659
0.00337418
0
2.13903e-09
4.43812e-08
4.5848e-07
2.47359e-06
7.56513e-06
1.65873e-05
2.99073e-05
4.75276e-05
6.6803e-05
8.50966e-05
0.000101953
0.000115472
0.000126291
0.00013252
0.000135234
0.000134793
0.000132355
0.000127357
0.00011222
0.000104862
8.55207e-05
7.20476e-05
4.61813e-05
5.21749e-05
6.58899e-05
0.000103713
0.000220088
0.000513997
0.00110928
0.00220037
0.00399366
0.00746392
0.0104591
0.0148393
0.0189965
0.0248279
0.0322759
0.0422965
0.0480432
0.0602211
8.23409e-09
1.61516e-07
1.47343e-06
6.35677e-06
1.63763e-05
3.24299e-05
5.4178e-05
8.04337e-05
0.000105803
0.000127566
0.000144839
0.000156196
0.000163879
0.000163157
0.000153049
0.000148769
0.000136623
0.000126237
9.26544e-05
0.000117968
0.000108646
0.000220836
0.00055543
0.00159243
0.0037807
0.00768966
0.0147099
0.0231634
0.0290235
0.0373286
0.0439034
0.0563864
0.0638241
0.0826014
0.096195
0.117007
0.142539
0.16303
0.188661
0.177077
2.96109e-08
5.63404e-07
4.12741e-06
1.40299e-05
3.20752e-05
5.86127e-05
9.19388e-05
0.000127901
0.000158058
0.000180519
0.000193094
0.000197757
0.000192277
0.000178519
0.000143037
0.000154699
0.00015541
0.000305685
0.000826534
0.00327213
0.00604363
0.0121225
0.0187885
0.0284778
0.0418784
0.0543593
0.0775655
0.0991657
0.113448
0.13023
0.151788
0.169149
0.200239
0.218445
0.261368
0.288709
0.31007
0.332159
0.354596
0.356962
1.12039e-07
1.76184e-06
9.732e-06
2.77053e-05
5.80412e-05
9.93691e-05
0.000146856
0.000191154
0.000222686
0.000239629
0.000237314
0.00022421
0.000197988
0.000176428
0.000247828
0.00147046
0.00494912
0.0137678
0.0209563
0.0365744
0.045757
0.063126
0.0785795
0.106801
0.129404
0.167834
0.222872
0.243791
0.272925
0.301022
0.320959
0.342476
0.375998
0.436618
0.489668
0.525165
0.548467
0.555388
0.553812
0.541753
3.93896e-07
4.79347e-06
2.02321e-05
5.11376e-05
9.97378e-05
0.000159896
0.000221484
0.000269219
0.000294327
0.000288136
0.000257124
0.000229502
0.000312131
0.00247809
0.00926351
0.027258
0.0466704
0.0725632
0.0821483
0.114874
0.134315
0.167646
0.191247
0.259013
0.305962
0.357588
0.417072
0.48157
0.521791
0.550669
0.58291
0.618845
0.649475
0.676195
0.685407
0.687889
0.685699
0.680347
0.671575
0.654601
1.42213e-06
1.21601e-05
3.99161e-05
9.16112e-05
0.000165491
0.000246393
0.000316617
0.000355162
0.000339269
0.000306532
0.000259936
0.0025291
0.0100057
0.0310814
0.0682126
0.100015
0.126217
0.166248
0.186247
0.243737
0.290941
0.333441
0.425203
0.530499
0.63311
0.690806
0.722784
0.733504
0.73851
0.748706
0.760777
0.770993
0.774456
0.772719
0.768348
0.758964
0.746109
0.732633
0.719671
0.696506
5.85508e-06
2.96349e-05
7.82889e-05
0.000161924
0.000267655
0.000365808
0.000426107
0.000410243
0.000334228
0.00046802
0.00682856
0.0314152
0.0657916
0.110939
0.148867
0.179711
0.254427
0.30088
0.384519
0.493605
0.596808
0.680836
0.755588
0.784639
0.801225
0.822048
0.833143
0.839774
0.841892
0.840288
0.836889
0.831933
0.823017
0.810551
0.796351
0.780166
0.762391
0.744311
0.72478
0.7002
2.28755e-05
6.92113e-05
0.00015347
0.000284059
0.000425621
0.000519386
0.00049945
0.000404235
0.00125956
0.0136542
0.0615544
0.106512
0.144448
0.182657
0.274352
0.367214
0.50758
0.640769
0.732984
0.774729
0.803194
0.83937
0.87096
0.88659
0.899927
0.899415
0.895485
0.888025
0.878019
0.867072
0.854906
0.842047
0.827159
0.81046
0.792161
0.772229
0.750576
0.726067
0.699728
0.668787
6.03483e-05
0.00014998
0.000298229
0.000499912
0.000659528
0.000629663
0.000511196
0.00354149
0.0223009
0.0796773
0.152452
0.18028
0.257593
0.360814
0.51628
0.683924
0.781856
0.803713
0.852756
0.886684
0.919773
0.932821
0.93317
0.929762
0.922985
0.913446
0.903162
0.891285
0.878009
0.863572
0.847983
0.830566
0.811968
0.79196
0.770383
0.747097
0.72192
0.694414
0.664176
0.629519
0.000137006
0.000317667
0.000588523
0.000877287
0.000843848
0.000658681
0.00459195
0.0409004
0.0859703
0.181317
0.233419
0.343965
0.473236
0.654798
0.780449
0.815489
0.860703
0.924023
0.946888
0.95438
0.953673
0.950137
0.943264
0.933146
0.921232
0.908059
0.893237
0.877787
0.861758
0.845016
0.82726
0.808097
0.787503
0.765369
0.741558
0.715935
0.688338
0.658504
0.626
0.58995
0.000309732
0.000699184
0.001197
0.00117303
0.000864326
0.00515991
0.0458942
0.115653
0.182438
0.271418
0.401657
0.563948
0.727805
0.819231
0.848322
0.920146
0.953936
0.967203
0.968283
0.965481
0.95916
0.949016
0.93614
0.921057
0.905472
0.889502
0.872691
0.855191
0.83752
0.8194
0.800227
0.779664
0.757585
0.733883
0.708452
0.681202
0.652041
0.620844
0.587407
0.551442
0.000837841
0.00168394
0.00166915
0.00114157
0.00542482
0.048377
0.138113
0.186042
0.30884
0.485479
0.668166
0.786524
0.825666
0.877141
0.943349
0.969199
0.97754
0.976642
0.97273
0.964189
0.951024
0.93493
0.918224
0.899451
0.882008
0.864477
0.845891
0.826595
0.80801
0.789176
0.76895
0.747224
0.723978
0.699127
0.672601
0.644364
0.614411
0.582754
0.549417
0.514464
0.00273809
0.00262227
0.00164369
0.00436963
0.0531393
0.155791
0.233655
0.385659
0.564738
0.7515
0.790829
0.84397
0.922352
0.962297
0.979137
0.984244
0.983002
0.978088
0.967339
0.951403
0.93362
0.912995
0.894006
0.871379
0.853921
0.835641
0.814901
0.793377
0.774934
0.756135
0.734873
0.712087
0.687962
0.662367
0.635253
0.606634
0.576585
0.545229
0.512742
0.479374
0.00834322
0.00225523
0.00564481
0.0527619
0.191691
0.273048
0.462756
0.651737
0.785325
0.823654
0.895664
0.946086
0.974243
0.985955
0.98909
0.987792
0.982777
0.970385
0.953288
0.931676
0.910725
0.885473
0.866642
0.843069
0.82191
0.801547
0.780789
0.759633
0.738609
0.719798
0.69881
0.675276
0.650647
0.624742
0.59753
0.569073
0.539508
0.509032
0.477905
0.446451
0.0344269
0.0228455
0.0475113
0.226249
0.399439
0.545386
0.758668
0.804941
0.859944
0.933173
0.965943
0.982872
0.991546
0.992703
0.991507
0.986612
0.974992
0.955013
0.933804
0.906595
0.884966
0.858255
0.833851
0.809991
0.787608
0.766214
0.745094
0.723854
0.702268
0.682643
0.661427
0.637756
0.613068
0.587273
0.560396
0.53255
0.503913
0.474722
0.445271
0.415893
0.987941
0.721719
0.705791
0.725312
0.755178
0.805753
0.864151
0.928941
0.962133
0.980775
0.990309
0.995312
0.995743
0.994676
0.990291
0.979203
0.960857
0.93457
0.91139
0.882785
0.853769
0.825708
0.79963
0.775116
0.752121
0.730228
0.708867
0.687573
0.666011
0.645686
0.623972
0.600548
0.576156
0.55082
0.524628
0.49773
0.47033
0.44268
0.415066
0.387804
0.999155
0.977459
0.958203
0.958715
0.963943
0.974194
0.983765
0.990572
0.994794
0.997163
0.998339
0.998165
0.997109
0.993684
0.984309
0.966743
0.94174
0.91682
0.884212
0.851849
0.820761
0.791602
0.764695
0.739777
0.716506
0.694411
0.672971
0.651725
0.630358
0.609489
0.587551
0.564541
0.540683
0.516065
0.49081
0.465088
0.43911
0.413121
0.387388
0.362192
0.999861
0.998447
0.995964
0.995922
0.996238
0.997085
0.997979
0.998582
0.999054
0.999379
0.999293
0.99855
0.995932
0.98943
0.973148
0.953565
0.923506
0.88911
0.853814
0.819422
0.787074
0.757265
0.729999
0.704927
0.681587
0.659476
0.638106
0.617005
0.595856
0.574684
0.552907
0.530397
0.507225
0.483492
0.459331
0.434913
0.410441
0.386141
0.362251
0.339011
0.999963
0.999815
0.99951
0.999378
0.999343
0.999373
0.999503
0.999633
0.999735
0.999702
0.99939
0.997758
0.992081
0.982524
0.9637
0.933743
0.898198
0.860155
0.82269
0.786827
0.753741
0.723646
0.696309
0.67127
0.648007
0.625999
0.604839
0.583998
0.562972
0.541897
0.520456
0.498533
0.476153
0.453405
0.430416
0.407349
0.384388
0.361736
0.339596
0.318172
0.999989
0.999964
0.999914
0.999851
0.999813
0.999817
0.999845
0.999888
0.999874
0.99974
0.998905
0.995435
0.988753
0.973741
0.94689
0.912317
0.872783
0.831342
0.791812
0.754928
0.721525
0.691429
0.664215
0.63934
0.616247
0.594433
0.573838
0.552934
0.532183
0.511418
0.49045
0.469196
0.44767
0.42595
0.404151
0.38242
0.36092
0.339824
0.319308
0.299539
0.999997
0.999991
0.99998
0.999962
0.999943
0.999944
0.999954
0.999949
0.999896
0.999529
0.997654
0.993252
0.982981
0.960415
0.927729
0.888683
0.846329
0.803385
0.761588
0.724331
0.690991
0.661112
0.634144
0.609506
0.586648
0.56537
0.545004
0.52422
0.503786
0.483439
0.463029
0.442494
0.421846
0.401152
0.380515
0.360062
0.339935
0.32028
0.301242
0.282958
0.999999
0.999997
0.999996
0.999992
0.999984
0.999983
0.999981
0.999957
0.99983
0.998957
0.996442
0.989234
0.970426
0.94001
0.902158
0.859986
0.816216
0.773074
0.732369
0.695528
0.662549
0.633023
0.606375
0.581997
0.559605
0.539106
0.518306
0.497933
0.477901
0.458038
0.438229
0.418429
0.398649
0.378947
0.359413
0.340155
0.321291
0.302945
0.285235
0.268272
1
0.999999
0.999999
0.999998
0.999996
0.999994
0.999988
0.999938
0.999625
0.998387
0.993973
0.980709
0.955007
0.919491
0.877882
0.833402
0.788585
0.745238
0.705296
0.669001
0.636487
0.607369
0.581069
0.55699
0.535425
0.51497
0.494201
0.474168
0.45456
0.435205
0.416007
0.396929
0.377982
0.359216
0.340705
0.322541
0.304823
0.28765
0.271121
0.255323
1
1
1
0.999999
0.999998
0.999997
0.999986
0.999906
0.999377
0.997074
0.988904
0.969874
0.939045
0.899752
0.855438
0.809287
0.763749
0.720415
0.680854
0.645009
0.612941
0.584233
0.558304
0.535047
0.513849
0.492815
0.47252
0.452882
0.433709
0.414862
0.39626
0.377871
0.359705
0.341803
0.324225
0.307049
0.290354
0.274223
0.258733
0.243956
1
1
1
1
0.999999
0.999997
0.999974
0.999799
0.998806
0.994506
0.982504
0.958478
0.923931
0.881715
0.835297
0.787838
0.741781
0.699031
0.65915
0.623602
0.591922
0.563591
0.538408
0.515906
0.49397
0.473189
0.453257
0.433998
0.415249
0.396891
0.378852
0.361105
0.343656
0.326537
0.309799
0.293502
0.277713
0.262497
0.247917
0.234028
1
1
1
1
0.999999
0.999995
0.999946
0.999597
0.997723
0.991298
0.975653
0.948079
0.910498
0.865845
0.817646
0.769053
0.722365
0.679308
0.639905
0.60469
0.573349
0.54549
0.521625
0.498257
0.476483
0.455936
0.436311
0.417401
0.399049
0.381146
0.363628
0.346468
0.329666
0.313249
0.297254
0.281732
0.266735
0.252317
0.238525
0.225405
1
1
1
1
0.999999
0.999988
0.999889
0.999233
0.996445
0.988093
0.969497
0.939166
0.899022
0.852237
0.80246
0.752858
0.705627
0.662337
0.623123
0.588163
0.557139
0.530317
0.506438
0.482895
0.461243
0.440906
0.421549
0.402954
0.384965
0.367478
0.350431
0.333796
0.31757
0.301771
0.286429
0.271582
0.257272
0.243542
0.230429
0.217968
1
1
1
1
0.999997
0.999974
0.99979
0.99883
0.995245
0.985325
0.964415
0.931807
0.889451
0.840778
0.789587
0.739098
0.691645
0.647853
0.608664
0.573853
0.543541
0.517771
0.49274
0.46955
0.448084
0.427947
0.408831
0.390516
0.372852
0.355737
0.339108
0.322937
0.307215
0.291953
0.277174
0.262908
0.249188
0.236045
0.223511
0.211611
1
1
1
0.999999
0.999994
0.999951
0.999685
0.998464
0.994237
0.983083
0.960368
0.925863
0.881605
0.831275
0.778817
0.727462
0.679395
0.635529
0.596356
0.561726
0.532524
0.506563
0.481226
0.458183
0.436881
0.416925
0.39802
0.379953
0.362574
0.345783
0.329519
0.313748
0.298459
0.283657
0.269359
0.255586
0.242364
0.229718
0.217671
0.206242
1
1
1
0.999999
0.99999
0.999927
0.999586
0.998151
0.993419
0.981302
0.957224
0.921154
0.875292
0.823534
0.769961
0.717822
0.669271
0.625238
0.585998
0.552034
0.523835
0.496579
0.471552
0.44867
0.427515
0.407717
0.388995
0.37114
0.354006
0.337492
0.321538
0.306106
0.291182
0.276767
0.26287
0.249508
0.2367
0.224465
0.212822
0.201783
1
1
1
0.999998
0.999986
0.999905
0.999502
0.997893
0.992772
0.979926
0.954828
0.917509
0.870331
0.81738
0.762859
0.710054
0.661083
0.616855
0.577569
0.544476
0.516353
0.488638
0.463684
0.440916
0.419881
0.400217
0.381648
0.36397
0.347039
0.330756
0.315057
0.299904
0.28528
0.27118
0.25761
0.244582
0.23211
0.220209
0.208891
0.198167
1
1
1
0.999998
0.999983
0.999886
0.999432
0.997689
0.992278
0.978899
0.953053
0.91478
0.866565
0.812656
0.757367
0.704035
0.654689
0.610249
0.571058
0.538831
0.510251
0.482412
0.457513
0.434832
0.413893
0.394336
0.37589
0.358354
0.341585
0.325485
0.309989
0.295057
0.280668
0.266816
0.253503
0.240736
0.228527
0.216885
0.205822
0.195342
1
1
1
0.999998
0.99998
0.999872
0.99938
0.997539
0.991922
0.978172
0.951804
0.912844
0.863863
0.809235
0.753363
0.699635
0.649994
0.605389
0.566549
0.535141
0.505184
0.477739
0.452952
0.430347
0.409482
0.390006
0.371652
0.354222
0.337575
0.321611
0.306265
0.291496
0.277282
0.263613
0.250488
0.237914
0.225897
0.214446
0.203568
0.193269
1
1
1
0.999997
0.999978
0.999862
0.999345
0.997442
0.991694
0.977713
0.951016
0.911613
0.862133
0.807028
0.750762
0.696732
0.646933
0.602231
0.563698
0.5325
0.502046
0.47469
0.449974
0.427421
0.406607
0.387185
0.368892
0.351532
0.334964
0.31909
0.303843
0.289181
0.27508
0.26153
0.248529
0.236079
0.224188
0.212861
0.202104
0.19192
1
1
1
0.999997
0.999977
0.999858
0.99933
0.997398
0.991593
0.977509
0.950666
0.911064
0.861357
0.806035
0.749588
0.695422
0.645549
0.600807
0.562421
0.531267
0.500654
0.473314
0.448627
0.426099
0.405307
0.38591
0.367645
0.350317
0.333785
0.317951
0.302749
0.288135
0.274086
0.260591
0.247645
0.235252
0.223417
0.212145
0.201443
0.191312
0.0524057
0.0524229
0.0524373
0.0524495
0.0524606
0.0524711
0.0524813
0.0524911
0.0525007
0.0525102
0.0525194
0.0525285
0.0525374
0.0525461
0.0525546
0.0525628
0.0525708
0.0525786
0.0525861
0.0525934
0.0526003
0.052607
0.0526133
0.0526194
0.0526251
0.0526304
0.0526355
0.0526402
0.0526446
0.0526486
0.0526522
0.0526555
0.0526584
0.052661
0.0526632
0.0526651
0.0526665
0.0526676
0.0526683
0.0526687
0.0524042
0.0524221
0.0524363
0.0524487
0.05246
0.0524707
0.0524809
0.0524909
0.0525006
0.0525101
0.0525194
0.0525286
0.0525375
0.0525463
0.0525548
0.0525631
0.0525712
0.052579
0.0525865
0.0525938
0.0526008
0.0526075
0.0526139
0.0526199
0.0526256
0.052631
0.0526361
0.0526408
0.0526452
0.0526492
0.0526529
0.0526562
0.0526591
0.0526617
0.0526639
0.0526658
0.0526672
0.0526683
0.0526691
0.0526694
0.0524035
0.0524208
0.0524355
0.052448
0.0524594
0.0524702
0.0524805
0.0524906
0.0525004
0.05251
0.0525194
0.0525287
0.0525377
0.0525465
0.0525551
0.0525635
0.0525716
0.0525795
0.0525871
0.0525944
0.0526015
0.0526082
0.0526147
0.0526207
0.0526265
0.0526319
0.052637
0.0526418
0.0526462
0.0526502
0.0526539
0.0526573
0.0526602
0.0526628
0.0526651
0.0526669
0.0526684
0.0526695
0.0526702
0.0526706
0.0524024
0.0524201
0.0524348
0.0524474
0.0524588
0.0524697
0.0524801
0.0524903
0.0525002
0.0525099
0.0525194
0.0525288
0.0525379
0.0525468
0.0525555
0.0525639
0.0525721
0.0525801
0.0525878
0.0525952
0.0526023
0.0526091
0.0526155
0.0526217
0.0526275
0.052633
0.0526382
0.052643
0.0526474
0.0526515
0.0526552
0.0526586
0.0526616
0.0526642
0.0526664
0.0526683
0.0526698
0.0526709
0.0526717
0.052672
0.0524016
0.0524192
0.052434
0.0524467
0.0524583
0.0524692
0.0524797
0.05249
0.0525
0.0525098
0.0525194
0.0525289
0.0525381
0.0525471
0.0525559
0.0525644
0.0525727
0.0525808
0.0525885
0.052596
0.0526032
0.05261
0.0526165
0.0526228
0.0526287
0.0526342
0.0526394
0.0526443
0.0526488
0.0526529
0.0526567
0.05266
0.0526631
0.0526657
0.052668
0.0526699
0.0526714
0.0526725
0.0526732
0.0526736
0.0524005
0.0524183
0.0524332
0.052446
0.0524577
0.0524687
0.0524793
0.0524897
0.0524998
0.0525097
0.0525194
0.052529
0.0525383
0.0525474
0.0525563
0.0525649
0.0525733
0.0525815
0.0525893
0.0525969
0.0526041
0.0526111
0.0526177
0.052624
0.0526299
0.0526355
0.0526408
0.0526457
0.0526502
0.0526544
0.0526582
0.0526616
0.0526646
0.0526673
0.0526696
0.0526715
0.052673
0.0526742
0.0526749
0.0526753
0.0523996
0.0524175
0.0524325
0.0524453
0.0524571
0.0524682
0.0524789
0.0524894
0.0524996
0.0525096
0.0525195
0.0525291
0.0525385
0.0525477
0.0525567
0.0525655
0.052574
0.0525822
0.0525901
0.0525978
0.0526051
0.0526121
0.0526188
0.0526252
0.0526312
0.0526369
0.0526422
0.0526471
0.0526517
0.0526559
0.0526597
0.0526632
0.0526663
0.052669
0.0526713
0.0526732
0.0526748
0.0526759
0.0526767
0.052677
0.0523986
0.0524166
0.0524317
0.0524446
0.0524565
0.0524677
0.0524785
0.0524891
0.0524994
0.0525096
0.0525195
0.0525292
0.0525388
0.0525481
0.0525572
0.052566
0.0525746
0.0525829
0.0525909
0.0525987
0.0526061
0.0526132
0.05262
0.0526264
0.0526325
0.0526382
0.0526436
0.0526486
0.0526532
0.0526575
0.0526614
0.0526649
0.052668
0.0526707
0.052673
0.052675
0.0526765
0.0526777
0.0526785
0.0526788
0.0523976
0.0524157
0.0524309
0.0524439
0.0524559
0.0524672
0.0524781
0.0524888
0.0524992
0.0525095
0.0525195
0.0525294
0.052539
0.0525484
0.0525576
0.0525666
0.0525752
0.0525837
0.0525918
0.0525996
0.0526071
0.0526143
0.0526211
0.0526276
0.0526338
0.0526396
0.052645
0.0526501
0.0526548
0.0526591
0.052663
0.0526665
0.0526697
0.0526724
0.0526748
0.0526768
0.0526784
0.0526795
0.0526803
0.0526807
0.0523965
0.0524147
0.05243
0.0524432
0.0524552
0.0524667
0.0524777
0.0524885
0.052499
0.0525094
0.0525195
0.0525295
0.0525392
0.0525488
0.0525581
0.0525671
0.0525759
0.0525844
0.0525926
0.0526005
0.0526081
0.0526153
0.0526223
0.0526289
0.0526351
0.052641
0.0526465
0.0526516
0.0526564
0.0526607
0.0526647
0.0526683
0.0526714
0.0526742
0.0526766
0.0526786
0.0526802
0.0526814
0.0526822
0.0526825
0.0523954
0.0524138
0.0524292
0.0524425
0.0524546
0.0524662
0.0524773
0.0524882
0.0524988
0.0525093
0.0525196
0.0525296
0.0525395
0.0525491
0.0525585
0.0525677
0.0525766
0.0525852
0.0525935
0.0526015
0.0526092
0.0526165
0.0526235
0.0526302
0.0526365
0.0526424
0.052648
0.0526532
0.052658
0.0526624
0.0526664
0.05267
0.0526732
0.052676
0.0526785
0.0526805
0.0526821
0.0526833
0.0526841
0.0526844
0.0523943
0.0524128
0.0524283
0.0524417
0.052454
0.0524656
0.0524769
0.0524879
0.0524986
0.0525092
0.0525196
0.0525298
0.0525397
0.0525495
0.052559
0.0525683
0.0525773
0.052586
0.0525944
0.0526025
0.0526103
0.0526177
0.0526248
0.0526315
0.0526379
0.0526439
0.0526495
0.0526548
0.0526596
0.0526641
0.0526681
0.0526718
0.052675
0.0526779
0.0526803
0.0526824
0.052684
0.0526852
0.052686
0.0526864
0.0523932
0.0524118
0.0524275
0.0524409
0.0524533
0.0524651
0.0524765
0.0524876
0.0524984
0.0525091
0.0525196
0.0525299
0.05254
0.0525499
0.0525595
0.0525689
0.052578
0.0525868
0.0525953
0.0526035
0.0526114
0.0526189
0.052626
0.0526329
0.0526393
0.0526454
0.0526511
0.0526563
0.0526613
0.0526658
0.0526699
0.0526736
0.0526768
0.0526797
0.0526822
0.0526843
0.0526859
0.0526871
0.0526879
0.0526883
0.052392
0.0524108
0.0524266
0.0524402
0.0524526
0.0524645
0.052476
0.0524872
0.0524982
0.052509
0.0525196
0.0525301
0.0525403
0.0525502
0.05256
0.0525695
0.0525787
0.0525876
0.0525962
0.0526045
0.0526125
0.0526201
0.0526273
0.0526342
0.0526407
0.0526469
0.0526526
0.052658
0.0526629
0.0526675
0.0526716
0.0526754
0.0526787
0.0526816
0.0526841
0.0526862
0.0526879
0.0526891
0.0526899
0.0526903
0.0523909
0.0524098
0.0524257
0.0524393
0.0524519
0.0524639
0.0524756
0.0524869
0.052498
0.0525089
0.0525197
0.0525302
0.0525405
0.0525506
0.0525605
0.0525701
0.0525794
0.0525884
0.0525971
0.0526055
0.0526136
0.0526212
0.0526286
0.0526356
0.0526422
0.0526484
0.0526542
0.0526596
0.0526646
0.0526692
0.0526734
0.0526772
0.0526806
0.0526835
0.052686
0.0526881
0.0526898
0.0526911
0.0526919
0.0526923
0.0523897
0.0524087
0.0524247
0.0524385
0.0524512
0.0524634
0.0524751
0.0524866
0.0524978
0.0525088
0.0525197
0.0525303
0.0525408
0.052551
0.052561
0.0525707
0.0525801
0.0525892
0.052598
0.0526065
0.0526146
0.0526224
0.0526299
0.0526369
0.0526436
0.0526499
0.0526558
0.0526613
0.0526663
0.052671
0.0526752
0.0526791
0.0526825
0.0526854
0.052688
0.0526901
0.0526918
0.0526931
0.0526939
0.0526943
0.0523884
0.0524076
0.0524238
0.0524377
0.0524505
0.0524628
0.0524746
0.0524862
0.0524976
0.0525087
0.0525197
0.0525305
0.0525411
0.0525514
0.0525615
0.0525713
0.0525808
0.0525901
0.052599
0.0526076
0.0526158
0.0526237
0.0526312
0.0526384
0.0526451
0.0526515
0.0526574
0.0526629
0.0526681
0.0526728
0.0526771
0.0526809
0.0526844
0.0526874
0.05269
0.0526921
0.0526939
0.0526951
0.052696
0.0526964
0.0523872
0.0524065
0.0524228
0.0524368
0.0524498
0.0524621
0.0524741
0.0524858
0.0524973
0.0525086
0.0525197
0.0525306
0.0525413
0.0525518
0.052562
0.0525719
0.0525816
0.0525909
0.0526
0.0526086
0.052617
0.052625
0.0526326
0.0526398
0.0526466
0.052653
0.052659
0.0526647
0.0526698
0.0526746
0.0526789
0.0526829
0.0526863
0.0526894
0.052692
0.0526942
0.0526959
0.0526972
0.0526981
0.0526984
0.0523859
0.0524054
0.0524218
0.052436
0.052449
0.0524615
0.0524736
0.0524855
0.0524971
0.0525085
0.0525197
0.0525308
0.0525416
0.0525522
0.0525625
0.0525726
0.0525823
0.0525918
0.0526009
0.0526097
0.0526182
0.0526262
0.0526339
0.0526412
0.0526481
0.0526546
0.0526607
0.0526664
0.0526716
0.0526764
0.0526808
0.0526848
0.0526883
0.0526914
0.052694
0.0526962
0.052698
0.0526993
0.0527002
0.0527006
0.0523846
0.0524042
0.0524208
0.0524351
0.0524483
0.0524609
0.0524731
0.0524851
0.0524968
0.0525084
0.0525198
0.0525309
0.0525419
0.0525526
0.052563
0.0525732
0.0525831
0.0525927
0.0526019
0.0526108
0.0526194
0.0526275
0.0526353
0.0526427
0.0526497
0.0526562
0.0526624
0.0526681
0.0526734
0.0526783
0.0526827
0.0526867
0.0526903
0.0526934
0.0526961
0.0526983
0.0527001
0.0527014
0.0527023
0.0527027
0.0523832
0.0524031
0.0524197
0.0524341
0.0524475
0.0524602
0.0524726
0.0524847
0.0524966
0.0525083
0.0525198
0.0525311
0.0525421
0.052553
0.0525636
0.0525739
0.0525839
0.0525936
0.0526029
0.052612
0.0526206
0.0526288
0.0526367
0.0526442
0.0526512
0.0526579
0.0526641
0.0526699
0.0526753
0.0526802
0.0526847
0.0526887
0.0526923
0.0526955
0.0526982
0.0527004
0.0527022
0.0527036
0.0527044
0.0527048
0.0523818
0.0524019
0.0524186
0.0524332
0.0524467
0.0524595
0.052472
0.0524843
0.0524963
0.0525081
0.0525198
0.0525312
0.0525424
0.0525534
0.0525641
0.0525745
0.0525846
0.0525944
0.0526039
0.052613
0.0526218
0.0526301
0.0526381
0.0526457
0.0526528
0.0526595
0.0526658
0.0526717
0.0526771
0.0526821
0.0526866
0.0526907
0.0526944
0.0526976
0.0527003
0.0527026
0.0527044
0.0527057
0.0527066
0.052707
0.0523804
0.0524006
0.0524175
0.0524322
0.0524458
0.0524588
0.0524715
0.0524839
0.052496
0.052508
0.0525198
0.0525313
0.0525427
0.0525538
0.0525646
0.0525752
0.0525854
0.0525953
0.0526049
0.0526141
0.052623
0.0526315
0.0526395
0.0526472
0.0526544
0.0526612
0.0526676
0.0526735
0.052679
0.052684
0.0526886
0.0526928
0.0526964
0.0526997
0.0527024
0.0527047
0.0527066
0.0527079
0.0527088
0.0527092
0.052379
0.0523993
0.0524164
0.0524312
0.052445
0.0524581
0.0524709
0.0524834
0.0524957
0.0525078
0.0525198
0.0525315
0.052543
0.0525542
0.0525652
0.0525759
0.0525862
0.0525963
0.052606
0.0526153
0.0526242
0.0526328
0.052641
0.0526487
0.052656
0.0526629
0.0526694
0.0526754
0.0526809
0.052686
0.0526906
0.0526948
0.0526985
0.0527018
0.0527046
0.0527069
0.0527088
0.0527102
0.0527111
0.0527115
0.0523775
0.052398
0.0524153
0.0524302
0.0524441
0.0524574
0.0524703
0.052483
0.0524954
0.0525077
0.0525198
0.0525316
0.0525432
0.0525546
0.0525657
0.0525765
0.052587
0.0525972
0.052607
0.0526165
0.0526255
0.0526342
0.0526424
0.0526503
0.0526577
0.0526646
0.0526712
0.0526772
0.0526828
0.052688
0.0526927
0.0526969
0.0527007
0.052704
0.0527068
0.0527091
0.052711
0.0527124
0.0527133
0.0527138
0.052376
0.0523967
0.0524141
0.0524292
0.0524432
0.0524566
0.0524697
0.0524825
0.0524951
0.0525075
0.0525197
0.0525317
0.0525435
0.052555
0.0525663
0.0525772
0.0525879
0.0525982
0.0526081
0.0526176
0.0526268
0.0526356
0.0526439
0.0526519
0.0526593
0.0526664
0.052673
0.0526791
0.0526848
0.05269
0.0526948
0.052699
0.0527028
0.0527062
0.052709
0.0527114
0.0527133
0.0527147
0.0527156
0.0527161
0.0523745
0.0523954
0.0524129
0.0524281
0.0524423
0.0524559
0.0524691
0.0524821
0.0524948
0.0525074
0.0525197
0.0525319
0.0525438
0.0525555
0.0525668
0.0525779
0.0525887
0.0525991
0.0526092
0.0526188
0.0526281
0.052637
0.0526454
0.0526535
0.052661
0.0526682
0.0526748
0.052681
0.0526868
0.0526921
0.0526968
0.0527012
0.052705
0.0527084
0.0527113
0.0527137
0.0527156
0.052717
0.052718
0.0527184
0.0523729
0.052394
0.0524116
0.052427
0.0524414
0.0524551
0.0524685
0.0524816
0.0524945
0.0525072
0.0525197
0.052532
0.0525441
0.0525559
0.0525674
0.0525786
0.0525895
0.0526001
0.0526103
0.0526201
0.0526294
0.0526384
0.052647
0.0526551
0.0526627
0.05267
0.0526767
0.052683
0.0526888
0.0526941
0.052699
0.0527033
0.0527072
0.0527106
0.0527135
0.052716
0.0527179
0.0527194
0.0527203
0.0527207
0.0523713
0.0523925
0.0524104
0.0524259
0.0524404
0.0524543
0.0524678
0.0524811
0.0524941
0.052507
0.0525197
0.0525321
0.0525443
0.0525563
0.052568
0.0525793
0.0525904
0.0526011
0.0526114
0.0526213
0.0526308
0.0526399
0.0526485
0.0526567
0.0526645
0.0526718
0.0526786
0.0526849
0.0526908
0.0526962
0.0527011
0.0527055
0.0527095
0.0527129
0.0527159
0.0527183
0.0527203
0.0527217
0.0527227
0.0527231
0.0523696
0.0523911
0.0524091
0.0524248
0.0524394
0.0524534
0.0524671
0.0524806
0.0524938
0.0525068
0.0525196
0.0525323
0.0525446
0.0525567
0.0525686
0.0525801
0.0525912
0.0526021
0.0526125
0.0526225
0.0526321
0.0526413
0.0526501
0.0526584
0.0526662
0.0526736
0.0526805
0.0526869
0.0526929
0.0526983
0.0527033
0.0527078
0.0527117
0.0527152
0.0527182
0.0527207
0.0527227
0.0527241
0.0527251
0.0527256
0.052368
0.0523896
0.0524078
0.0524236
0.0524384
0.0524526
0.0524664
0.05248
0.0524934
0.0525066
0.0525196
0.0525324
0.0525449
0.0525572
0.0525691
0.0525808
0.0525921
0.052603
0.0526136
0.0526238
0.0526335
0.0526428
0.0526517
0.0526601
0.052668
0.0526755
0.0526825
0.052689
0.052695
0.0527005
0.0527055
0.05271
0.052714
0.0527176
0.0527206
0.0527231
0.0527251
0.0527266
0.0527276
0.052728
0.0523662
0.0523881
0.0524064
0.0524224
0.0524374
0.0524517
0.0524657
0.0524795
0.052493
0.0525064
0.0525196
0.0525325
0.0525452
0.0525576
0.0525697
0.0525815
0.052593
0.052604
0.0526146
0.052625
0.0526349
0.0526443
0.0526533
0.0526618
0.0526698
0.0526774
0.0526844
0.052691
0.0526971
0.0527027
0.0527077
0.0527123
0.0527164
0.0527199
0.052723
0.0527255
0.0527275
0.052729
0.05273
0.0527305
0.0523645
0.0523866
0.052405
0.0524212
0.0524363
0.0524508
0.052465
0.0524789
0.0524927
0.0525062
0.0525195
0.0525326
0.0525455
0.052558
0.0525703
0.0525823
0.0525938
0.0526051
0.0526159
0.0526263
0.0526363
0.0526458
0.0526549
0.0526635
0.0526716
0.0526793
0.0526864
0.0526931
0.0526992
0.0527049
0.05271
0.0527146
0.0527187
0.0527223
0.0527254
0.052728
0.05273
0.0527315
0.0527326
0.052733
0.0523627
0.052385
0.0524036
0.05242
0.0524352
0.0524499
0.0524643
0.0524784
0.0524923
0.052506
0.0525194
0.0525327
0.0525457
0.0525585
0.0525709
0.052583
0.0525947
0.0526061
0.0526171
0.0526276
0.0526377
0.0526474
0.0526565
0.0526653
0.0526735
0.0526812
0.0526884
0.0526952
0.0527014
0.0527071
0.0527123
0.052717
0.0527211
0.0527247
0.0527279
0.0527305
0.0527325
0.0527341
0.0527351
0.0527356
0.0523609
0.0523834
0.0524022
0.0524187
0.0524341
0.052449
0.0524635
0.0524778
0.0524918
0.0525057
0.0525194
0.0525328
0.052546
0.0525589
0.0525715
0.0525838
0.0525957
0.0526072
0.0526183
0.0526289
0.0526392
0.0526489
0.0526582
0.052667
0.0526753
0.0526832
0.0526905
0.0526973
0.0527036
0.0527093
0.0527146
0.0527193
0.0527235
0.0527272
0.0527304
0.052733
0.0527351
0.0527366
0.0527377
0.0527381
0.052359
0.0523817
0.0524007
0.0524174
0.052433
0.052448
0.0524627
0.0524772
0.0524914
0.0525055
0.0525193
0.0525329
0.0525463
0.0525594
0.0525721
0.0525845
0.0525966
0.0526082
0.0526195
0.0526303
0.0526406
0.0526505
0.0526599
0.0526688