/*--------------------------------*- C++ -*----------------------------------*\
| =========                 |                                                 |
| \\      /  F ield         | OpenFOAM: The Open Source CFD Toolbox           |
|  \\    /   O peration     | Version:  2.3.0                                 |
|   \\  /    A nd           | Web:      www.OpenFOAM.org                      |
|    \\/     M anipulation  |                                                 |
\*---------------------------------------------------------------------------*/
FoamFile
{
    version     2.0;
    format      ascii;
    class       volScalarField;
    location    "10";
    object      CO2;
}
// * * * * * * * * * * * * * * * * * * * * * * * * * * * * * * * * * * * * * //

dimensions      [0 0 0 0 0 0 0];

internalField   nonuniform List<scalar> 
26600
(
9.1974e-16
5.89592e-13
1.79759e-11
2.63664e-10
2.61994e-09
2.61693e-08
1.42216e-07
5.06743e-07
1.59699e-06
3.83505e-06
9.03189e-06
1.72148e-05
3.17518e-05
5.02045e-05
7.82898e-05
0.000110932
0.000156181
0.00020728
0.000258375
0.000319803
0.000392659
0.000479578
0.000577834
0.000681952
0.000798475
0.00092978
0.00108154
0.00124367
0.00142108
0.0015952
0.00177111
0.00193793
0.00210998
0.00227525
0.00244965
0.002607
0.00276493
0.00291015
0.00307755
0.00328684
1.905e-13
1.26472e-11
3.01328e-10
3.84851e-09
3.26031e-08
2.94167e-07
1.38698e-06
4.09295e-06
1.15772e-05
2.32646e-05
5.44855e-05
9.13589e-05
0.000170742
0.000234445
0.000367951
0.000461516
0.000649567
0.000782893
0.00100652
0.00125052
0.00149842
0.00181125
0.00218755
0.00254592
0.00304338
0.00346349
0.00407837
0.00443211
0.00513634
0.00552713
0.0057486
0.00608386
0.00638691
0.00679513
0.00714705
0.00754206
0.00791301
0.00824187
0.0089205
0.0063199
4.74263e-12
1.81947e-10
3.59039e-09
3.83504e-08
2.9687e-07
1.47334e-06
5.4862e-06
1.61426e-05
4.03392e-05
9.25136e-05
0.000201357
0.000315478
0.000532907
0.000712449
0.00105457
0.00130218
0.00173745
0.0021081
0.00253395
0.00323471
0.00372206
0.0043946
0.00553288
0.00599635
0.00653079
0.00724737
0.00815446
0.00899443
0.00986945
0.0106694
0.0118794
0.0129609
0.0141078
0.0151432
0.016239
0.0174584
0.0182301
0.0193922
0.0204243
0.0212889
3.30632e-11
1.12751e-09
1.97655e-08
1.86363e-07
1.26965e-06
5.62008e-06
1.79346e-05
4.70963e-05
0.000109017
0.000240404
0.000457271
0.000706327
0.00112969
0.0015076
0.0021695
0.00266472
0.00345571
0.00422518
0.00496115
0.00648855
0.00713931
0.00816657
0.00916434
0.010144
0.0117917
0.0135513
0.0154531
0.0170611
0.0189539
0.0209124
0.0221977
0.0236299
0.0254723
0.0269765
0.0301009
0.0320069
0.0339783
0.0359149
0.037754
0.0396819
1.61589e-10
4.92116e-09
7.57797e-08
7.49706e-07
4.28112e-06
1.57945e-05
4.56286e-05
0.000112276
0.000247648
0.000531956
0.000924633
0.00141426
0.00220462
0.00291263
0.00416257
0.00502985
0.00637673
0.0079802
0.00878161
0.0103907
0.012223
0.0137529
0.0161555
0.0190356
0.0209722
0.0232622
0.026405
0.028956
0.0336535
0.0367919
0.0409092
0.04558
0.0507918
0.0565307
0.0625934
0.0686306
0.0743869
0.0795703
0.0862096
0.0747164
6.7455e-10
1.77763e-08
2.88797e-07
2.51125e-06
1.19585e-05
3.97024e-05
0.000107036
0.000250985
0.000530058
0.00110226
0.0017789
0.00272459
0.00416892
0.00545672
0.00787012
0.00924684
0.0104569
0.0129696
0.0154947
0.0179311
0.020981
0.0237744
0.0290483
0.0330118
0.0384025
0.0449143
0.0525194
0.0600667
0.0673284
0.0734296
0.0805338
0.086303
0.0940397
0.102464
0.111717
0.118399
0.124663
0.127695
0.135101
0.135656
2.45354e-09
6.53615e-08
1.01096e-06
7.28706e-06
2.99803e-05
9.2569e-05
0.000237435
0.000538569
0.0011
0.00218417
0.00330885
0.00516583
0.00777908
0.010253
0.0124698
0.0160388
0.0190277
0.0226821
0.0283087
0.0334551
0.0420032
0.0494858
0.0574822
0.0649101
0.0719992
0.0813195
0.0905681
0.102278
0.110421
0.116516
0.122326
0.125904
0.135771
0.143199
0.141455
0.137914
0.133619
0.130152
0.126721
0.128936
8.38862e-09
2.36675e-07
3.12191e-06
1.83114e-05
6.89568e-05
0.000203171
0.000505545
0.00111896
0.00223233
0.00418905
0.00603637
0.00990779
0.0119059
0.0170127
0.022562
0.0287357
0.0366887
0.0462713
0.0565416
0.0652593
0.0844639
0.0863848
0.0959455
0.105611
0.113664
0.120688
0.125642
0.139489
0.138327
0.135875
0.132803
0.130266
0.125377
0.122195
0.115054
0.110594
0.107146
0.103656
0.100336
0.100098
3.01445e-08
7.80959e-07
8.17682e-06
4.1403e-05
0.000148554
0.000427449
0.00104587
0.00227482
0.00448271
0.0078778
0.0109757
0.015413
0.0213382
0.0316699
0.0428604
0.05511
0.0672658
0.0781062
0.0937201
0.1037
0.114468
0.119092
0.136823
0.136762
0.133603
0.128032
0.119708
0.116897
0.112708
0.10847
0.105419
0.102077
0.0967466
0.0870362
0.0786225
0.0730533
0.0694165
0.0683565
0.0686383
0.0705716
9.5923e-08
2.18517e-06
1.87465e-05
8.81421e-05
0.000309045
0.000876986
0.00212649
0.00462836
0.00902872
0.0121904
0.0179816
0.030646
0.0440496
0.0581397
0.0710139
0.0903728
0.108644
0.117762
0.130951
0.134986
0.132707
0.127543
0.123867
0.113563
0.106419
0.0985106
0.0894615
0.0795027
0.0732313
0.0687163
0.0636959
0.0581085
0.0533689
0.049248
0.0478351
0.047475
0.0478397
0.048697
0.0501036
0.0527978
2.78555e-07
5.58643e-06
4.07504e-05
0.000184909
0.000636041
0.00179113
0.00436566
0.00964657
0.0134617
0.0210057
0.038204
0.0552174
0.0711744
0.0958409
0.109416
0.134649
0.132276
0.126451
0.123745
0.115195
0.108066
0.101593
0.0876048
0.071451
0.0554808
0.046499
0.0416191
0.040009
0.0392967
0.0377894
0.0359737
0.0344323
0.033942
0.0342405
0.034944
0.0364322
0.0384573
0.0405754
0.0426136
0.0462411
7.90288e-07
1.38057e-05
8.99804e-05
0.000394095
0.00132706
0.00375227
0.00930437
0.0148523
0.025762
0.0451927
0.0627265
0.0893926
0.110276
0.133403
0.129009
0.1246
0.113246
0.106156
0.0933477
0.0766307
0.060631
0.0476023
0.0362369
0.0318422
0.0293534
0.0262472
0.0246197
0.0236598
0.0234228
0.0237166
0.0242794
0.0250761
0.0264896
0.0284489
0.0306709
0.0331982
0.0359692
0.0387851
0.0418258
0.0456499
2.28664e-06
3.45009e-05
0.000209849
0.000878821
0.0029208
0.00832764
0.0137781
0.0293569
0.0534022
0.0762859
0.0972686
0.13202
0.129563
0.124133
0.110205
0.0959766
0.0743095
0.0535316
0.0392296
0.0329133
0.0286392
0.0232232
0.0185494
0.0162586
0.0143698
0.0145242
0.0151791
0.016377
0.0179676
0.0196928
0.0215993
0.0236049
0.0259261
0.0285255
0.03137
0.0344655
0.037826
0.0416287
0.0457127
0.0505079
6.0161e-06
8.91614e-05
0.000531081
0.00215941
0.00706067
0.0124659
0.0294343
0.0564277
0.0870219
0.110198
0.127528
0.124396
0.112742
0.0969418
0.0728238
0.0463485
0.0312657
0.0280403
0.0207358
0.0158361
0.0109774
0.00921012
0.00925875
0.00984851
0.0109759
0.012513
0.014136
0.0159995
0.0180747
0.0203241
0.0227473
0.025454
0.0283387
0.0314389
0.0347801
0.0383851
0.0422825
0.0465402
0.0512204
0.056584
1.17428e-05
0.000257892
0.00155908
0.00615449
0.011034
0.0280781
0.0592484
0.0904028
0.117824
0.123496
0.116328
0.0995112
0.0794551
0.0505968
0.0309003
0.0256554
0.0190747
0.00987333
0.00671625
0.00588729
0.00611992
0.00674995
0.00788674
0.00951181
0.0114017
0.0134726
0.0157942
0.0181967
0.0206808
0.0232713
0.0260166
0.0289794
0.0321627
0.0355835
0.0392636
0.0432241
0.0474905
0.0521036
0.05713
0.062705
1.81427e-05
0.000917902
0.00570703
0.0104434
0.0273698
0.0603337
0.0913792
0.126628
0.123594
0.110545
0.090517
0.0648581
0.0383907
0.0244568
0.0202723
0.00989094
0.00539905
0.00383567
0.00386788
0.00442247
0.0054867
0.0071244
0.00918877
0.0115586
0.0139868
0.0164627
0.0190632
0.0217646
0.0244894
0.0272825
0.0302381
0.0334091
0.0368151
0.0404729
0.0443989
0.0486072
0.053112
0.0579327
0.0631007
0.0686598
1.40185e-05
0.00437339
0.0109181
0.0257535
0.0597778
0.0902696
0.1282
0.123382
0.104793
0.0771833
0.0472459
0.0286103
0.0228404
0.0155759
0.00642986
0.00322805
0.00244368
0.00272363
0.00343195
0.0048461
0.00697801
0.00950882
0.0121129
0.0150188
0.01771
0.0204088
0.023267
0.0262331
0.0290904
0.031987
0.0350996
0.0384452
0.0420273
0.0458591
0.0499515
0.0543099
0.058935
0.0638247
0.0689752
0.0743757
4.9882e-05
0.00977396
0.0251632
0.0593074
0.0870839
0.125508
0.116081
0.0927778
0.0639405
0.0331293
0.0272163
0.0195428
0.00864865
0.00363295
0.00184997
0.00155762
0.00187486
0.00274241
0.0045401
0.00706368
0.00983759
0.0130264
0.0159527
0.0194297
0.0221087
0.0249123
0.0280927
0.0313947
0.0342255
0.0371132
0.0403822
0.0438885
0.047604
0.0515487
0.0557303
0.0601462
0.0647848
0.0696265
0.0746438
0.0797973
7.47795e-05
0.0333412
0.0621851
0.0875339
0.119494
0.10988
0.0801585
0.0476745
0.0266564
0.0212566
0.0113164
0.00501599
0.00208491
0.0010437
0.000982288
0.00129377
0.00221206
0.00420774
0.0068933
0.0102412
0.0134697
0.0173471
0.0202342
0.0238454
0.0270847
0.0302022
0.0333817
0.036624
0.0398489
0.0427372
0.0459629
0.0495833
0.0533754
0.0573671
0.061563
0.065953
0.0705158
0.0752204
0.0800258
0.0848815
0.000111112
0.0555455
0.0768425
0.111184
0.0887449
0.0639263
0.0281724
0.0217674
0.0149289
0.00589209
0.00242019
0.00101194
0.000535777
0.000578443
0.000868989
0.00176319
0.00362289
0.00672573
0.00999765
0.0141778
0.0174943
0.0215855
0.0253202
0.0289707
0.0323947
0.0356683
0.0389019
0.0421564
0.0454673
0.0484803
0.0517408
0.0553823
0.0591834
0.0631579
0.0673016
0.0715968
0.0760153
0.0805201
0.0850651
0.089598
4.96154e-05
0.0150092
0.016637
0.0177092
0.0172771
0.0143957
0.0106089
0.00464892
0.00207518
0.000887777
0.000388503
0.000235431
0.00030848
0.000540381
0.0013084
0.00306068
0.00589898
0.00994154
0.013498
0.0178817
0.0223246
0.0266189
0.030608
0.0343574
0.0378747
0.0412248
0.0444957
0.0477592
0.0510669
0.0541879
0.0575256
0.0611295
0.0648853
0.068789
0.0728268
0.076975
0.0812016
0.0854672
0.0897268
0.0939309
7.01014e-06
0.0011505
0.00226628
0.00225819
0.00195669
0.00135367
0.000797076
0.000436159
0.000233801
0.000124322
8.97543e-05
0.000138824
0.000311988
0.00087658
0.00233634
0.00504374
0.00888186
0.0127039
0.0177008
0.0226571
0.027416
0.0318779
0.0359942
0.0398059
0.0433667
0.0467489
0.050033
0.0532904
0.0565693
0.059775
0.063148
0.0666888
0.0703626
0.0741557
0.0780486
0.0820147
0.0860208
0.0900285
0.093996
0.0978796
2.23958e-06
7.2879e-05
0.000209331
0.000213482
0.000196833
0.000151529
0.000104404
7.28715e-05
4.67874e-05
3.61785e-05
5.64119e-05
0.000172138
0.000584421
0.00158888
0.0040899
0.00709432
0.0117032
0.016975
0.0223826
0.0276495
0.0326019
0.0371643
0.0413369
0.0451739
0.0487467
0.0521331
0.0554083
0.0586448
0.0618918
0.0651451
0.0684943
0.0719587
0.0755271
0.0791837
0.0829075
0.0866715
0.090444
0.0941895
0.0978711
0.101452
7.53306e-07
7.6422e-06
2.38483e-05
3.11006e-05
3.3103e-05
3.14875e-05
2.49815e-05
1.77377e-05
1.49353e-05
2.33667e-05
7.28595e-05
0.000328011
0.00120124
0.00266786
0.00555466
0.010148
0.015597
0.0214276
0.027168
0.0326616
0.0377281
0.0423359
0.0465212
0.050355
0.0539181
0.0572906
0.0605353
0.0637337
0.0669631
0.0702025
0.0735008
0.0768753
0.0803217
0.0838263
0.0873686
0.0909234
0.0944615
0.0979516
0.101362
0.104661
2.40498e-07
1.28517e-06
3.78411e-06
7.05641e-06
9.08337e-06
8.91382e-06
7.28112e-06
5.93778e-06
9.12506e-06
3.03836e-05
0.000160757
0.000694475
0.00171971
0.00402199
0.00813947
0.0134406
0.0195015
0.025854
0.0319121
0.0375633
0.0426802
0.0472899
0.0514581
0.0552688
0.0588079
0.0621524
0.0653122
0.0685217
0.0717101
0.0749029
0.0781289
0.0814007
0.0847154
0.0880611
0.0914192
0.0947669
0.0980787
0.101327
0.104486
0.107529
7.40994e-08
2.9351e-07
7.58517e-07
1.64302e-06
2.60687e-06
2.58752e-06
2.27754e-06
3.47761e-06
1.16632e-05
6.89097e-05
0.000357215
0.00103267
0.00260801
0.00606913
0.0110819
0.0170693
0.0235634
0.030147
0.036554
0.0422638
0.0473727
0.0519509
0.0560832
0.0598596
0.0633643
0.0666285
0.0697546
0.072947
0.0760878
0.0792169
0.0823574
0.0855185
0.0886977
0.0918846
0.0950627
0.0982124
0.101312
0.104337
0.107267
0.110081
2.34091e-08
7.82533e-08
1.45844e-07
3.13625e-07
6.71373e-07
7.51939e-07
1.14887e-06
4.83178e-06
2.45865e-05
0.000158759
0.000544576
0.0016503
0.00453553
0.00920104
0.0150067
0.021474
0.0281858
0.0348005
0.041041
0.0466884
0.0517432
0.056269
0.0603542
0.0640923
0.0675273
0.0706733
0.0738674
0.0769977
0.0800774
0.0831326
0.0861806
0.0892284
0.0922735
0.0953068
0.0983142
0.101279
0.104182
0.107006
0.109731
0.11234
8.49405e-09
2.17657e-08
3.22745e-08
7.49631e-08
1.71061e-07
2.86586e-07
1.18425e-06
8.94894e-06
5.70115e-05
0.00024684
0.000923969
0.00295889
0.0069018
0.0123498
0.0187319
0.0255539
0.0324269
0.039074
0.0451983
0.0507631
0.0557483
0.0602129
0.0642462
0.0679401
0.0712495
0.0743901
0.0775805
0.0806593
0.0836744
0.0866516
0.0896056
0.0925419
0.0954581
0.0983467
0.101196
0.103991
0.106718
0.109359
0.111902
0.114331
3.8219e-09
6.9966e-09
1.08888e-08
2.56792e-08
6.34013e-08
2.40017e-07
1.91036e-06
1.41979e-05
9.52789e-05
0.00044864
0.00170199
0.00462154
0.00935105
0.0153786
0.022176
0.0292548
0.036239
0.0428849
0.0489518
0.0544488
0.0593667
0.06377
0.0677478
0.0713167
0.074571
0.0778015
0.0809198
0.0839385
0.086887
0.0897861
0.0926483
0.095478
0.0982736
0.101029
0.103733
0.106376
0.108944
0.111425
0.113807
0.116079
9.67291e-10
2.37821e-09
4.53692e-09
1.14724e-08
4.81336e-08
3.60025e-07
3.85396e-06
3.076e-05
0.000183133
0.000842848
0.00268415
0.00637013
0.01167
0.0181463
0.0252668
0.0325466
0.0396112
0.0461681
0.0522851
0.0577375
0.0625971
0.0669436
0.0708082
0.0742624
0.0776309
0.0808234
0.0838865
0.0868474
0.0897308
0.0925547
0.0953298
0.0980603
0.100745
0.103379
0.105954
0.10846
0.110889
0.113229
0.11547
0.117605
2.14739e-10
7.16326e-10
1.88002e-09
7.70856e-09
7.2704e-08
7.91648e-07
8.29653e-06
6.17649e-05
0.000349367
0.00133504
0.00373527
0.00796563
0.0137311
0.0205814
0.0279755
0.0354297
0.0425916
0.0491965
0.055241
0.0606433
0.0654519
0.0697271
0.0733902
0.0769782
0.0803226
0.0834797
0.0864962
0.0894037
0.092226
0.0949796
0.0976743
0.100314
0.102899
0.105424
0.107884
0.110271
0.112577
0.114794
0.116914
0.118931
6.8499e-11
2.40133e-10
1.10876e-09
1.21906e-08
1.60549e-07
1.83525e-06
1.69573e-05
0.000117649
0.000545451
0.0018268
0.00467974
0.00933319
0.015492
0.0226696
0.030306
0.0379154
0.0451612
0.0518025
0.0578188
0.0631828
0.0679437
0.0720605
0.0757267
0.0793423
0.0826685
0.0857938
0.0887692
0.0916284
0.0943948
0.0970843
0.0997062
0.102265
0.10476
0.10719
0.10955
0.111832
0.114032
0.116143
0.118159
0.120074
5.10171e-11
3.03968e-10
2.67126e-09
3.83486e-08
4.0244e-07
3.9986e-06
3.22209e-05
0.000179437
0.000729566
0.00225152
0.00545959
0.0104623
0.0169605
0.024428
0.0322815
0.0400276
0.0473079
0.0540269
0.0600399
0.0653819
0.0700342
0.0739903
0.0778338
0.0813958
0.0846939
0.0877887
0.0907275
0.0935434
0.0962597
0.0988919
0.101449
0.103936
0.106354
0.108701
0.110973
0.113166
0.115275
0.117296
0.119222
0.121051
8.34108e-11
7.41147e-10
7.88996e-09
9.43714e-08
8.64027e-07
7.50033e-06
4.84007e-05
0.000235607
0.000884155
0.00259546
0.00608046
0.0113744
0.0181645
0.0258864
0.0339347
0.0418138
0.0491888
0.0559195
0.0619308
0.0672456
0.0717282
0.0757141
0.0796052
0.083145
0.0864183
0.0894855
0.0923917
0.0951697
0.097842
0.100424
0.102925
0.10535
0.107701
0.109977
0.112175
0.114292
0.116325
0.118268
0.120119
0.121876
1.45864e-10
1.44528e-09
1.59173e-08
1.72747e-07
1.49428e-06
1.11673e-05
6.34485e-05
0.000283694
0.00100967
0.00286872
0.00656292
0.012097
0.0191333
0.0270743
0.0352939
0.0432938
0.0507434
0.0575003
0.0635221
0.0687353
0.0730644
0.0772496
0.0810934
0.0846088
0.0878599
0.0909028
0.093781
0.0965263
0.0991609
0.1017
0.104153
0.106526
0.108821
0.111037
0.113173
0.115227
0.117195
0.119075
0.120865
0.122561
2.18759e-10
2.24104e-09
2.51161e-08
2.49813e-07
2.1174e-06
1.45537e-05
7.64804e-05
0.000323302
0.00110893
0.00307983
0.00693051
0.0126561
0.0198946
0.0280188
0.036384
0.0444863
0.0520008
0.0587878
0.0648173
0.0698971
0.0742148
0.0784709
0.0823039
0.0858021
0.0890348
0.0920573
0.0949119
0.0976298
0.100233
0.102737
0.10515
0.10748
0.109728
0.111896
0.113982
0.115984
0.117901
0.11973
0.121469
0.123116
2.86751e-10
2.96447e-09
3.28446e-08
3.19312e-07
2.66951e-06
1.74286e-05
8.7126e-05
0.000354545
0.00118477
0.00323744
0.00720284
0.013075
0.0204726
0.0287439
0.0372271
0.0454104
0.0529826
0.0598026
0.0658179
0.070765
0.0751531
0.0794285
0.0832534
0.0867384
0.0899563
0.0929624
0.0957982
0.0984942
0.101072
0.103548
0.10593
0.108226
0.110438
0.112567
0.114613
0.116575
0.118451
0.12024
0.12194
0.12355
3.39977e-10
3.49704e-09
3.82112e-08
3.72012e-07
3.10134e-06
1.96438e-05
9.51564e-05
0.00037758
0.0012394
0.00334892
0.00739449
0.0133721
0.0208871
0.0292689
0.0378417
0.0460859
0.0537036
0.0605492
0.0665108
0.0713323
0.0759322
0.0801473
0.0839551
0.0874285
0.0906352
0.0936288
0.0964504
0.0991301
0.10169
0.104144
0.106503
0.108773
0.110958
0.113059
0.115077
0.117009
0.118856
0.120615
0.122287
0.123869
3.74447e-10
3.81856e-09
4.14455e-08
4.05883e-07
3.38909e-06
2.11158e-05
0.000100435
0.000392521
0.00127435
0.00341942
0.00751551
0.0135609
0.0211527
0.0296077
0.038241
0.0465318
0.0541738
0.0610342
0.0669489
0.0717384
0.0764147
0.0806163
0.0844133
0.0878786
0.0910776
0.094063
0.0968752
0.0995441
0.102091
0.104532
0.106876
0.10913
0.111297
0.11338
0.115378
0.117291
0.119118
0.120859
0.122512
0.124076
3.89419e-10
3.95819e-09
4.28557e-08
4.21087e-07
3.5194e-06
2.17806e-05
0.000102814
0.00039921
0.00128988
0.00345064
0.00756921
0.0136451
0.0212718
0.0297601
0.0384213
0.0467328
0.0543862
0.0612531
0.0671452
0.071928
0.0766287
0.0808278
0.0846204
0.0880821
0.0912776
0.0942592
0.0970671
0.0997311
0.102273
0.104707
0.107044
0.10929
0.11145
0.113524
0.115514
0.117418
0.119237
0.120969
0.122613
0.124169
0.14556
0.145557
0.145555
0.145553
0.145551
0.145549
0.145547
0.145545
0.145544
0.145542
0.14554
0.145539
0.145537
0.145536
0.145534
0.145533
0.145531
0.14553
0.145529
0.145527
0.145526
0.145525
0.145524
0.145523
0.145522
0.145521
0.14552
0.145519
0.145518
0.145518
0.145517
0.145517
0.145516
0.145516
0.145515
0.145515
0.145515
0.145514
0.145514
0.145514
0.145561
0.145557
0.145555
0.145553
0.145551
0.145549
0.145547
0.145545
0.145544
0.145542
0.14554
0.145539
0.145537
0.145536
0.145534
0.145533
0.145531
0.14553
0.145529
0.145527
0.145526
0.145525
0.145524
0.145523
0.145522
0.145521
0.14552
0.145519
0.145518
0.145518
0.145517
0.145516
0.145516
0.145515
0.145515
0.145515
0.145514
0.145514
0.145514
0.145514
0.145561
0.145558
0.145555
0.145553
0.145551
0.145549
0.145547
0.145545
0.145544
0.145542
0.14554
0.145539
0.145537
0.145536
0.145534
0.145533
0.145531
0.14553
0.145528
0.145527
0.145526
0.145525
0.145524
0.145523
0.145522
0.145521
0.14552
0.145519
0.145518
0.145517
0.145517
0.145516
0.145516
0.145515
0.145515
0.145515
0.145514
0.145514
0.145514
0.145514
0.145561
0.145558
0.145555
0.145553
0.145551
0.145549
0.145547
0.145545
0.145544
0.145542
0.14554
0.145539
0.145537
0.145535
0.145534
0.145532
0.145531
0.14553
0.145528
0.145527
0.145526
0.145525
0.145523
0.145522
0.145521
0.14552
0.14552
0.145519
0.145518
0.145517
0.145517
0.145516
0.145515
0.145515
0.145515
0.145514
0.145514
0.145514
0.145514
0.145514
0.145561
0.145558
0.145555
0.145553
0.145551
0.145549
0.145547
0.145545
0.145544
0.145542
0.14554
0.145539
0.145537
0.145535
0.145534
0.145532
0.145531
0.14553
0.145528
0.145527
0.145526
0.145524
0.145523
0.145522
0.145521
0.14552
0.145519
0.145518
0.145518
0.145517
0.145516
0.145516
0.145515
0.145515
0.145514
0.145514
0.145514
0.145514
0.145513
0.145513
0.145561
0.145558
0.145555
0.145553
0.145551
0.145549
0.145547
0.145545
0.145544
0.145542
0.14554
0.145539
0.145537
0.145535
0.145534
0.145532
0.145531
0.145529
0.145528
0.145527
0.145525
0.145524
0.145523
0.145522
0.145521
0.14552
0.145519
0.145518
0.145517
0.145517
0.145516
0.145515
0.145515
0.145514
0.145514
0.145514
0.145513
0.145513
0.145513
0.145513
0.145561
0.145558
0.145555
0.145553
0.145551
0.145549
0.145547
0.145545
0.145544
0.145542
0.14554
0.145539
0.145537
0.145535
0.145534
0.145532
0.145531
0.145529
0.145528
0.145527
0.145525
0.145524
0.145523
0.145522
0.145521
0.14552
0.145519
0.145518
0.145517
0.145516
0.145516
0.145515
0.145515
0.145514
0.145514
0.145513
0.145513
0.145513
0.145513
0.145513
0.145561
0.145558
0.145556
0.145553
0.145551
0.145549
0.145547
0.145546
0.145544
0.145542
0.14554
0.145538
0.145537
0.145535
0.145534
0.145532
0.145531
0.145529
0.145528
0.145526
0.145525
0.145524
0.145523
0.145522
0.14552
0.145519
0.145519
0.145518
0.145517
0.145516
0.145515
0.145515
0.145514
0.145514
0.145513
0.145513
0.145513
0.145513
0.145512
0.145512
0.145562
0.145558
0.145556
0.145553
0.145551
0.145549
0.145547
0.145546
0.145544
0.145542
0.14554
0.145538
0.145537
0.145535
0.145534
0.145532
0.14553
0.145529
0.145528
0.145526
0.145525
0.145524
0.145522
0.145521
0.14552
0.145519
0.145518
0.145517
0.145517
0.145516
0.145515
0.145514
0.145514
0.145513
0.145513
0.145513
0.145512
0.145512
0.145512
0.145512
0.145562
0.145559
0.145556
0.145554
0.145551
0.145549
0.145547
0.145546
0.145544
0.145542
0.14554
0.145538
0.145537
0.145535
0.145533
0.145532
0.14553
0.145529
0.145527
0.145526
0.145525
0.145523
0.145522
0.145521
0.14552
0.145519
0.145518
0.145517
0.145516
0.145515
0.145515
0.145514
0.145514
0.145513
0.145513
0.145512
0.145512
0.145512
0.145512
0.145512
0.145562
0.145559
0.145556
0.145554
0.145552
0.145549
0.145548
0.145546
0.145544
0.145542
0.14554
0.145538
0.145537
0.145535
0.145533
0.145532
0.14553
0.145529
0.145527
0.145526
0.145524
0.145523
0.145522
0.145521
0.14552
0.145519
0.145518
0.145517
0.145516
0.145515
0.145514
0.145514
0.145513
0.145513
0.145512
0.145512
0.145512
0.145512
0.145511
0.145511
0.145562
0.145559
0.145556
0.145554
0.145552
0.14555
0.145548
0.145546
0.145544
0.145542
0.14554
0.145538
0.145537
0.145535
0.145533
0.145532
0.14553
0.145529
0.145527
0.145526
0.145524
0.145523
0.145522
0.145521
0.145519
0.145518
0.145517
0.145517
0.145516
0.145515
0.145514
0.145514
0.145513
0.145512
0.145512
0.145512
0.145511
0.145511
0.145511
0.145511
0.145562
0.145559
0.145556
0.145554
0.145552
0.14555
0.145548
0.145546
0.145544
0.145542
0.14554
0.145538
0.145537
0.145535
0.145533
0.145531
0.14553
0.145528
0.145527
0.145525
0.145524
0.145523
0.145522
0.14552
0.145519
0.145518
0.145517
0.145516
0.145515
0.145515
0.145514
0.145513
0.145513
0.145512
0.145512
0.145511
0.145511
0.145511
0.145511
0.145511
0.145563
0.145559
0.145556
0.145554
0.145552
0.14555
0.145548
0.145546
0.145544
0.145542
0.14554
0.145538
0.145536
0.145535
0.145533
0.145531
0.14553
0.145528
0.145527
0.145525
0.145524
0.145523
0.145521
0.14552
0.145519
0.145518
0.145517
0.145516
0.145515
0.145514
0.145514
0.145513
0.145512
0.145512
0.145511
0.145511
0.145511
0.14551
0.14551
0.14551
0.145563
0.145559
0.145557
0.145554
0.145552
0.14555
0.145548
0.145546
0.145544
0.145542
0.14554
0.145538
0.145536
0.145535
0.145533
0.145531
0.14553
0.145528
0.145527
0.145525
0.145524
0.145522
0.145521
0.14552
0.145519
0.145518
0.145517
0.145516
0.145515
0.145514
0.145513
0.145513
0.145512
0.145511
0.145511
0.145511
0.14551
0.14551
0.14551
0.14551
0.145563
0.14556
0.145557
0.145554
0.145552
0.14555
0.145548
0.145546
0.145544
0.145542
0.14554
0.145538
0.145536
0.145535
0.145533
0.145531
0.145529
0.145528
0.145526
0.145525
0.145523
0.145522
0.145521
0.14552
0.145518
0.145517
0.145516
0.145515
0.145514
0.145514
0.145513
0.145512
0.145512
0.145511
0.145511
0.14551
0.14551
0.14551
0.14551
0.14551
0.145563
0.14556
0.145557
0.145554
0.145552
0.14555
0.145548
0.145546
0.145544
0.145542
0.14554
0.145538
0.145536
0.145534
0.145533
0.145531
0.145529
0.145528
0.145526
0.145525
0.145523
0.145522
0.145521
0.145519
0.145518
0.145517
0.145516
0.145515
0.145514
0.145513
0.145513
0.145512
0.145511
0.145511
0.14551
0.14551
0.14551
0.145509
0.145509
0.145509
0.145563
0.14556
0.145557
0.145555
0.145552
0.14555
0.145548
0.145546
0.145544
0.145542
0.14554
0.145538
0.145536
0.145534
0.145533
0.145531
0.145529
0.145528
0.145526
0.145524
0.145523
0.145522
0.14552
0.145519
0.145518
0.145517
0.145516
0.145515
0.145514
0.145513
0.145512
0.145512
0.145511
0.14551
0.14551
0.14551
0.145509
0.145509
0.145509
0.145509
0.145563
0.14556
0.145557
0.145555
0.145552
0.14555
0.145548
0.145546
0.145544
0.145542
0.14554
0.145538
0.145536
0.145534
0.145533
0.145531
0.145529
0.145527
0.145526
0.145524
0.145523
0.145521
0.14552
0.145519
0.145518
0.145516
0.145515
0.145514
0.145513
0.145513
0.145512
0.145511
0.145511
0.14551
0.14551
0.145509
0.145509
0.145509
0.145508
0.145508
0.145564
0.14556
0.145557
0.145555
0.145552
0.14555
0.145548
0.145546
0.145544
0.145542
0.14554
0.145538
0.145536
0.145534
0.145532
0.145531
0.145529
0.145527
0.145526
0.145524
0.145523
0.145521
0.14552
0.145518
0.145517
0.145516
0.145515
0.145514
0.145513
0.145512
0.145512
0.145511
0.14551
0.14551
0.145509
0.145509
0.145508
0.145508
0.145508
0.145508
0.145564
0.14556
0.145557
0.145555
0.145553
0.14555
0.145548
0.145546
0.145544
0.145542
0.14554
0.145538
0.145536
0.145534
0.145532
0.14553
0.145529
0.145527
0.145525
0.145524
0.145522
0.145521
0.14552
0.145518
0.145517
0.145516
0.145515
0.145514
0.145513
0.145512
0.145511
0.14551
0.14551
0.145509
0.145509
0.145508
0.145508
0.145508
0.145508
0.145508
0.145564
0.145561
0.145558
0.145555
0.145553
0.14555
0.145548
0.145546
0.145544
0.145542
0.14554
0.145538
0.145536
0.145534
0.145532
0.14553
0.145529
0.145527
0.145525
0.145524
0.145522
0.145521
0.145519
0.145518
0.145517
0.145516
0.145514
0.145513
0.145512
0.145512
0.145511
0.14551
0.145509
0.145509
0.145508
0.145508
0.145508
0.145507
0.145507
0.145507
0.145564
0.145561
0.145558
0.145555
0.145553
0.145551
0.145548
0.145546
0.145544
0.145542
0.14554
0.145538
0.145536
0.145534
0.145532
0.14553
0.145528
0.145527
0.145525
0.145523
0.145522
0.14552
0.145519
0.145518
0.145516
0.145515
0.145514
0.145513
0.145512
0.145511
0.14551
0.14551
0.145509
0.145509
0.145508
0.145508
0.145507
0.145507
0.145507
0.145507
0.145565
0.145561
0.145558
0.145555
0.145553
0.145551
0.145548
0.145546
0.145544
0.145542
0.14554
0.145538
0.145536
0.145534
0.145532
0.14553
0.145528
0.145527
0.145525
0.145523
0.145522
0.14552
0.145519
0.145517
0.145516
0.145515
0.145514
0.145513
0.145512
0.145511
0.14551
0.145509
0.145509
0.145508
0.145508
0.145507
0.145507
0.145507
0.145507
0.145506
0.145565
0.145561
0.145558
0.145556
0.145553
0.145551
0.145549
0.145546
0.145544
0.145542
0.14554
0.145538
0.145536
0.145534
0.145532
0.14553
0.145528
0.145526
0.145525
0.145523
0.145521
0.14552
0.145518
0.145517
0.145516
0.145515
0.145513
0.145512
0.145511
0.145511
0.14551
0.145509
0.145508
0.145508
0.145507
0.145507
0.145507
0.145506
0.145506
0.145506
0.145565
0.145561
0.145558
0.145556
0.145553
0.145551
0.145549
0.145546
0.145544
0.145542
0.14554
0.145538
0.145536
0.145534
0.145532
0.14553
0.145528
0.145526
0.145524
0.145523
0.145521
0.14552
0.145518
0.145517
0.145516
0.145514
0.145513
0.145512
0.145511
0.14551
0.145509
0.145509
0.145508
0.145507
0.145507
0.145506
0.145506
0.145506
0.145506
0.145506
0.145565
0.145562
0.145559
0.145556
0.145553
0.145551
0.145549
0.145546
0.145544
0.145542
0.14554
0.145538
0.145536
0.145534
0.145532
0.14553
0.145528
0.145526
0.145524
0.145523
0.145521
0.145519
0.145518
0.145517
0.145515
0.145514
0.145513
0.145512
0.145511
0.14551
0.145509
0.145508
0.145508
0.145507
0.145506
0.145506
0.145506
0.145505
0.145505
0.145505
0.145566
0.145562
0.145559
0.145556
0.145554
0.145551
0.145549
0.145547
0.145544
0.145542
0.14554
0.145538
0.145536
0.145534
0.145532
0.14553
0.145528
0.145526
0.145524
0.145522
0.145521
0.145519
0.145518
0.145516
0.145515
0.145514
0.145512
0.145511
0.14551
0.145509
0.145509
0.145508
0.145507
0.145507
0.145506
0.145506
0.145505
0.145505
0.145505
0.145505
0.145566
0.145562
0.145559
0.145556
0.145554
0.145551
0.145549
0.145547
0.145544
0.145542
0.14554
0.145538
0.145536
0.145533
0.145531
0.145529
0.145527
0.145526
0.145524
0.145522
0.14552
0.145519
0.145517
0.145516
0.145515
0.145513
0.145512
0.145511
0.14551
0.145509
0.145508
0.145507
0.145507
0.145506
0.145506
0.145505
0.145505
0.145505
0.145504
0.145504
0.145566
0.145562
0.145559
0.145556
0.145554
0.145551
0.145549
0.145547
0.145544
0.145542
0.14554
0.145538
0.145535
0.145533
0.145531
0.145529
0.145527
0.145525
0.145524
0.145522
0.14552
0.145519
0.145517
0.145516
0.145514
0.145513
0.145512
0.145511
0.14551
0.145509
0.145508
0.145507
0.145506
0.145506
0.145505
0.145505
0.145504
0.145504
0.145504
0.145504
0.145566
0.145563
0.145559
0.145557
0.145554
0.145552
0.145549
0.145547
0.145544
0.145542
0.14554
0.145538
0.145535
0.145533
0.145531
0.145529
0.145527
0.145525
0.145523
0.145522
0.14552
0.145518
0.145517
0.145515
0.145514
0.145513
0.145511
0.14551
0.145509
0.145508
0.145507
0.145507
0.145506
0.145505
0.145505
0.145504
0.145504
0.145504
0.145504
0.145503
0.145567
0.145563
0.14556
0.145557
0.145554
0.145552
0.145549
0.145547
0.145544
0.145542
0.14554
0.145538
0.145535
0.145533
0.145531
0.145529
0.145527
0.145525
0.145523
0.145521
0.14552
0.145518
0.145516
0.145515
0.145514
0.145512
0.145511
0.14551
0.145509
0.145508
0.145507
0.145506
0.145505
0.145505
0.145504
0.145504
0.145504
0.145503
0.145503
0.145503
0.145567
0.145563
0.14556
0.145557
0.145554
0.145552
0.145549
0.145547
0.145544
0.145542
0.14554
0.145538
0.145535
0.145533
0.145531
0.145529
0.145527
0.145525
0.145523
0.145521
0.145519
0.145518
0.145516
0.145515
0.145513
0.145512
0.145511
0.14551
0.145508
0.145507
0.145507
0.145506
0.145505
0.145504
0.145504
0.145503
0.145503
0.145503
0.145503
0.145503
0.145567
0.145563
0.14556
0.145557
0.145555
0.145552
0.145549
0.145547
0.145545
0.145542
0.14554
0.145537
0.145535
0.145533
0.145531
0.145529
0.145527
0.145525
0.145523
0.145521
0.145519
0.145517
0.145516
0.145514
0.145513
0.145512
0.14551
0.145509
0.145508
0.145507
0.145506
0.145505
0.145505
0.145504
0.145503
0.145503
0.145503
0.145502
0.145502
0.145502
0.145568
0.145564
0.14556
0.145557
0.145555
0.145552
0.14555
0.145547
0.145545
0.145542
0.14554
0.145537
0.145535
0.145533
0.145531
0.145529
0.145526
0.145524
0.145523
0.145521
0.145519
0.145517
0.145516
0.145514
0.145513
0.145511
0.14551
0.145509
0.145508
0.145507
0.145506
0.145505
0.145504
0.145504
0.145503
0.145503
0.145502
0.145502
0.145502
0.145502
0.145568
0.145564
0.145561
0.145558
0.145555
0.145552
0.14555
0.145547
0.145545
0.145542
0.14554
0.145537
0.145535
0.145533
0.145531
0.145528
0.145526
0.145524
0.145522
0.14552
0.145519
0.145517
0.145515
0.145514
0.145512
0.145511