/*--------------------------------*- C++ -*----------------------------------*\
| =========                 |                                                 |
| \\      /  F ield         | OpenFOAM: The Open Source CFD Toolbox           |
|  \\    /   O peration     | Version:  2.3.0                                 |
|   \\  /    A nd           | Web:      www.OpenFOAM.org                      |
|    \\/     M anipulation  |                                                 |
\*---------------------------------------------------------------------------*/
FoamFile
{
    version     2.0;
    format      ascii;
    class       volScalarField;
    location    "10";
    object      epsilon;
}
// * * * * * * * * * * * * * * * * * * * * * * * * * * * * * * * * * * * * * //

dimensions      [0 2 -3 0 0 0 0];

internalField   nonuniform List<scalar> 
26600
(
19.4274
124.168
322.705
548.875
757.181
922.027
1037.49
1105.12
1143.84
1166.66
1192.01
1215.3
1237.84
1251.2
1261.53
1271.54
1281.46
1292.11
1303.27
1313.51
1323.38
1330.1
1331.56
1331.45
1329.47
1321.59
1311.71
1300.3
1285.21
1268.07
1249.75
1230.77
1211.7
1192.77
1174.84
1157.94
1142.14
1125.81
1108.77
1179.89
0.545599
2.53196
6.64632
12.9876
21.112
30.458
41.463
55.2264
73.0196
94.3047
118.25
141.583
162.236
178.746
192.993
204.717
214.382
222.458
229.387
235.545
241.033
245.168
247.885
250.032
251.22
251.367
250.568
249.192
245.63
242.444
240.238
235.548
231.914
225.668
222.291
216.007
215.197
207.322
208.28
217.2
0.269571
0.589119
1.24866
2.51975
4.43384
8.01093
14.9025
24.8673
36.9975
49.2136
61.5861
72.8531
82.7983
90.6033
96.8822
101.415
105.356
108.373
111.068
112.942
115.017
116.695
117.597
118.494
119.079
119.298
118.591
117.569
116.525
114.642
112.767
110.397
108.141
105.788
102.852
100.652
98.4983
97.2131
97.2816
92.6001
0.208002
0.451767
0.944199
1.8035
3.68235
7.7112
15.1563
25.3591
36.7114
47.0722
56.7758
64.6643
70.6719
74.6009
77.3044
78.854
80.032
80.7742
81.3186
81.5384
82.1676
82.7279
82.674
82.4096
82.3295
81.9873
81.4876
81.4348
81.0177
81.1954
81.5903
81.7581
81.6226
81.0235
79.2084
78.3994
78.4502
79.1093
81.8228
79.6905
0.230078
0.604155
1.21387
2.54155
5.61057
11.8872
21.4642
32.9821
43.9669
52.7593
60.2081
64.8661
68.0429
69.4685
69.9896
70.0641
69.9686
69.2961
69.1117
68.386
68.3782
68.055
67.288
67.4434
68.3043
69.0469
69.9687
71.126
72.0021
73.9953
75.9796
78.4302
80.6813
82.845
85.4423
89.5516
97.0271
103.499
119.818
95.2585
0.236076
0.632575
1.46526
3.59945
8.60717
17.5972
29.2934
41.437
51.0914
57.6571
62.3257
64.5395
65.4105
65.2515
64.4033
64.0449
63.1992
61.1797
60.2131
59.9913
60.5117
61.1444
61.5888
62.7638
65.0749
67.7523
72.212
80.1018
86.2948
97.5423
107.427
125.041
141.432
160.287
186.328
227.471
285.121
331.974
410.162
256.354
0.254071
0.728901
2.00477
5.57204
13.3236
24.7137
37.5771
48.6205
55.0246
59.3496
61.785
61.8852
61.2611
60.2522
58.5194
56.3354
55.356
53.868
54.0001
55.3372
56.7429
62.031
66.1885
73.6416
87.1061
103.838
133.778
167.377
194.413
244.748
296.165
377.32
446.516
565.3
722.125
944.661
1099.6
1264.95
1344.58
1410.46
0.260579
0.90695
3.05863
8.87017
19.3769
32.21
44.1496
51.7609
55.5701
57.7519
57.8641
57.2301
55.7804
52.5414
50.3593
49.2617
49.6354
50.7807
53.4689
58.5058
68.394
89.4689
111.363
152.432
219.178
318.858
461.715
574.53
695.259
907.842
1083.2
1291.01
1489.15
1712.57
1871.47
1961.94
1973.17
2022.27
2017.71
2118.98
0.287076
1.32074
4.90669
13.4921
25.6617
37.7509
46.6459
51.4003
52.6514
52.4307
51.3679
49.424
46.7929
45.063
45.517
47.3452
52.7268
65.1758
79.6544
113.753
149.376
231.553
323.803
555.26
860.698
1180.4
1421.83
1538.03
1703.73
1876.7
1979.13
2114.47
2143.96
2119.67
2040.2
1937.43
1821.92
1772.74
1680.42
1807.75
0.337382
2.03301
7.55593
18.6083
30.3441
39.723
45.4268
47.0239
46.6116
45.0129
41.4587
39.2107
40.1243
42.8531
50.5591
66.5802
105.535
177.344
242.981
415.414
567.514
840.213
1155.66
1518.46
1727.69
1801.35
1797.14
1785.22
1786.44
1751.37
1668.36
1513.82
1283.99
1090.27
954.784
889.758
851.399
843.298
820.887
887.02
0.435974
3.16068
11.1498
22.7312
32.1027
38.2876
40.1494
39.7613
38.1483
34.2313
33.298
34.716
40.3642
59.5576
111.485
196.649
429.522
611.693
844.864
1083.43
1245.22
1566.39
1602.07
1492.96
1190.61
884.075
702.292
605.574
553.396
503.834
455.705
408.22
361.902
329.795
311.604
307.456
307.644
311.637
313.552
341.537
0.662322
4.90852
14.8696
24.4952
30.9804
33.0701
32.6151
30.4394
27.433
28.2548
31.0724
42.5749
79.8391
184.561
411.025
706.352
978.27
1041.27
1164.3
1111.06
962.601
654.247
404.933
268.267
197.189
162.502
146.023
138.572
133.003
126.756
122.16
118.961
116.415
115.408
115.852
117.78
120.626
124.502
127.243
137.024
1.25576
7.58956
16.6625
23.8054
26.2418
25.7781
23.9851
22.0147
22.9699
28.6884
50.2838
115.443
279.509
648.414
866.563
972.313
844.462
573.577
322.757
190.691
127.754
89.5727
66.3231
55.359
51.7908
51.541
52.3925
53.9381
55.6718
57.0781
58.6369
60.1743
61.3939
62.4324
63.4479
64.6389
65.8211
67.2934
68.2919
70.6878
2.37883
9.2933
16.1981
19.3162
18.9728
17.2343
17.6438
19.6003
29.0573
64.7968
160.626
428.818
654.89
837.807
656.38
288.016
135.364
74.7311
47.796
36.235
31.0564
30.617
31.448
33.2276
35.9955
38.431
40.4662
41.9866
43.1207
44.1469
45.1371
45.9199
46.3789
46.6193
46.7573
46.8811
46.9706
47.0741
46.9471
46.918
3.56149
9.35562
12.0063
11.6809
11.2853
12.6983
16.808
31.525
81.7392
223.116
443.295
711.685
612.62
269.6
100.166
44.0649
27.6837
22.4847
22.1933
23.1598
25.4339
29.2275
33.0454
36.3446
38.784
40.2702
41.0517
41.426
41.5986
41.5808
41.4814
41.2418
40.8274
40.309
39.7496
39.19
38.6203
38.0287
37.2886
36.4681
4.04151
6.29018
6.22136
6.69624
8.50814
14.9246
37.3309
100.123
299.271
461.505
519.023
318.95
115.721
44.6173
23.2255
17.5318
17.6167
19.5675
23.9809
30.115
35.623
39.9023
42.5917
44.2099
44.8026
44.6193
43.9037
42.8525
41.8513
40.8839
39.9032
38.8861
37.8319
36.7752
35.7461
34.7576
33.7935
32.827
31.7936
30.7254
1.92282
3.74671
4.41137
6.26867
14.4237
45.0502
137.218
360.932
511.238
418.62
179.604
66.0908
28.0979
16.9874
14.7247
15.7271
20.1964
29.423
37.9513
44.1327
48.0909
50.3476
50.7735
50.2791
48.9824
47.1657
45.2013
43.3135
41.5556
39.8902
38.3034
36.7876
35.3408
33.9684
32.6748
31.4549
30.2889
29.151
28.0079
26.8838
1.57281
4.06331
7.30478
15.8412
55.3669
188.795
451.855
529.404
362.696
118.467
44.3107
21.4004
14.4539
12.9602
14.7752
21.8688
35.1297
46.2379
53.4172
57.0583
58.1296
57.3977
55.4476
52.9272
50.3348
47.6261
44.9362
42.4462
40.1901
38.1128
36.1973
34.4336
32.8055
31.2982
29.9001
28.5962
27.3662
26.1884
25.0441
23.9495
9.18547
13.9254
23.6995
62.3424
261.471
560.052
556.458
315.591
92.8755
33.5049
17.1394
11.7169
11.7268
14.5012
23.9578
40.8426
54.5626
62.8088
66.2087
65.7188
63.5535
60.1755
56.681
53.0835
49.5936
46.245
43.1334
40.3455
37.8717
35.6438
33.627
31.8061
30.1543
28.6444
27.2558
25.97
24.7676
23.6303
22.5457
21.5244
59.1354
59.1923
101.185
308.886
684.903
607.174
261.499
76.9633
27.3084
13.323
9.4156
9.85823
13.6571
25.2898
45.7998
62.4468
71.9422
74.8917
73.2922
69.3138
64.86
60.1081
55.4485
51.0747
47.0871
43.4673
40.2387
37.4113
34.9375
32.7445
30.7868
29.0388
27.4677
26.0411
24.7345
23.5296
22.409
21.3568
20.3619
19.4352
75.7672
152.917
423.244
688.525
527.502
198.149
66.4964
23.7777
10.7267
7.70622
8.38685
12.8426
25.8323
49.617
70.008
80.8647
82.9864
80.5009
75.341
69.3341
63.2652
57.4991
52.2439
47.5624
43.4559
39.8624
36.7424
34.0528
31.726
29.6873
27.8844
26.2842
24.853
23.5575
22.3725
21.2817
20.2687
19.321
18.4299
17.604
3.59886
22.3909
51.4709
51.9103
40.135
22.3661
11.1071
6.13533
5.91012
7.1565
12.578
26.4641
52.5998
76.9978
89.1359
90.7472
87.3598
81.0726
73.628
66.194
59.3343
53.2029
47.8504
43.2363
39.2916
35.9237
33.0528
30.6059
28.5079
26.6852
25.083
23.6654
22.3984
21.2517
20.2041
19.2393
18.3422
17.504
16.7187
15.9899
0.456695
2.07348
6.23444
7.06178
6.56312
4.58391
3.79098
4.15278
6.24919
12.9717
28.4643
55.6434
83.4612
96.4765
97.7124
93.9854
86.2134
77.433
68.8139
60.9507
54.0315
48.0495
42.9575
38.658
35.0462
32.0138
29.4618
27.3052
25.467
23.8784
22.4883
21.2593
20.1589
19.1617
18.2502
17.4086
16.6248
15.8919
15.2053
14.5656
0.240173
0.537024
1.24999
1.73057
2.20084
2.5999
3.48572
6.21437
13.9074
31.256
60.3779
89.6662
102.927
103.793
99.6692
90.5306
80.3488
70.8079
62.2281
54.7036
48.2157
42.7004
38.0741
34.2203
31.0207
28.3632
26.1472
24.2871
22.7071
21.3454
20.1564
19.1044
18.1604
17.303
16.5162
15.7874
15.1071
14.4695
13.8711
13.3111
0.228696
0.304321
0.548539
1.1317
2.29089
4.11676
7.85039
16.6011
35.787
66.7955
95.0745
107.731
108.843
104.156
93.4623
82.0739
71.8365
62.8909
55.0845
48.3058
42.498
37.5999
33.5233
30.1552
27.3814
25.0936
23.1985
21.6148
20.2724
19.1166
18.1068
17.2115
16.4059
15.6716
14.9948
14.3653
13.7758
13.2217
12.7001
12.2097
0.227863
0.340976
0.70371
2.14159
6.41488
12.5934
23.4609
45.3659
75.6101
99.4176
110.301
111.824
106.324
94.1768
81.9994
71.5639
62.6629
54.945
48.1868
42.2959
37.2449
32.9949
29.4704
26.5718
24.1982
22.2504
20.6434
19.3026
18.1667
17.1887
16.3326
15.5713
14.8837
14.2543
13.6715
13.1271
12.6154
12.1327
11.6769
11.2466
0.297907
0.812712
2.4574
9.75079
24.3805
38.4866
61.3771
85.2979
101.957
111.009
111.591
105.082
91.6025
79.3298
69.3798
61.1601
54.028
47.6672
41.9743
36.9553
32.6304
28.9882
25.9725
23.4984
21.4785
19.8275
18.4676
17.3324
16.3704
15.541
14.8132
14.1635
13.5743
13.0323
12.5281
12.0552
11.609
11.1867
10.7866
10.4076
1.45712
5.51687
17.2618
46.0519
64.4758
78.7112
91.2922
100.989
107.782
106.365
98.3095
84.9085
73.4295
64.7729
57.9612
52.036
46.541
41.3885
36.6397
32.3894
28.7037
25.594
23.0193
20.9105
19.1926
17.7912
16.6361
15.671
14.8521
14.1445
13.5216
12.9633
12.4546
11.9845
11.5454
11.1318
10.7401
10.3683
10.0151
9.67963
6.00581
22.989
67.6417
84.4854
88.9051
92.4098
95.616
95.695
92.6625
83.9507
72.9198
63.9235
57.5575
52.8662
48.7571
44.64
40.4094
36.2021
32.2105
28.5909
25.4363
22.7707
20.564
18.7599
17.2927
16.0949
15.1063
14.2795
13.5766
12.9676
12.4295
11.9451
11.5017
11.0902
10.7042
10.3394
9.99293
9.66311
9.34907
9.05033
2.04596
18.2629
52.4031
67.212
70.0468
69.7554
68.3739
65.9609
61.0553
55.2685
50.8376
47.9153
45.9312
44.0911
41.8114
38.9098
35.5542
32.0324
28.6145
25.4887
22.7585
20.4516
18.5448
16.9896
15.7244
14.6898
13.8354
13.1198
12.5099
11.9798
11.5096
11.0846
10.6938
10.3298
9.98707
9.66221
9.35291
9.05788
8.77652
8.50854
0.434557
6.05041
21.1743
28.2044
30.7401
32.649
33.4033
33.7317
34.3471
35.424
36.6145
37.6306
38.2127
37.9954
36.7723
34.5879
31.7879
28.7364
25.7362
22.986
20.5865
18.5638
16.8978
15.5409
14.4356
13.5314
12.784
12.1569
11.6211
11.1538
10.7378
10.3601
10.0116
9.68584
9.37826
9.08597
8.80715
8.54084
8.2866
8.04429
0.248437
1.30431
4.58539
6.80785
9.05831
11.357
13.8958
17.2487
21.2918
25.3051
28.8338
31.5991
33.3692
33.9071
33.1847
31.3783
28.9031
26.1589
23.4551
20.9842
18.8382
17.0386
15.5624
14.3603
13.3813
12.5803
11.9176
11.3607
10.8835
10.466
10.0929
9.75299
9.43834
9.1433
8.86409
8.59826
8.34437
8.10166
7.86983
7.64881
0.204171
0.426316
0.99894
1.68624
2.75865
4.34302
6.98381
10.9227
15.7363
20.5707
24.8407
28.2232
30.4222
31.227
30.672
29.0214
26.7143
24.1607
21.6611
19.3945
17.441
15.8147
14.4851
13.4032
12.5232
11.8033
11.2073
10.7055
10.2745
9.89628
9.55717
9.2473
8.95962
8.68922
8.43285
8.18845
7.95484
7.73143
7.518
7.31453
0.222669
0.275792
0.45399
0.805918
1.40136
2.60169
4.94068
8.69378
13.4794
18.4339
22.8749
26.4033
28.68
29.4996
28.9349
27.3069
25.0673
22.6234
20.2609
18.1417
16.3337
14.8398
13.6217
12.6327
11.8297
11.1731
10.6292
10.1706
9.77583
9.42839
9.11604
8.82988
8.56358
8.3128
8.07471
7.84756
7.63034
7.42258
7.22414
7.035
0.232061
0.24828
0.359943
0.612436
1.09562
2.16229
4.33966
7.9198
12.5921
17.5206
21.9708
25.4798
27.6899
28.41
27.7502
26.0723
23.8396
21.4522
19.1788
17.1649
15.4659
14.071
12.937
12.0193
11.2756
10.6679
10.1643
9.7392
9.37249
9.04903
8.75756
8.48995
8.24045
8.00515
7.78156
7.56813
7.36401
7.16881
6.98241
6.80483
0.234699
0.242791
0.337348
0.557559
1.01572
2.05569
4.18031
7.67402
12.277
17.1791
21.6106
25.0626
27.1617
27.744
26.9566
25.1964
22.9379
20.5734
18.3557
16.4164
14.7971
13.4746
12.4036
11.5396
10.8409
10.2704
9.79758
9.39796
9.05272
8.74764
8.47223
8.21891
7.98239
7.75911
7.54681
7.34411
7.15027
6.96495
6.78805
6.61958
0.235442
0.241229
0.329595
0.539658
0.99567
2.04239
4.16247
7.62418
12.1998
17.0957
21.5166
24.9165
26.9094
27.355
26.4393
24.59
22.2921
19.9309
17.7467
15.8591
14.2962
13.0255
12.0003
11.1759
10.5104
9.96741
9.51734
9.13669
8.80744
8.51607
8.25264
8.01002
7.78326
7.56905
7.36529
7.17073
6.9847
6.8069
6.63725
6.47575
0.235742
0.240453
0.325077
0.530623
0.991305
2.05608
4.18794
7.64193
12.2101
17.1134
21.5345
24.8981
26.8087
27.1403
26.1153
24.1872
21.8497
19.483
17.318
15.4652
13.9403
12.7048
11.7116
10.9149
10.2727
9.74911
9.3151
8.94784
8.62989
8.34824
8.09331
7.8583
7.63849
7.43075
7.2331
7.04438
6.86396
6.69157
6.52714
6.37067
0.236162
0.240152
0.321481
0.523809
0.990493
2.07641
4.2262
7.68524
12.2586
17.1766
21.6041
24.9432
26.7934
27.0438
25.937
23.9484
21.5783
19.2035
17.0483
15.2161
13.7141
12.5004
11.5272
10.7479
10.1204
9.60904
9.1852
8.82643
8.51566
8.24016
7.99064
7.76046
7.54507
7.34145
7.14771
6.96272
6.78589
6.61697
6.45588
6.30263
0.236956
0.241098
0.323155
0.53055
1.01293
2.1299
4.31063
7.79851
12.4007
17.3434
21.7763
25.091
26.8902
27.0767
25.9098
23.8759
21.4785
19.0915
16.9353
15.109
13.6152
12.4101
11.4451
10.6733
10.0522
9.54631
9.12703
8.7721
8.46458
8.19188
7.9448
7.7168
7.50339
7.30161
7.10959
6.92625
6.751
6.5836
6.42398
6.27214
488.763
180.564
117.032
93.6271
82.1852
75.6483
71.5535
68.8307
66.9424
65.5896
64.5935
63.8414
63.259
62.7957
62.4168
62.0977
61.8212
61.575
61.3504
61.1413
60.9438
60.755
60.5734
60.3982
60.2292
60.0664
59.9104
59.7616
59.621
59.4894
59.3676
59.2566
59.1573
59.0706
58.9975
58.939
58.8965
58.8715
58.8669
58.8895
488.293
182.91
118.824
94.9501
83.2262
76.5164
72.308
69.5052
67.557
66.1574
65.1234
64.3396
63.7298
63.2424
62.842
62.5035
62.2092
61.9466
61.7068
61.4837
61.273
61.072
60.8791
60.6933
60.5144
60.3426
60.1781
60.0217
59.8741
59.736
59.6085
59.4923
59.3885
59.2978
59.2213
59.1601
59.1153
59.0888
59.0831
59.1053
489.542
183.995
119.806
95.9069
84.1345
77.3717
73.1147
70.2696
68.2849
66.8532
65.7907
64.9808
64.3469
63.837
63.4153
63.0567
62.7433
62.4624
62.2051
61.9653
61.7387
61.5226
61.3152
61.1159
60.9243
60.7404
60.5648
60.398
60.2407
60.0939
59.9584
59.8351
59.7249
59.6288
59.5476
59.4824
59.4345
59.4056
59.3983
59.4195
490.51
185.44
120.996
96.9209
85.0485
78.2249
73.9259
71.0484
69.0367
67.5813
66.4972
65.6667
65.013
64.4842
64.0441
63.6674
63.3364
63.0383
62.7642
62.5081
62.2656
62.0342
61.8122
61.5988
61.3938
61.1972
61.0097
60.8317
60.6641
60.5078
60.3637
60.2326
60.1155
60.0132
59.9268
59.8574
59.806
59.7745
59.7655
59.7859
492.384
186.627
122.036
97.8745
85.938
79.0676
74.7338
71.8292
69.7949
68.3195
67.2167
66.3686
65.6978
65.1522
64.6954
64.3023
63.9548
63.6404
63.3503
63.0783
62.8204
62.574
62.3373
62.1099
61.8914
61.6821
61.4824
61.2932
61.1151
60.949
60.796
60.6569
60.5326
60.4241
60.3324
60.2584
60.2035
60.1693
60.1585
60.1783
493.946
187.923
123.109
98.8271
86.8203
79.9051
75.5396
72.6103
70.5556
69.0622
67.9424
67.0781
66.3916
65.8302
65.3578
64.9488
64.5855
64.2553
63.9494
63.6619
63.3887
63.1274
62.8763
62.6348
62.4028
62.1806
61.9688
61.7681
61.5793
61.4035
61.2414
61.0941
60.9626
60.8477
60.7505
60.672
60.6135
60.5766
60.564
60.5831
496.183
189.151
124.14
99.7621
87.6947
80.7389
76.344
73.3921
71.3183
69.808
68.6724
67.7929
67.0912
66.5147
66.0269
65.6024
65.2235
64.8776
64.5561
64.253
63.9645
63.6881
63.4224
63.1668
62.9212
62.6861
62.462
62.2498
62.0503
61.8644
61.6933
61.5377
61.3988
61.2775
61.1747
61.0916
61.0294
60.9898
60.9755
60.9939
498.172
190.427
125.182
100.696
88.567
81.5716
77.149
74.1757
72.0839
70.5574
69.4068
68.5124
67.7959
67.2044
66.7013
66.2614
65.8668
65.5052
65.1679
64.8492
64.5451
64.2535
63.973
63.7032
63.4439
63.1957
62.9591
62.7352
62.5247
62.3288
62.1484
61.9845
61.8381
61.7102
61.6018
61.514
61.448
61.4057
61.3897
61.4074
500.639
191.688
126.214
101.626
89.4383
82.4052
77.956
74.962
72.853
71.311
70.1455
69.2365
68.5053
67.8988
67.3805
66.925
66.5147
66.1371
65.7839
65.4493
65.1296
64.8225
64.5271
64.2427
63.9695
63.7079
63.4587
63.2228
63.0013
62.7951
62.6053
62.4328
62.2788
62.1443
62.0302
61.9376
61.8679
61.8228
61.805
61.8221
502.958
192.98
127.255
102.559
90.3119
83.2415
78.7662
75.7521
73.6263
72.069
70.8889
69.9655
69.2196
68.5981
68.0644
67.5932
67.1668
66.7732
66.4038
66.053
65.7174
65.3947
65.084
64.7847
64.4972
64.222
63.96
63.712
63.4791
63.2625
63.0631
62.882
62.7203
62.579
62.459
62.3616
62.2881
62.2402
62.2206
62.237
505.589
194.278
128.297
103.495
91.1891
84.0816
79.5807
76.547
74.4045
72.832
71.6374
70.6996
69.939
69.3023
68.753
68.2658
67.8232
67.4131
67.0272
66.6601
66.3082
65.9696
65.6432
65.3288
65.0268
64.7377
64.4625
64.2022
63.9579
63.7306
63.5214
63.3316
63.162
63.0138
62.888
62.7857
62.7083
62.6574
62.6361
62.6518
508.158
195.597
129.349
104.437
92.0713
84.9271
80.4007
77.3473
75.1882
73.6006
72.3916
71.4392
70.6636
70.0115
69.4463
68.9429
68.4837
68.0568
67.6541
67.2702
66.9017
66.5467
66.2044
65.8747
65.5579
65.2547
64.9662
64.6933
64.4372
64.1991
63.9801
63.7813
63.6037
63.4485
63.3167
63.2094
63.1281
63.0743
63.0511
63.0661
510.935
196.931
130.407
105.385
92.9599
85.7789
81.2269
78.1541
75.9785
74.3756
73.1521
72.1848
71.3939
70.726
70.1446
69.6246
69.1485
68.7045
68.2845
67.8834
67.4979
67.1262
66.7677
66.4223
66.0904
65.7729
65.4707
65.185
64.917
64.6679
64.4388
64.2309
64.0452
63.8829
63.745
63.6327
63.5473
63.4906
63.4656
63.4799
513.691
198.284
131.477
106.341
93.856
86.6378
82.0604
78.968
76.7759
75.1582
73.9192
72.9363
72.1298
71.4459
70.848
70.311
69.8176
69.356
68.9184
68.4997
68.0968
67.7081
67.3331
66.9716
66.6243
66.2921
65.976
65.6773
65.3972
65.1368
64.8975
64.6803
64.4864
64.3169
64.1728
64.0553
63.9659
63.9062
63.8792
63.8928
516.596
199.652
132.556
107.306
94.76
87.5048
82.9016
79.7893
77.5803
75.9468
74.6923
73.6941
72.8718
72.1715
71.5567
71.0023
70.4911
70.0116
69.5559
69.1192
68.6985
68.2925
67.9004
67.5226
67.1595
66.8123
66.4821
66.17
65.8775
65.6057
65.356
65.1294
64.9271
64.7503
64.5999
64.4772
64.3836
64.3209
64.292
64.3049
519.512
201.041
133.647
108.281
95.6732
88.3804
83.7512
80.6187
78.3924
76.7428
75.4728
74.4589
73.6203
72.9032
72.271
71.6987
71.1693
70.6713
70.1971
69.742
69.3032
68.8792
68.4698
68.0751
67.6959
67.3334
66.9887
66.6631
66.358
66.0746
65.8142
65.578
65.3672
65.1829
65.0262
64.8982
64.8005
64.7347
64.7038
64.7159
522.525
202.447
134.749
109.265
96.5961
89.2653
84.6099
81.4571
79.2131
77.5471
76.2612
75.231
74.3756
73.6412
72.991
72.4003
71.8521
71.3351
70.8419
70.368
69.9105
69.4682
69.0409
68.629
68.2334
67.8552
67.4958
67.1564
66.8384
66.5432
66.272
66.0261
65.8067
65.6148
65.4516
65.3183
65.2162
65.1473
65.1144
65.1258
525.573
203.869
135.864
110.261
97.5292
90.1603
85.4783
82.3047
80.0429
78.3602
77.0577
76.0107
75.138
74.3856
73.717
73.1073
72.5397
72.0032
71.4904
70.997
70.5202
70.0592
69.6137
69.1843
68.7719
68.3778
68.0033
67.6498
67.3187
67.0115
66.7293
66.4736
66.2453
66.0458
65.876
65.7372
65.6308
65.5587
65.5239
65.5344
528.696
205.312
136.992
111.268
98.4734
91.0658
86.3569
83.1622
80.8822
79.1822
77.8627
76.7984
75.9078
75.1369
74.4492
73.8198
73.2323
72.6756
72.1427
71.6292
71.1327
70.6524
70.1883
69.741
69.3114
68.901
68.5112
68.1433
67.7989
67.4794
67.1861
66.9202
66.6831
66.4757
66.2993
66.155
66.0442
65.9689
65.9319
65.9417
531.85
206.773
138.134
112.287
99.4291
91.9824
87.2462
84.0302
81.7313
80.0137
78.6766
77.5943
76.6853
75.8953
75.1877
74.538
73.9299
73.3524
72.7987
72.2646
71.7479
71.2479
70.7647
70.299
69.8519
69.4249
69.0193
68.6368
68.2788
67.9468
67.6421
67.3661
67.1198
66.9045
66.7213
66.5714
66.4562
66.3776
66.3386
66.3475
535.072
208.251
139.29
113.319
100.397
92.9107
88.1469
84.9088
82.5908
80.8549
79.4994
78.3989
77.4709
76.6609
75.9328
75.2622
74.6327
74.0338
73.4586
72.9033
72.3659
71.8457
71.3429
70.8583
70.3933
69.9492
69.5276
69.1302
68.7584
68.4137
68.0974
67.811
67.5555
67.3321
67.1421
66.9865
66.8667
66.7848
66.7437
66.7518
538.332
209.75
140.46
114.364
101.377
93.8512
89.0593
85.7989
83.4612
81.7065
80.3322
79.2128
78.2647
77.434
76.6846
75.9923
75.3409
74.7198
74.1226
73.5455
72.9868
72.4457
71.9228
71.4189
70.9355
70.474
70.0361
69.6234
69.2375
68.8798
68.5518
68.2548
67.99
67.7584
67.5614
67.4
67.2757
67.1904
67.1472
67.1545
541.639
211.268
141.645
115.423
102.37
94.8042
89.9839
86.7008
84.3429
82.5691
81.1764
80.036
79.0668
78.2148
77.4434
76.7287
76.0545
75.4107
74.7908
74.1913
73.6105
73.0481
72.5044
71.9808
71.4785
70.9992
70.5446
70.1164
69.7161
69.3452
69.0053
68.6975
68.4232
68.1834
67.9792
67.812
67.6831
67.5944
67.549
67.5554
544.994
212.802
142.846
116.496
103.377
95.7705
90.9212
87.6148
85.2361
83.4422
82.0288
80.8679
79.8776
79.0034
78.2094
77.4714
76.7738
76.1064
75.4631
74.8405
74.237
73.6525
73.0877
72.5437
72.0222
71.5247
71.0531
70.609
70.1941
69.8098
69.4577
69.139
68.855
68.6068
68.3955
68.2223
68.0887
67.9965
67.9489
67.9545
548.394
214.359
144.062
117.584
104.398
96.7504
91.8717
88.5415
86.1414
84.3267
82.8923
81.71
80.6975
79.8004
78.9827
78.2207
77.4987
76.807
76.1394
75.493
74.8662
74.2591
73.6725
73.1078
72.5666
72.0505
71.5615
71.1012
70.6714
70.2735
69.909
69.5792
69.2854
69.0286
68.81
68.6309
68.4925
68.3968
68.347
68.3517
551.829
215.935
145.295
118.686
105.434
97.7443
92.8359
89.4814
87.0591
85.223
83.767
82.5625
81.5268
80.6059
79.7637
78.9767
78.2295
77.5125
76.82
76.1489
75.4981
74.8678
74.259
73.673
73.1116
72.5766
72.0698
71.593
71.1479
70.7361
70.3591
70.018
69.7142
69.4488
69.2229
69.0376
68.8944
68.7952
68.743
68.7469
555.315
217.529
146.545
119.805
106.485
98.7531
93.8143
90.4348
87.9899
86.1317
84.6532
83.4255
82.3659
81.4201
80.5524
79.7395
78.9662
78.2231
77.5048
76.8083
76.1329
75.4788
74.847
74.2392
73.6572
73.1027
72.5778
72.0842
71.6236
71.1977
70.8079
70.4554
70.1415
69.8672
69.6338
69.4424
69.2943
69.1915
69.1371
69.14
558.84
219.146
147.812
120.94
107.551
99.777
94.8073
91.4024
88.9341
87.053
85.5512
84.2994
83.2148
82.2432
81.3491
80.5093
79.709
78.9389
78.1939
77.4713
76.7705
76.0919
75.4366
74.8065
74.2033
73.629
73.0855
72.5748
72.0984
71.6581
71.2553
70.8912
70.567
70.2839
70.0428
69.8451
69.6921
69.5856
69.5289
69.531
562.401
220.783
149.096
122.091
108.634
100.817
95.8156
92.3846
89.8922
87.9873
86.4613
85.1845
84.0739
83.0755
82.1539
81.2863
80.458
79.66
78.8874
78.1379
77.4109
76.7071
76.0278
75.3747
74.7498
74.1552
73.5929
73.0646
72.5723
72.1173
71.7012
71.3253
70.9907
70.6986
70.4499
70.2458
70.0878
69.9776
69.9186
69.9197
566.01
222.44
150.399
123.26
109.733
101.872
96.8396
93.3818
90.8646
88.9352
87.384
86.0811
84.9435
83.9172
82.9672
82.0706
81.2132
80.3864
79.5853
78.808
78.0542
77.3245
76.6204
75.9438
75.2968
74.6815
74.0998
73.5537
73.045
72.5752
72.1457
71.7578
71.4126
71.1113
70.8548
70.6443
70.4812
70.3674
70.3059
70.3061
569.658
224.121
151.721
124.447
110.85
102.945
97.8798
94.3946
91.8518
89.8969
88.3196
86.9896
85.8239
84.7686
83.7889
82.8624
81.9749
81.1182
80.2877
79.4819
78.7003
77.944
77.2144
76.5138
75.8441
75.2076
74.6062
74.042
73.5166
73.0316
72.5885
72.1884
71.8326
71.5219
71.2576
71.0406
70.8724
70.7548
70.6909
70.6902
573.341
225.823
153.062
125.652
111.984
104.035
98.9369
95.4236
92.8543
90.873
89.2685
87.9103
86.7153
85.6299
84.6194
83.6618
82.7432
81.8556
80.9949
80.1595
79.3493
78.5655
77.8099
77.0846
76.3917
75.7335
75.112
74.5293
73.9869
73.4866
73.0296
72.6172
72.2505
71.9305
71.6582
71.4346
71.2612
71.1398
71.0735
71.0718
577.072
227.546
154.424
126.876
113.137
105.143
100.011
96.4692
93.8726
91.8638
90.2311
88.8435
87.618
86.5013
85.4589
84.469
83.5181
82.5987
81.7067
80.8407
80.0011
79.1891
78.4067
77.6561
76.9395
76.2591
75.6172
75.0156
74.456
73.94
73.4689
73.044
72.6663
72.3368
72.0564
71.8262
71.6476
71.5223
71.4535
71.4509
580.842
229.295
155.806
128.12
114.31
106.27
101.104
97.5321
94.9072
92.87
91.2078
89.7896
88.5324
87.3831
86.3075
85.284
84.2997
83.3472
82.4228
81.5254
80.6555
79.8146
79.0048
78.2282
77.4874
76.7844
76.1216
75.5007
74.9236
74.3918
73.9064
73.4688
73.08
72.7408
72.4523
72.2154
72.0314
71.9022
71.8311
71.8274
584.649
231.067
157.209
129.384
115.502
107.416
102.215
98.6128
95.9586
93.8918
92.199
90.7489
89.4588
88.2756
87.1653
86.1071
85.0881
84.1014
83.1435
82.2137
81.3127
80.4421
79.6041
78.801
78.0353
77.3093
76.6252
75.9848
75.3898
74.8418
74.342
73.8916
73.4914
73.1425
72.8457
72.602
72.4127
72.2796
72.2059
72.2013
588.504
232.862
158.635
130.67
116.715
108.582
103.346
99.7118
97.0275
94.9298
93.2051
91.722
90.3976
89.1789
88.0327
86.9383
85.8834
84.8612
83.8689
82.9057
81.9726
81.0714
80.2045
79.3743
78.5833
77.8338
77.1279
76.4676
75.8545
75.2901
74.7756
74.3121
73.9006
73.5418
73.2367
72.9861
72.7914
72.6544
72.5781
72.5725
592.399
234.684
160.083
131.978
117.949
109.769
104.496
100.83
98.1144
95.9848
94.2267
92.7094
91.349
90.0934
88.9098
87.7778
86.6856
85.6269
84.5989
83.6012
82.6352
81.7027
80.8061
79.9481
79.1312
78.3576
77.6296
76.949
76.3175
75.7365
75.2072
74.7305
74.3074
73.9386
73.6251
73.3676
73.1674
73.0264
72.9476
72.941
596.333
236.532
161.554
133.308
119.205
110.978
105.667
101.968
99.2201
97.0575
95.2653
93.7114
92.3133
91.0192
89.7967
88.6258
87.495
86.3984
85.3335
84.3005
83.3004
82.3357
81.4088
80.5223
79.6789
78.8809
78.1303
77.4291
76.7789
76.181
75.6365
75.1465
74.7117
74.3329
74.0108
73.7464
73.5407
73.3956
73.3143
73.3066
600.317
238.404
163.051
134.662
120.484
112.208
106.86
103.127
100.345
98.1478
96.3194
94.7276
93.2904
91.9565
90.6936
89.4823
88.3116
87.1758
86.0729
85.0033
83.9683
82.9705
82.0125
81.0969
80.2264
79.4034
78.6299
77.9077
77.2385
76.6235
76.0637
75.5602
75.1135
74.7245
74.3939
74.1224
73.9112
73.762
73.6781
73.6694
604.345
240.307
164.573
136.04
121.787
113.462
108.075
104.306
101.489
99.2561
97.3898
95.7588
94.2811
92.9057
91.6008
90.3476
89.1355
87.9592
86.8171
85.7097
84.6388
83.6071
82.6171
81.6718
80.7736
79.9251
79.1282
78.3847
77.6962
77.0638
76.4886
75.9714
75.5128
75.1135
74.7742
74.4956
74.2788
74.1255
74.039
74.0293
608.413
242.239
166.12
137.443
123.115
114.74
109.313
105.508
102.654
100.384
98.478
96.8059
95.2859
93.8672
92.5187
91.2219
89.9668
88.7485
87.5659
86.4197
85.3119
84.2453
83.2227
82.2468
81.3205
80.4459
79.6252
78.8601
78.152
77.502
76.9111
76.3801
75.9094
75.4998
75.1517
74.866
74.6435
74.4861
74.397
74.3863
612.535
244.197
167.696
138.873
124.469
116.042
110.574
106.732
103.841
101.531
99.5841
97.8693
96.305
94.8412
93.4473
92.1053
90.8056
89.544
88.3194
87.1332
85.9875
84.8851
83.8289
82.822
81.8668
80.9658
80.1209
79.3337
78.6057
77.938
77.3312
76.7862
76.3034
75.8833
75.5264
75.2334
75.0053
74.8438
74.752
74.7402
616.704
246.189
169.299
140.33
125.849
117.371
111.861
107.979
105.049
102.698
100.709
98.9492
97.3388
95.828
94.3868
92.9978
91.6519
90.3454
89.0777
87.8502
86.6655
85.5264
84.4359
83.3971
82.4125
81.4845
80.615
79.8055
79.0574
78.3716
77.7488
77.1896
76.6945
76.2639
75.8981
75.5979
75.3641
75.1984
75.1039
75.0911
620.918
248.213
170.932
141.816
127.257
118.726
113.174
109.252
106.281
103.887
101.853
100.046
98.3878
96.8281
95.3376
93.8997
92.5059
91.1529
89.8406
88.5708
87.3459
86.1691
85.0436
83.9722
82.9576
82.0021
81.1075
80.2754
79.5069
78.8028
78.1638
77.5904
77.0828
76.6416
76.2669
75.9593
75.7198
75.5499
75.4528
75.4389
625.189
250.266
172.596
143.332
128.694
120.11
114.513
110.55
107.536
105.098
103.016
101.161
99.4527
97.8417
96.2998
94.8111
93.3677
91.9666
90.6085
89.2949
88.0287
86.8132
85.6517
84.547
83.5019
82.5184
81.5984
80.7432
79.954
79.2314
78.5761
77.9883
77.4683
77.0163
76.6326
76.3177
76.0724
75.8983
75.7985
75.7836
629.512
252.358
174.292
144.878
130.161
121.523
115.881
111.874
108.816
106.331
104.201
102.295
100.534
98.8688
97.2735
95.7321
94.2374
92.7869
91.3811
90.0223
88.7137
87.4585
86.2601
85.1215
84.0452
83.0332
82.0874
81.2089
80.3988
79.6575
78.9856
78.3833
77.8507
77.3879
76.9952
76.6729
76.4218
76.2435
76.141
76.125
633.884
254.485
176.02
146.457
131.66
122.966
117.278
113.225
110.121
107.588
105.406
103.446
101.63
99.9095
98.2589
96.6629
95.115
93.6131
92.1582
90.753
89.4007
88.1049
86.8689
85.6955
84.5874
83.5466
82.5745
81.6724
80.841
80.0809
79.3923
78.7753
78.2301
77.7565
77.3547
77.0249
76.768
76.5854
76.4803
76.4632
638.32
256.646
177.784
148.07
133.191
124.442
118.705
114.606
111.453
108.868
106.633
104.617
102.743
100.965
99.2563
97.6035
96.0002
94.4451
92.9396
91.4866
90.0896
88.7522
87.4776
86.269
85.1285
84.0582
83.0595
82.1335
81.2806
80.5015
79.796
79.1643
78.6063
78.1218
77.7109
77.3737
77.111
76.9241
76.8162
76.7982
642.813
258.85
179.584
149.718
134.757
125.95
120.163
116.015
112.812
110.174
107.882
105.807
103.873
102.035
100.266
98.5539
96.8932
95.2832
93.7254
92.2233
90.7804
89.4003
88.0864
86.8416
85.6682
84.568
83.5424
82.592
81.7176
80.9191
80.1967
79.5502
78.9793
78.4839
78.0638
77.7191
77.4506
77.2594
77.1488
77.1297
647.362
261.093
181.422
151.402
136.359
127.493
121.655
117.456
114.2
111.505
109.154
107.018
105.021
103.119
101.288
99.5143
97.7942
96.1272
94.5157
92.963
91.4728
90.0491
88.695
87.4134
86.2065
85.076
84.0229
83.048
82.1517
81.3338
80.5943
79.9329
79.3491
78.8426
78.4133
78.0612
77.7868
77.5914
77.4781
77.4579
651.981
263.377
183.3
153.126
137.998
129.072
123.181
118.929
115.617
112.864
110.45
108.25
106.187
104.219
102.322
100.485
98.703
96.9773
95.3102
93.7054
92.1669
90.6984
89.3032
87.9841
86.7431
85.5817
84.5009
83.5013
82.5828
81.7453
80.9886
80.3121
79.7154
79.1979
78.7594
78.3998
78.1195
77.9198
77.8038
77.7825
656.664
265.707
185.22
154.89
139.677
130.689
124.743
120.436
117.065
114.25
111.771
109.503
107.371
105.334
103.369
101.465
99.6196
97.8332
96.1088
94.4505
92.8623
91.348
89.9109
88.5535
87.2779
86.0852
84.9764
83.9516
83.0108
82.1536
81.3796
80.688
80.0783
79.5497
79.1019
78.7348
78.4486
78.2447
78.126
78.1037
661.41
268.084
187.182
156.696
141.397
132.346
126.342