/*--------------------------------*- C++ -*----------------------------------*\
| =========                 |                                                 |
| \\      /  F ield         | OpenFOAM: The Open Source CFD Toolbox           |
|  \\    /   O peration     | Version:  2.1.1                                 |
|   \\  /    A nd           | Web:      www.OpenFOAM.org                      |
|    \\/     M anipulation  |                                                 |
\*---------------------------------------------------------------------------*/
FoamFile
{
    version     2.0;
    format      ascii;
    class       volScalarField;
    object      G;
}
// * * * * * * * * * * * * * * * * * * * * * * * * * * * * * * * * * * * * * //

dimensions      [1 0 -3 0 0 0 0];

internalField   uniform 0;

boundaryField
{

    frontAndBack_pos
    {
        type            wedge;
    }
    frontAndBack_neg
    {
        type            wedge;
    }
    inlet
    {
        type            MarshakRadiation;
        T               T;
        emissivityMode  lookup;
        emissivity      uniform 1.0;
        value           uniform 0;
    }   
    outlet
    {
        type            MarshakRadiation;
        T               T;
        emissivityMode  lookup;
        emissivity      uniform 1.0;
        value           uniform 0;
    }    
    fixedWalls//".*"
    {
        type            MarshakRadiation;
        T               T;
        emissivityMode  lookup;
        emissivity      uniform 0.6;
        value           uniform 0;
    }
}

// ************************************************************************* //
