/*--------------------------------*- C++ -*----------------------------------*\
| =========                 |                                                 |
| \\      /  F ield         | OpenFOAM: The Open Source CFD Toolbox           |
|  \\    /   O peration     | Version:  2.3.0                                 |
|   \\  /    A nd           | Web:      www.OpenFOAM.org                      |
|    \\/     M anipulation  |                                                 |
\*---------------------------------------------------------------------------*/
FoamFile
{
    version     2.0;
    format      ascii;
    class       volScalarField;
    location    "10";
    object      H2O;
}
// * * * * * * * * * * * * * * * * * * * * * * * * * * * * * * * * * * * * * //

dimensions      [0 0 0 0 0 0 0];

internalField   nonuniform List<scalar> 
26600
(
7.52983e-16
4.82694e-13
1.47167e-11
2.15859e-10
2.14492e-09
2.14246e-08
1.16431e-07
4.14866e-07
1.30744e-06
3.13972e-06
7.39433e-06
1.40936e-05
2.59949e-05
4.1102e-05
6.40952e-05
9.08194e-05
0.000127864
0.000169698
0.000211529
0.00026182
0.000321466
0.000392626
0.000473068
0.000558308
0.000653704
0.000761202
0.000885449
0.00101818
0.00116342
0.00130597
0.00144999
0.00158657
0.00172742
0.00186272
0.0020055
0.00213433
0.00226362
0.00238252
0.00251957
0.00269091
1.5596e-13
1.03542e-11
2.46695e-10
3.15074e-09
2.66919e-08
2.40832e-07
1.13551e-06
3.35086e-06
9.47813e-06
1.90465e-05
4.46068e-05
7.47947e-05
0.000139785
0.000191938
0.000301239
0.000377839
0.000531794
0.000640948
0.000824029
0.00102379
0.00122675
0.00148286
0.00179093
0.00208432
0.00249159
0.00283553
0.00333893
0.00362853
0.00420507
0.00452501
0.00470633
0.0049808
0.0052289
0.00556311
0.00585123
0.00617462
0.00647831
0.00674754
0.00730313
0.00517405
3.88275e-12
1.48958e-10
2.93942e-09
3.13971e-08
2.43045e-07
1.20621e-06
4.49151e-06
1.32158e-05
3.30254e-05
7.574e-05
0.00016485
0.000258279
0.000436286
0.000583276
0.000863367
0.00106608
0.00142243
0.00172588
0.00207453
0.00264822
0.00304722
0.00359782
0.00452972
0.00490916
0.0053467
0.00593336
0.00667599
0.00736366
0.00808003
0.00873494
0.00972558
0.0106109
0.0115499
0.0123976
0.0132947
0.0142931
0.0149248
0.0158763
0.0167212
0.0174291
2.70686e-11
9.23084e-10
1.61819e-08
1.52573e-07
1.03945e-06
4.60111e-06
1.46829e-05
3.85573e-05
8.92511e-05
0.000196817
0.000374363
0.000578264
0.000924868
0.00123426
0.00177615
0.00218159
0.00282916
0.00345912
0.00406165
0.00531212
0.00584489
0.0066859
0.00750276
0.00830478
0.0096538
0.0110943
0.0126513
0.0139677
0.0155174
0.0171208
0.018173
0.0193456
0.020854
0.0220855
0.0246433
0.0262037
0.0278177
0.0294032
0.0309088
0.0324872
1.32291e-10
4.02891e-09
6.20402e-08
6.13778e-07
3.50492e-06
1.29308e-05
3.73558e-05
9.19198e-05
0.000202748
0.000435508
0.000756989
0.00115784
0.0018049
0.00238454
0.00340786
0.0041179
0.00522058
0.00653332
0.00718943
0.00850676
0.0100069
0.0112593
0.0132263
0.0155843
0.0171698
0.0190446
0.0216176
0.0237061
0.0275518
0.0301212
0.033492
0.0373159
0.0415828
0.0462811
0.0512447
0.0561873
0.0608999
0.0651435
0.070579
0.0611696
5.52248e-10
1.45533e-08
2.36435e-07
2.05594e-06
9.79028e-06
3.2504e-05
8.76297e-05
0.00020548
0.000433954
0.000902408
0.00145637
0.0022306
0.00341306
0.00446737
0.0064432
0.00757031
0.00856101
0.0106181
0.0126854
0.01468
0.017177
0.0194639
0.0237816
0.0270265
0.0314398
0.036771
0.0429972
0.0491761
0.0551212
0.0601162
0.0659323
0.0706555
0.0769894
0.0838863
0.091462
0.0969322
0.10206
0.104542
0.110606
0.11106
2.00869e-09
5.35109e-08
8.27661e-07
5.96585e-06
2.45446e-05
7.57854e-05
0.000194386
0.000440922
0.000900559
0.00178816
0.00270893
0.00422922
0.00636867
0.00839404
0.0102089
0.0131309
0.0155778
0.0185697
0.0231761
0.0273894
0.0343877
0.0405136
0.0470602
0.0531413
0.0589451
0.0665756
0.0741473
0.0837342
0.0904011
0.0953906
0.100147
0.103076
0.111154
0.117236
0.115808
0.112909
0.109393
0.106554
0.103746
0.105559
6.86769e-09
1.93764e-07
2.55588e-06
1.49914e-05
5.64543e-05
0.000166334
0.000413885
0.000916081
0.00182759
0.00342954
0.00494192
0.00811142
0.00974726
0.0139282
0.0184713
0.0235256
0.0300367
0.0378819
0.0462901
0.0534272
0.0691498
0.0707225
0.0785497
0.086463
0.0930555
0.0988063
0.102862
0.114198
0.113247
0.11124
0.108725
0.106648
0.102645
0.10004
0.0941938
0.0905427
0.0877192
0.0848621
0.0821444
0.081949
2.46791e-08
6.39364e-07
6.69429e-06
3.38963e-05
0.00012162
0.000349949
0.000856245
0.00186238
0.00366996
0.00644949
0.00898574
0.0126185
0.0174694
0.0259279
0.0350894
0.0451181
0.0550699
0.0639448
0.0767278
0.0848985
0.0937138
0.0974997
0.112016
0.111965
0.109379
0.104818
0.0980037
0.0957026
0.092273
0.0888035
0.0863054
0.0835696
0.0792056
0.0712558
0.0643676
0.0598081
0.0568306
0.0559629
0.0561936
0.0577764
7.85313e-08
1.78898e-06
1.53476e-05
7.21611e-05
0.000253012
0.00071798
0.00174094
0.00378919
0.00739174
0.0099802
0.0147214
0.0250896
0.0360631
0.0475984
0.0581385
0.0739874
0.0889459
0.0964108
0.107209
0.110512
0.108646
0.104418
0.101409
0.0929734
0.0871246
0.0806498
0.0732413
0.0650882
0.0599538
0.0562574
0.0521473
0.047573
0.0436927
0.0403189
0.0391621
0.0388674
0.0391659
0.0398678
0.0410194
0.0432251
2.28051e-07
4.57356e-06
3.3362e-05
0.000151384
0.000520722
0.00146638
0.00357412
0.00789756
0.011021
0.0171972
0.0312773
0.045206
0.0582699
0.0784641
0.0895779
0.110236
0.108293
0.103524
0.101309
0.0943094
0.0884727
0.0831734
0.0717213
0.0584963
0.0454217
0.0380683
0.0340732
0.032755
0.0321719
0.0309379
0.0294513
0.0281894
0.027788
0.0280324
0.0286083
0.0298267
0.0314846
0.0332187
0.0348874
0.0378572
6.47001e-07
1.13026e-05
7.36662e-05
0.000322642
0.00108645
0.00307195
0.00761741
0.0121594
0.0210911
0.0369988
0.0513536
0.073185
0.090282
0.109216
0.105619
0.102009
0.0927136
0.0869091
0.076423
0.0627369
0.049638
0.0389716
0.0296668
0.0260689
0.0240314
0.0214884
0.0201559
0.0193701
0.0191761
0.0194166
0.0198773
0.0205296
0.0216868
0.0232908
0.02511
0.0271791
0.0294477
0.0317531
0.0342425
0.0373732
1.87205e-06
2.82456e-05
0.000171802
0.000719483
0.00239123
0.00681776
0.01128
0.0240342
0.0437199
0.0624546
0.079633
0.108083
0.106072
0.101627
0.0902238
0.0785752
0.0608366
0.0438258
0.0321169
0.0269458
0.0234467
0.0190126
0.0151862
0.0133108
0.0117645
0.0118908
0.012427
0.0134077
0.0147099
0.0161223
0.0176832
0.0193251
0.0212254
0.0233536
0.0256823
0.0282166
0.0309678
0.034081
0.0374246
0.0413504
4.92533e-06
7.29957e-05
0.000434791
0.00176789
0.0057805
0.0102057
0.0240976
0.0461969
0.071244
0.0902178
0.104406
0.101842
0.0923009
0.0793654
0.0596202
0.0379451
0.025597
0.0229564
0.0169762
0.0129649
0.00898714
0.00754024
0.00758006
0.00806289
0.00898585
0.0102443
0.011573
0.0130987
0.0147976
0.0166391
0.018623
0.020839
0.0232007
0.0257387
0.0284742
0.0314256
0.0346163
0.038102
0.0419337
0.0463248
9.61372e-06
0.000211134
0.00127641
0.00503863
0.00903344
0.0229873
0.0485061
0.074012
0.0964614
0.101105
0.0952366
0.081469
0.0650492
0.0414231
0.0252978
0.0210038
0.0156163
0.00808321
0.00549854
0.00481988
0.00501032
0.00552613
0.00645681
0.00778724
0.00933447
0.0110299
0.0129306
0.0148975
0.0169312
0.019052
0.0212996
0.0237252
0.0263313
0.0291319
0.0321448
0.0353872
0.0388801
0.0426568
0.0467718
0.051336
1.48533e-05
0.000751478
0.00467229
0.00854989
0.0224074
0.0493947
0.0748113
0.103669
0.101186
0.0905023
0.0741055
0.0530988
0.0314301
0.0200225
0.0165967
0.00809762
0.00442015
0.00314023
0.0031666
0.00362063
0.00449191
0.00583268
0.00752276
0.00946295
0.0114509
0.0134779
0.0156069
0.0178185
0.0200493
0.0223359
0.0247556
0.0273517
0.0301402
0.0331348
0.036349
0.0397943
0.0434824
0.047429
0.05166
0.0562112
1.14768e-05
0.00358046
0.00893853
0.0210842
0.0489395
0.0739029
0.104956
0.101012
0.0857934
0.0631893
0.0386798
0.023423
0.0186992
0.0127519
0.00526407
0.00264278
0.00200062
0.00222981
0.00280971
0.00396746
0.00571284
0.00778479
0.00991669
0.0122957
0.014499
0.0167085
0.0190485
0.0214768
0.0238161
0.0261875
0.0287357
0.0314747
0.0344074
0.0375445
0.0408949
0.044463
0.0482496
0.0522528
0.0564694
0.0608907
4.0838e-05
0.00800186
0.0206009
0.0485545
0.0712948
0.102752
0.0950347
0.0759564
0.0523475
0.0271227
0.0222817
0.0159995
0.00708057
0.00297427
0.00151456
0.00127521
0.00153493
0.00224519
0.00371694
0.00578297
0.00805395
0.0106646
0.0130603
0.0159069
0.0181002
0.0203955
0.0229992
0.0257025
0.0280201
0.0303843
0.0330606
0.0359311
0.038973
0.0422025
0.0456259
0.0492412
0.0530387
0.0570026
0.0611102
0.0653293
6.12213e-05
0.0272961
0.0509104
0.0716633
0.0978286
0.0899578
0.065625
0.0390307
0.0218234
0.0174026
0.00926461
0.00410654
0.0017069
0.000854466
0.00080419
0.0010592
0.00181099
0.00344484
0.00564349
0.00838436
0.0110275
0.0142019
0.0165656
0.019522
0.022174
0.0247263
0.0273293
0.0299838
0.032624
0.0349885
0.0376294
0.0405934
0.043698
0.046966
0.0504011
0.0539951
0.0577307
0.0615823
0.0655164
0.0694917
9.09666e-05
0.0454746
0.0629103
0.0910253
0.0726546
0.0523359
0.0230645
0.0178207
0.0122221
0.0048238
0.00198139
0.000828469
0.000438636
0.000473566
0.000711433
0.00144351
0.00296603
0.00550629
0.00818499
0.0116073
0.0143224
0.0176719
0.0207294
0.0237181
0.0265213
0.0292014
0.0318487
0.0345131
0.0372236
0.0396904
0.0423598
0.045341
0.0484529
0.0517068
0.0550992
0.0586156
0.0622331
0.0659211
0.069642
0.0733531
4.06197e-05
0.0122879
0.0136206
0.0144983
0.0141446
0.0117856
0.00868544
0.00380603
0.00169893
0.000726815
0.000318064
0.000192745
0.00025255
0.000442405
0.00107118
0.00250575
0.00482945
0.00813906
0.0110507
0.0146396
0.0182769
0.0217927
0.0250585
0.0281281
0.0310077
0.0337504
0.0364282
0.0391
0.041808
0.0443632
0.0470957
0.0500462
0.053121
0.0563169
0.0596227
0.0630188
0.066479
0.0699712
0.0734585
0.0769004
5.73914e-06
0.000941903
0.00185538
0.00184876
0.00160193
0.00110824
0.000652559
0.000357079
0.000191411
0.000101781
7.3481e-05
0.000113654
0.000255422
0.000717648
0.00191274
0.00412926
0.0072715
0.0104006
0.0144914
0.0185492
0.0224452
0.0260981
0.0294681
0.0325888
0.035504
0.0382729
0.0409616
0.0436284
0.0463128
0.0489373
0.0516987
0.0545975
0.0576053
0.0607106
0.0638977
0.0671447
0.0704245
0.0737055
0.0769537
0.0801332
1.83352e-06
5.96654e-05
0.000171377
0.000174776
0.000161146
0.000124055
8.5475e-05
5.96593e-05
3.83044e-05
2.9619e-05
4.6184e-05
0.000140928
0.00047846
0.0013008
0.00334837
0.00580806
0.00958128
0.0138973
0.0183244
0.0226364
0.0266909
0.0304261
0.0338421
0.0369835
0.0399085
0.0426809
0.0453623
0.048012
0.0506702
0.0533337
0.0560757
0.058912
0.0618334
0.064827
0.0678756
0.0709572
0.0740457
0.0771121
0.0801262
0.0830575
6.16725e-07
6.25661e-06
1.95244e-05
2.54618e-05
2.71012e-05
2.57785e-05
2.04522e-05
1.45217e-05
1.22274e-05
1.91301e-05
5.96495e-05
0.000268539
0.000983445
0.00218416
0.00454755
0.0083081
0.0127691
0.0175426
0.0222422
0.0267397
0.0308877
0.0346601
0.0380865
0.0412252
0.0441423
0.0469033
0.0495597
0.0521782
0.0548221
0.0574742
0.0601745
0.0629371
0.0657587
0.0686279
0.0715279
0.0744382
0.0773348
0.0801921
0.0829841
0.0856849
1.96894e-07
1.05216e-06
3.09802e-06
5.77702e-06
7.43647e-06
7.29766e-06
5.96099e-06
4.86121e-06
7.47061e-06
2.48748e-05
0.00013161
0.00056856
0.00140791
0.00329277
0.00666371
0.0110037
0.0159657
0.0211664
0.0261261
0.0307528
0.0349419
0.0387158
0.0421283
0.0452481
0.0481455
0.0508836
0.0534705
0.0560981
0.0587085
0.0613224
0.0639635
0.066642
0.0693558
0.0720948
0.0748441
0.0775848
0.0802962
0.0829559
0.085542
0.0880333
6.06645e-08
2.40294e-07
6.20991e-07
1.34513e-06
2.13422e-06
2.11838e-06
1.8646e-06
2.84709e-06
9.54857e-06
5.64158e-05
0.000292449
0.000845438
0.00213515
0.00496874
0.00907265
0.0139745
0.0192911
0.0246811
0.0299265
0.034601
0.0387836
0.0425317
0.0459148
0.0490065
0.0518758
0.0545482
0.0571075
0.0597211
0.0622924
0.0648542
0.0674253
0.0700132
0.0726161
0.0752251
0.077827
0.0804056
0.0829428
0.08542
0.0878189
0.0901222
1.91649e-08
6.40653e-08
1.19401e-07
2.56762e-07
5.49647e-07
6.15605e-07
9.40567e-07
3.95574e-06
2.01288e-05
0.000129974
0.00044584
0.00135109
0.0037132
0.00753281
0.0122858
0.0175806
0.0230754
0.0284909
0.0335999
0.0382234
0.0423617
0.0460669
0.0494115
0.0524718
0.055284
0.0578596
0.0604746
0.0630373
0.0655587
0.0680599
0.0705553
0.0730505
0.0755435
0.0780268
0.080489
0.0829162
0.0852933
0.0876047
0.0898355
0.0919718
6.954e-09
1.78194e-08
2.64228e-08
6.13716e-08
1.40046e-07
2.34625e-07
9.69538e-07
7.32642e-06
4.66748e-05
0.000202086
0.000756445
0.00242241
0.00565044
0.0101107
0.0153357
0.0209208
0.0265477
0.0319896
0.0370034
0.0415593
0.0456406
0.0492958
0.0525978
0.0556219
0.0583314
0.0609025
0.0635145
0.0660351
0.0685035
0.0709409
0.0733593
0.0757632
0.0781507
0.0805156
0.0828481
0.0851366
0.0873687
0.0895316
0.0916131
0.0936022
3.12896e-09
5.72806e-09
8.91458e-09
2.10234e-08
5.19061e-08
1.965e-07
1.56399e-06
1.16237e-05
7.8004e-05
0.000367297
0.0013934
0.00378362
0.00765562
0.0125903
0.0181553
0.0239506
0.0296686
0.0351095
0.0400764
0.0445768
0.048603
0.0522079
0.0554645
0.0583863
0.0610506
0.0636954
0.0662483
0.0687197
0.0711336
0.0735071
0.0758503
0.078167
0.0804557
0.0827112
0.0849254
0.087089
0.0891915
0.0912228
0.0931729
0.095033
7.91913e-10
1.94702e-09
3.71433e-09
9.39235e-09
3.94065e-08
2.94749e-07
3.1552e-06
2.51829e-05
0.000149929
0.000690032
0.00219749
0.00521517
0.00955413
0.0148562
0.0206857
0.0266456
0.0324293
0.0377974
0.0428053
0.0472692
0.0512477
0.0548062
0.05797
0.060798
0.0635557
0.0661694
0.0686772
0.0711012
0.0734618
0.0757737
0.0780457
0.0802811
0.0824791
0.0846353
0.0867433
0.0887956
0.0907837
0.0926993
0.0945346
0.0962826
1.75805e-10
5.8645e-10
1.53916e-09
6.31093e-09
5.95221e-08
6.48115e-07
6.7923e-06
5.05664e-05
0.000286024
0.00109299
0.00305803
0.00652139
0.0112415
0.0168498
0.0229033
0.029006
0.0348694
0.0402767
0.0452253
0.0496481
0.0535849
0.057085
0.0600839
0.0630213
0.0657594
0.0683441
0.0708136
0.073194
0.0755046
0.077759
0.0799651
0.0821264
0.0842423
0.0863098
0.0883237
0.090278
0.0921659
0.0939809
0.0957166
0.0973676
5.60795e-11
1.96595e-10
9.07729e-10
9.98034e-09
1.3144e-07
1.5025e-06
1.38828e-05
9.63182e-05
0.000446556
0.00149558
0.00383126
0.007641
0.0126832
0.0185594
0.0248113
0.031041
0.0369731
0.0424102
0.0473357
0.0517272
0.0556249
0.0589953
0.0619968
0.0649568
0.06768
0.0702386
0.0726746
0.0750154
0.0772802
0.0794821
0.0816286
0.0837234
0.0857665
0.0877557
0.0896873
0.0915562
0.0933574
0.0950854
0.0967354
0.0983034
4.17673e-11
2.48856e-10
2.18693e-09
3.13957e-08
3.29474e-07
3.27362e-06
2.6379e-05
0.000146903
0.000597289
0.0018433
0.00446972
0.00856536
0.0138854
0.019999
0.0264286
0.0327702
0.0387305
0.0442313
0.0491541
0.0535276
0.0573364
0.0605752
0.0637219
0.066638
0.0693382
0.0718719
0.0742778
0.0765832
0.078807
0.0809619
0.0830556
0.0850917
0.0870711
0.0889924
0.0908527
0.0926483
0.094375
0.0960288
0.0976059
0.0991031
6.82877e-11
6.0677e-10
6.45944e-09
7.72611e-08
7.07372e-07
6.14046e-06
3.96252e-05
0.000192889
0.00072385
0.00212488
0.00497802
0.00931212
0.0148711
0.021193
0.027782
0.0342326
0.0402705
0.0457808
0.0507022
0.0550534
0.0587232
0.0619865
0.0651721
0.0680701
0.0707499
0.073261
0.0756403
0.0779146
0.0801024
0.0822163
0.0842639
0.0862494
0.088174
0.0900371
0.0918367
0.09357
0.0952339
0.096825
0.0983407
0.0997785
1.19418e-10
1.18324e-09
1.30314e-08
1.41427e-07
1.22336e-06
9.14254e-06
5.19448e-05
0.000232258
0.000826605
0.00234859
0.005373
0.00990367
0.0156643
0.0221655
0.0288948
0.0354443
0.0415432
0.047075
0.052005
0.056273
0.0598172
0.0632435
0.0663905
0.0692685
0.0719301
0.0744213
0.0767777
0.0790252
0.0811822
0.083261
0.0852694
0.087212
0.0890904
0.0909048
0.0926537
0.0943351
0.0959467
0.097486
0.0989508
0.10034
1.79096e-10
1.83472e-09
2.05623e-08
2.0452e-07
1.7335e-06
1.1915e-05
6.26139e-05
0.000264684
0.000907871
0.00252143
0.00567395
0.0103615
0.0162875
0.0229387
0.0297873
0.0364205
0.0425726
0.048129
0.0530653
0.0572242
0.060759
0.0642435
0.0673815
0.0702454
0.072892
0.0753665
0.0777036
0.0799287
0.0820599
0.0841096
0.0860858
0.087993
0.0898337
0.0916081
0.0933157
0.094955
0.0965242
0.0980215
0.0994453
0.100794
2.34761e-10
2.42699e-09
2.68896e-08
2.61418e-07
2.1855e-06
1.42686e-05
7.13293e-05
0.000290263
0.000969958
0.00265046
0.0058969
0.0107044
0.0167607
0.0235323
0.0304775
0.0371771
0.0433764
0.0489598
0.0538845
0.0579347
0.0615272
0.0650274
0.0681588
0.0710119
0.0736465
0.0761075
0.0784291
0.0806364
0.0827471
0.0847737
0.0867242
0.0886035
0.0904144
0.0921575
0.0938327
0.0954391
0.0969752
0.0984397
0.0998315
0.10115
2.78336e-10
2.863e-09
3.12831e-08
3.04563e-07
2.53904e-06
1.60822e-05
7.79037e-05
0.000309122
0.00101469
0.00274173
0.0060538
0.0109476
0.0171001
0.0239622
0.0309807
0.0377302
0.0439667
0.0495711
0.0544518
0.0583991
0.062165
0.0656159
0.0687333
0.071577
0.0742022
0.0766531
0.0789631
0.0811569
0.0832524
0.0852617
0.0871932
0.0890519
0.0908407
0.0925608
0.0942122
0.0957943
0.0973061
0.0987466
0.100115
0.10141
3.06556e-10
3.12622e-09
3.3931e-08
3.32293e-07
2.77462e-06
1.72873e-05
8.22255e-05
0.000321354
0.0010433
0.00279945
0.00615288
0.0111022
0.0173176
0.0242395
0.0313076
0.0380951
0.0443516
0.0499682
0.0548105
0.0587316
0.0625601
0.0659998
0.0691084
0.0719455
0.0745645
0.0770086
0.0793109
0.0814959
0.0835812
0.0855792
0.0874982
0.0893435
0.0911179
0.0928229
0.0944588
0.0960251
0.0975211
0.098946
0.100299
0.10158
3.18814e-10
3.24053e-09
3.50856e-08
3.4474e-07
2.8813e-06
1.78316e-05
8.41732e-05
0.00032683
0.00105602
0.00282501
0.00619685
0.0111712
0.017415
0.0243644
0.0314552
0.0382597
0.0445255
0.0501474
0.0549712
0.0588868
0.0627352
0.066173
0.069278
0.0721121
0.0747282
0.0771692
0.079468
0.081649
0.0837298
0.0857226
0.087636
0.0894751
0.091243
0.0929412
0.0945701
0.0961292
0.0976181
0.099036
0.100382
0.101656
0.119169
0.119166
0.119164
0.119163
0.119161
0.11916
0.119158
0.119157
0.119155
0.119154
0.119153
0.119151
0.11915
0.119149
0.119148
0.119146
0.119145
0.119144
0.119143
0.119142
0.119141
0.11914
0.119139
0.119138
0.119137
0.119137
0.119136
0.119135
0.119135
0.119134
0.119134
0.119133
0.119133
0.119132
0.119132
0.119132
0.119132
0.119131
0.119131
0.119131
0.119169
0.119167
0.119165
0.119163
0.119161
0.11916
0.119158
0.119157
0.119155
0.119154
0.119153
0.119151
0.11915
0.119149
0.119147
0.119146
0.119145
0.119144
0.119143
0.119142
0.119141
0.11914
0.119139
0.119138
0.119137
0.119137
0.119136
0.119135
0.119135
0.119134
0.119133
0.119133
0.119133
0.119132
0.119132
0.119132
0.119131
0.119131
0.119131
0.119131
0.119169
0.119167
0.119165
0.119163
0.119161
0.11916
0.119158
0.119157
0.119155
0.119154
0.119153
0.119151
0.11915
0.119149
0.119147
0.119146
0.119145
0.119144
0.119143
0.119142
0.119141
0.11914
0.119139
0.119138
0.119137
0.119136
0.119136
0.119135
0.119134
0.119134
0.119133
0.119133
0.119132
0.119132
0.119132
0.119131
0.119131
0.119131
0.119131
0.119131
0.119169
0.119167
0.119165
0.119163
0.119161
0.11916
0.119158
0.119157
0.119155
0.119154
0.119153
0.119151
0.11915
0.119149
0.119147
0.119146
0.119145
0.119144
0.119143
0.119142
0.119141
0.11914
0.119139
0.119138
0.119137
0.119136
0.119136
0.119135
0.119134
0.119134
0.119133
0.119133
0.119132
0.119132
0.119132
0.119131
0.119131
0.119131
0.119131
0.119131
0.11917
0.119167
0.119165
0.119163
0.119161
0.11916
0.119158
0.119157
0.119155
0.119154
0.119153
0.119151
0.11915
0.119149
0.119147
0.119146
0.119145
0.119144
0.119143
0.119142
0.119141
0.11914
0.119139
0.119138
0.119137
0.119136
0.119135
0.119135
0.119134
0.119133
0.119133
0.119132
0.119132
0.119132
0.119131
0.119131
0.119131
0.119131
0.119131
0.11913
0.11917
0.119167
0.119165
0.119163
0.119161
0.11916
0.119158
0.119157
0.119155
0.119154
0.119153
0.119151
0.11915
0.119149
0.119147
0.119146
0.119145
0.119144
0.119143
0.119141
0.11914
0.119139
0.119138
0.119138
0.119137
0.119136
0.119135
0.119134
0.119134
0.119133
0.119133
0.119132
0.119132
0.119131
0.119131
0.119131
0.119131
0.11913
0.11913
0.11913
0.11917
0.119167
0.119165
0.119163
0.119161
0.11916
0.119158
0.119157
0.119155
0.119154
0.119152
0.119151
0.11915
0.119148
0.119147
0.119146
0.119145
0.119144
0.119142
0.119141
0.11914
0.119139
0.119138
0.119137
0.119137
0.119136
0.119135
0.119134
0.119134
0.119133
0.119132
0.119132
0.119131
0.119131
0.119131
0.119131
0.11913
0.11913
0.11913
0.11913
0.11917
0.119167
0.119165
0.119163
0.119162
0.11916
0.119158
0.119157
0.119155
0.119154
0.119152
0.119151
0.11915
0.119148
0.119147
0.119146
0.119145
0.119143
0.119142
0.119141
0.11914
0.119139
0.119138
0.119137
0.119136
0.119135
0.119135
0.119134
0.119133
0.119133
0.119132
0.119132
0.119131
0.119131
0.119131
0.11913
0.11913
0.11913
0.11913
0.11913
0.11917
0.119167
0.119165
0.119163
0.119162
0.11916
0.119158
0.119157
0.119155
0.119154
0.119152
0.119151
0.11915
0.119148
0.119147
0.119146
0.119144
0.119143
0.119142
0.119141
0.11914
0.119139
0.119138
0.119137
0.119136
0.119135
0.119135
0.119134
0.119133
0.119133
0.119132
0.119131
0.119131
0.119131
0.11913
0.11913
0.11913
0.11913
0.119129
0.119129
0.11917
0.119168
0.119165
0.119163
0.119162
0.11916
0.119158
0.119157
0.119155
0.119154
0.119152
0.119151
0.11915
0.119148
0.119147
0.119146
0.119144
0.119143
0.119142
0.119141
0.11914
0.119139
0.119138
0.119137
0.119136
0.119135
0.119134
0.119134
0.119133
0.119132
0.119132
0.119131
0.119131
0.11913
0.11913
0.11913
0.119129
0.119129
0.119129
0.119129
0.11917
0.119168
0.119165
0.119163
0.119162
0.11916
0.119158
0.119157
0.119155
0.119154
0.119152
0.119151
0.11915
0.119148
0.119147
0.119146
0.119144
0.119143
0.119142
0.119141
0.11914
0.119139
0.119138
0.119137
0.119136
0.119135
0.119134
0.119133
0.119133
0.119132
0.119131
0.119131
0.11913
0.11913
0.11913
0.119129
0.119129
0.119129
0.119129
0.119129
0.11917
0.119168
0.119166
0.119164
0.119162
0.11916
0.119159
0.119157
0.119155
0.119154
0.119152
0.119151
0.11915
0.119148
0.119147
0.119145
0.119144
0.119143
0.119142
0.119141
0.119139
0.119138
0.119137
0.119136
0.119135
0.119135
0.119134
0.119133
0.119132
0.119132
0.119131
0.119131
0.11913
0.11913
0.119129
0.119129
0.119129
0.119129
0.119129
0.119129
0.119171
0.119168
0.119166
0.119164
0.119162
0.11916
0.119159
0.119157
0.119155
0.119154
0.119152
0.119151
0.119149
0.119148
0.119147
0.119145
0.119144
0.119143
0.119142
0.11914
0.119139
0.119138
0.119137
0.119136
0.119135
0.119134
0.119134
0.119133
0.119132
0.119131
0.119131
0.11913
0.11913
0.11913
0.119129
0.119129
0.119129
0.119128
0.119128
0.119128
0.119171
0.119168
0.119166
0.119164
0.119162
0.11916
0.119159
0.119157
0.119155
0.119154
0.119152
0.119151
0.119149
0.119148
0.119147
0.119145
0.119144
0.119143
0.119141
0.11914
0.119139
0.119138
0.119137
0.119136
0.119135
0.119134
0.119133
0.119133
0.119132
0.119131
0.119131
0.11913
0.11913
0.119129
0.119129
0.119129
0.119128
0.119128
0.119128
0.119128
0.119171
0.119168
0.119166
0.119164
0.119162
0.11916
0.119159
0.119157
0.119155
0.119154
0.119152
0.119151
0.119149
0.119148
0.119147
0.119145
0.119144
0.119143
0.119141
0.11914
0.119139
0.119138
0.119137
0.119136
0.119135
0.119134
0.119133
0.119132
0.119132
0.119131
0.11913
0.11913
0.119129
0.119129
0.119129
0.119128
0.119128
0.119128
0.119128
0.119128
0.119171
0.119168
0.119166
0.119164
0.119162
0.11916
0.119159
0.119157
0.119155
0.119154
0.119152
0.119151
0.119149
0.119148
0.119146
0.119145
0.119144
0.119142
0.119141
0.11914
0.119139
0.119138
0.119137
0.119136
0.119135
0.119134
0.119133
0.119132
0.119131
0.119131
0.11913
0.11913
0.119129
0.119129
0.119128
0.119128
0.119128
0.119128
0.119127
0.119127
0.119171
0.119168
0.119166
0.119164
0.119162
0.11916
0.119159
0.119157
0.119156
0.119154
0.119152
0.119151
0.119149
0.119148
0.119146
0.119145
0.119144
0.119142
0.119141
0.11914
0.119139
0.119137
0.119136
0.119135
0.119134
0.119133
0.119133
0.119132
0.119131
0.11913
0.11913
0.119129
0.119129
0.119128
0.119128
0.119128
0.119127
0.119127
0.119127
0.119127
0.119171
0.119169
0.119166
0.119164
0.119162
0.119161
0.119159
0.119157
0.119156
0.119154
0.119152
0.119151
0.119149
0.119148
0.119146
0.119145
0.119143
0.119142
0.119141
0.11914
0.119138
0.119137
0.119136
0.119135
0.119134
0.119133
0.119132
0.119132
0.119131
0.11913
0.11913
0.119129
0.119129
0.119128
0.119128
0.119127
0.119127
0.119127
0.119127
0.119127
0.119172
0.119169
0.119166
0.119164
0.119162
0.119161
0.119159
0.119157
0.119156
0.119154
0.119152
0.119151
0.119149
0.119148
0.119146
0.119145
0.119143
0.119142
0.119141
0.119139
0.119138
0.119137
0.119136
0.119135
0.119134
0.119133
0.119132
0.119131
0.119131
0.11913
0.119129
0.119129
0.119128
0.119128
0.119127
0.119127
0.119127
0.119127
0.119127
0.119126
0.119172
0.119169
0.119166
0.119164
0.119163
0.119161
0.119159
0.119157
0.119156
0.119154
0.119152
0.119151
0.119149
0.119148
0.119146
0.119145
0.119143
0.119142
0.119141
0.119139
0.119138
0.119137
0.119136
0.119135
0.119134
0.119133
0.119132
0.119131
0.11913
0.11913
0.119129
0.119128
0.119128
0.119127
0.119127
0.119127
0.119127
0.119126
0.119126
0.119126
0.119172
0.119169
0.119167
0.119165
0.119163
0.119161
0.119159
0.119157
0.119156
0.119154
0.119152
0.119151
0.119149
0.119148
0.119146
0.119145
0.119143
0.119142
0.11914
0.119139
0.119138
0.119137
0.119136
0.119134
0.119133
0.119133
0.119132
0.119131
0.11913
0.119129
0.119129
0.119128
0.119128
0.119127
0.119127
0.119126
0.119126
0.119126
0.119126
0.119126
0.119172
0.119169
0.119167
0.119165
0.119163
0.119161
0.119159
0.119157
0.119156
0.119154
0.119152
0.119151
0.119149
0.119147
0.119146
0.119144
0.119143
0.119142
0.11914
0.119139
0.119138
0.119136
0.119135
0.119134
0.119133
0.119132
0.119131
0.119131
0.11913
0.119129
0.119128
0.119128
0.119127
0.119127
0.119126
0.119126
0.119126
0.119126
0.119126
0.119125
0.119172
0.119169
0.119167
0.119165
0.119163
0.119161
0.119159
0.119157
0.119156
0.119154
0.119152
0.119151
0.119149
0.119147
0.119146
0.119144
0.119143
0.119141
0.11914
0.119139
0.119137
0.119136
0.119135
0.119134
0.119133
0.119132
0.119131
0.11913
0.119129
0.119129
0.119128
0.119128
0.119127
0.119127
0.119126
0.119126
0.119126
0.119125
0.119125
0.119125
0.119172
0.11917
0.119167
0.119165
0.119163
0.119161
0.119159
0.119157
0.119156
0.119154
0.119152
0.119151
0.119149
0.119147
0.119146
0.119144
0.119143
0.119141
0.11914
0.119139
0.119137
0.119136
0.119135
0.119134
0.119133
0.119132
0.119131
0.11913
0.119129
0.119128
0.119128
0.119127
0.119127
0.119126
0.119126
0.119125
0.119125
0.119125
0.119125
0.119125
0.119173
0.11917
0.119167
0.119165
0.119163
0.119161
0.119159
0.119157
0.119156
0.119154
0.119152
0.119151
0.119149
0.119147
0.119146
0.119144
0.119143
0.119141
0.11914
0.119138
0.119137
0.119136
0.119135
0.119134
0.119133
0.119132
0.119131
0.11913
0.119129
0.119128
0.119128
0.119127
0.119126
0.119126
0.119125
0.119125
0.119125
0.119125
0.119125
0.119125
0.119173
0.11917
0.119167
0.119165
0.119163
0.119161
0.119159
0.119158
0.119156
0.119154
0.119152
0.11915
0.119149
0.119147
0.119146
0.119144
0.119142
0.119141
0.11914
0.119138
0.119137
0.119136
0.119134
0.119133
0.119132
0.119131
0.11913
0.119129
0.119129
0.119128
0.119127
0.119127
0.119126
0.119126
0.119125
0.119125
0.119125
0.119124
0.119124
0.119124
0.119173
0.11917
0.119168
0.119165
0.119163
0.119161
0.119159
0.119158
0.119156
0.119154
0.119152
0.11915
0.119149
0.119147
0.119145
0.119144
0.119142
0.119141
0.119139
0.119138
0.119137
0.119135
0.119134
0.119133
0.119132
0.119131
0.11913
0.119129
0.119128
0.119128
0.119127
0.119126
0.119126
0.119125
0.119125
0.119124
0.119124
0.119124
0.119124
0.119124
0.119173
0.11917
0.119168
0.119165
0.119163
0.119161
0.11916
0.119158
0.119156
0.119154
0.119152
0.11915
0.119149
0.119147
0.119145
0.119144
0.119142
0.119141
0.119139
0.119138
0.119137
0.119135
0.119134
0.119133
0.119132
0.119131
0.11913
0.119129
0.119128
0.119127
0.119127
0.119126
0.119125
0.119125
0.119124
0.119124
0.119124
0.119124
0.119124
0.119123
0.119173
0.11917
0.119168
0.119166
0.119164
0.119162
0.11916
0.119158
0.119156
0.119154
0.119152
0.11915
0.119149
0.119147
0.119145
0.119144
0.119142
0.119141
0.119139
0.119138
0.119136
0.119135
0.119134
0.119133
0.119131
0.11913
0.119129
0.119129
0.119128
0.119127
0.119126
0.119126
0.119125
0.119125
0.119124
0.119124
0.119124
0.119123
0.119123
0.119123
0.119174
0.119171
0.119168
0.119166
0.119164
0.119162
0.11916
0.119158
0.119156
0.119154
0.119152
0.11915
0.119149
0.119147
0.119145
0.119144
0.119142
0.11914
0.119139
0.119137
0.119136
0.119135
0.119134
0.119132
0.119131
0.11913
0.119129
0.119128
0.119127
0.119127
0.119126
0.119125
0.119125
0.119124
0.119124
0.119123
0.119123
0.119123
0.119123
0.119123
0.119174
0.119171
0.119168
0.119166
0.119164
0.119162
0.11916
0.119158
0.119156
0.119154
0.119152
0.11915
0.119149
0.119147
0.119145
0.119143
0.119142
0.11914
0.119139
0.119137
0.119136
0.119135
0.119133
0.119132
0.119131
0.11913
0.119129
0.119128
0.119127
0.119126
0.119126
0.119125
0.119124
0.119124
0.119123
0.119123
0.119123
0.119123
0.119122
0.119122
0.119174
0.119171
0.119168
0.119166
0.119164
0.119162
0.11916
0.119158
0.119156
0.119154
0.119152
0.11915
0.119148
0.119147
0.119145
0.119143
0.119142
0.11914
0.119139
0.119137
0.119136
0.119134
0.119133
0.119132
0.119131
0.11913
0.119129
0.119128
0.119127
0.119126
0.119125
0.119125
0.119124
0.119124
0.119123
0.119123
0.119122
0.119122
0.119122
0.119122
0.119174
0.119171
0.119169
0.119166
0.119164
0.119162
0.11916
0.119158
0.119156
0.119154
0.119152
0.11915
0.119148
0.119147
0.119145
0.119143
0.119142
0.11914
0.119138
0.119137
0.119135
0.119134
0.119133
0.119132
0.11913
0.119129
0.119128
0.119127
0.119126
0.119126
0.119125
0.119124
0.119124
0.119123
0.119123
0.119122
0.119122
0.119122
0.119122
0.119122
0.119175
0.119171
0.119169
0.119166
0.119164
0.119162
0.11916
0.119158
0.119156
0.119154
0.119152
0.11915
0.119148
0.119147
0.119145
0.119143
0.119141
0.11914
0.119138
0.119137
0.119135
0.119134
0.119133
0.119131
0.11913
0.119129
0.119128
0.119127
0.119126
0.119125
0.119125
0.119124
0.119123
0.119123
0.119122
0.119122
0.119122
0.119121
0.119121
0.119121
0.119175
0.119172
0.119169
0.119167
0.119164
0.119162
0.11916
0.119158
0.119156
0.119154
0.119152
0.11915
0.119148
0.119146
0.119145
0.119143
0.119141
0.11914
0.119138
0.119136
0.119135
0.119134
0.119132
0.119131
0.11913
0.119129
0.119128
0.119127
0.119126
0.119125
0.119124
0.119124
0.119123
0.119122
0.119122
0.119122
0.119121
0.119121
0.119121
0.119121
0.119175