/*--------------------------------*- C++ -*----------------------------------*\
| =========                 |                                                 |
| \\      /  F ield         | OpenFOAM: The Open Source CFD Toolbox           |
|  \\    /   O peration     | Version:  2.3.0                                 |
|   \\  /    A nd           | Web:      www.OpenFOAM.org                      |
|    \\/     M anipulation  |                                                 |
\*---------------------------------------------------------------------------*/
FoamFile
{
    version     2.0;
    format      ascii;
    class       surfaceScalarField;
    location    "10";
    object      phi;
}
// * * * * * * * * * * * * * * * * * * * * * * * * * * * * * * * * * * * * * //

dimensions      [1 0 -1 0 0 0 0];

internalField   nonuniform List<scalar> 
52739
(
4.48242e-05
6.41295e-07
4.56874e-05
-8.69542e-07
4.73824e-05
-1.69273e-06
4.95531e-05
-2.1572e-06
5.22317e-05
-2.65322e-06
5.53981e-05
-3.12904e-06
5.90017e-05
-3.55412e-06
6.30209e-05
-3.95901e-06
6.7394e-05
-4.30669e-06
7.20477e-05
-4.58782e-06
7.68508e-05
-4.74713e-06
8.17758e-05
-4.88694e-06
8.66221e-05
-4.83089e-06
9.14272e-05
-4.81574e-06
9.60811e-05
-4.69091e-06
0.000100624
-4.60614e-06
0.000105059
-4.52738e-06
0.000109523
-4.58699e-06
0.000113886
-4.52259e-06
0.00011821
-4.50983e-06
0.000122374
-4.37865e-06
0.00012652
-4.37488e-06
0.000130749
-4.44417e-06
0.000134736
-4.19729e-06
0.000138561
-4.04488e-06
0.000142353
-4.0284e-06
0.000146092
-3.96907e-06
0.000149873
-3.967e-06
0.000153676
-3.90533e-06
0.000157247
-3.57568e-06
0.000160802
-3.48018e-06
0.0001644
-3.47477e-06
0.000168004
-3.46384e-06
0.000171493
-3.34598e-06
0.000174772
-3.12829e-06
0.000177723
-2.76825e-06
0.000180407
-2.48149e-06
0.00018315
-2.52103e-06
0.000186105
-2.72741e-06
-1.43507e-06
0.000187668
4.48142e-05
1.38369e-07
4.63475e-05
-2.41189e-06
4.85909e-05
-3.93868e-06
5.14401e-05
-5.0001e-06
5.47239e-05
-5.91955e-06
5.84213e-05
-6.79608e-06
6.24967e-05
-7.58649e-06
6.68852e-05
-8.29209e-06
7.14811e-05
-8.83854e-06
7.61572e-05
-9.19684e-06
8.08529e-05
-9.37988e-06
8.55486e-05
-9.52519e-06
9.01556e-05
-9.38612e-06
9.46886e-05
-9.30725e-06
9.90518e-05
-9.0337e-06
0.000103238
-8.79167e-06
0.000107227
-8.57023e-06
0.000111206
-8.6017e-06
0.000114847
-8.39773e-06
0.000118438
-8.21123e-06
0.000121753
-7.92744e-06
0.000124749
-7.80072e-06
0.00012769
-7.54768e-06
0.000130128
-6.99469e-06
0.000132377
-6.71869e-06
0.000134341
-6.59279e-06
0.000136277
-6.40462e-06
0.000138153
-6.18112e-06
0.000140209
-6.00635e-06
0.000142745
-6.0573e-06
0.000145393
-6.04373e-06
0.000147935
-5.91691e-06
0.000150347
-5.75586e-06
0.000152739
-5.53977e-06
0.000155161
-5.28654e-06
0.00015736
-4.72286e-06
0.000159657
-4.43499e-06
0.000161813
-4.39799e-06
0.000163747
-4.47216e-06
-4.30959e-06
0.000166782
4.4092e-05
-7.94728e-07
4.53909e-05
-3.72077e-06
4.74592e-05
-6.0114e-06
5.01001e-05
-7.63692e-06
5.33392e-05
-9.14379e-06
5.70818e-05
-1.05116e-05
6.11645e-05
-1.16293e-05
6.54488e-05
-1.2525e-05
6.98369e-05
-1.31671e-05
7.41712e-05
-1.34697e-05
7.84441e-05
-1.3591e-05
8.25968e-05
-1.36148e-05
8.6567e-05
-1.32772e-05
9.03314e-05
-1.30043e-05
9.38185e-05
-1.24513e-05
9.70227e-05
-1.18992e-05
9.9784e-05
-1.14113e-05
0.0001027
-1.13548e-05
0.00010487
-1.09627e-05
0.000106755
-1.03776e-05
0.000108631
-9.82798e-06
0.000109403
-9.45657e-06
0.000110655
-9.04131e-06
0.000112526
-8.87863e-06
0.000114097
-8.28539e-06
0.000114925
-8.00339e-06
0.000115584
-7.63229e-06
0.000116362
-7.34641e-06
0.000117113
-6.88079e-06
0.000117188
-6.09854e-06
0.000116887
-5.77355e-06
0.000116781
-5.75847e-06
0.000116905
-5.73007e-06
0.000117215
-5.62998e-06
0.000117371
-5.17768e-06
0.0001174
-4.39731e-06
0.000117482
-3.98071e-06
0.000116195
-3.20979e-06
0.000114591
-2.26143e-06
7.40469e-07
0.000109856
4.30965e-05
-1.88547e-06
4.45222e-05
-5.15789e-06
4.65123e-05
-8.00776e-06
4.91326e-05
-1.02555e-05
5.22987e-05
-1.2298e-05
5.58158e-05
-1.40047e-05
5.96005e-05
-1.53772e-05
6.35496e-05
-1.64252e-05
6.7531e-05
-1.70928e-05
7.13407e-05
-1.72264e-05
7.50042e-05
-1.71922e-05
7.83986e-05
-1.69412e-05
8.14696e-05
-1.6259e-05
8.42097e-05
-1.56576e-05
8.65311e-05
-1.46674e-05
8.85326e-05
-1.37003e-05
8.97863e-05
-1.28842e-05
9.1369e-05
-1.26063e-05
9.17981e-05
-1.17639e-05
9.22695e-05
-1.13139e-05
9.32869e-05
-1.11395e-05
9.40147e-05
-1.05238e-05
9.47187e-05
-9.86967e-06
9.44318e-05
-8.77316e-06
9.31564e-05
-7.87817e-06
9.19525e-05
-7.51518e-06
9.10096e-05
-7.10843e-06
9.02724e-05
-6.81127e-06
8.94661e-05
-6.13898e-06
8.89634e-05
-5.66207e-06
8.87964e-05
-5.63955e-06
8.8496e-05
-5.46109e-06
8.81119e-05
-5.17647e-06
8.71422e-05
-4.65719e-06
8.60979e-05
-4.01649e-06
8.54167e-05
-3.52451e-06
8.46803e-05
-3.06298e-06
8.34491e-05
-1.84626e-06
8.20231e-05
-5.95311e-07
2.86375e-06
7.99963e-05
4.19274e-05
-2.95954e-06
4.34104e-05
-6.65333e-06
4.53639e-05
-9.96919e-06
4.79154e-05
-1.28076e-05
5.08752e-05
-1.52488e-05
5.41391e-05
-1.72479e-05
5.76241e-05
-1.8828e-05
6.12098e-05
-1.99618e-05
6.469e-05
-2.05199e-05
6.78176e-05
-2.03091e-05
7.06754e-05
-1.99937e-05
7.30293e-05
-1.92345e-05
7.48786e-05
-1.80288e-05
7.62679e-05
-1.69631e-05
7.71731e-05
-1.54431e-05
7.77848e-05
-1.39659e-05
7.72315e-05
-1.34095e-05
7.79747e-05
-1.25331e-05
7.82405e-05
-1.1738e-05
7.77359e-05
-1.11888e-05
7.72953e-05
-1.11561e-05
7.63912e-05
-9.9151e-06
7.47423e-05
-8.44271e-06
7.32398e-05
-7.62189e-06
7.21951e-05
-7.35272e-06
7.09037e-05
-6.69784e-06
6.93928e-05
-5.96941e-06
6.7588e-05
-5.17551e-06
6.56124e-05
-4.27833e-06
6.37952e-05
-3.90305e-06
6.17557e-05
-3.60358e-06
5.96746e-05
-3.38259e-06
5.76418e-05
-3.16902e-06
5.57784e-05
-2.82989e-06
5.4135e-05
-2.39798e-06
5.26819e-05
-2.07671e-06
5.15955e-05
-1.95738e-06
5.11798e-05
-1.46696e-06
5.17867e-05
-1.08622e-06
5.81893e-07
5.42623e-05
4.07956e-05
-4.05447e-06
4.22271e-05
-8.0984e-06
4.41319e-05
-1.18838e-05
4.6525e-05
-1.52043e-05
4.92403e-05
-1.79591e-05
5.22358e-05
-2.02264e-05
5.53921e-05
-2.19511e-05
5.85345e-05
-2.30434e-05
6.13248e-05
-2.32565e-05
6.3523e-05
-2.24712e-05
6.52965e-05
-2.17311e-05
6.62067e-05
-2.01147e-05
6.65196e-05
-1.83085e-05
6.60551e-05
-1.64488e-05
6.56204e-05
-1.48614e-05
6.56974e-05
-1.37807e-05
6.49824e-05
-1.26124e-05
6.39678e-05
-1.11919e-05
6.23589e-05
-1.05115e-05
6.1043e-05
-1.04265e-05
6.02933e-05
-1.11893e-05
5.80395e-05
-8.04329e-06
5.56208e-05
-6.1639e-06
5.3284e-05
-5.48889e-06
5.05603e-05
-4.95342e-06
4.78188e-05
-4.34358e-06
4.54341e-05
-3.89643e-06
4.35582e-05
-3.5003e-06
4.2085e-05
-2.92444e-06
4.08343e-05
-2.65308e-06
3.9837e-05
-2.51361e-06
3.90595e-05
-2.50991e-06
3.8155e-05
-2.32894e-06
3.73006e-05
-2.04401e-06
3.67048e-05
-1.88151e-06
3.64877e-05
-1.90605e-06
3.65363e-05
-1.94002e-06
3.68011e-05
-1.65669e-06
3.72179e-05
-1.20785e-06
-1.0262e-06
3.91592e-05
3.96194e-05
-5.12581e-06
4.10197e-05
-9.51368e-06
4.28815e-05
-1.37578e-05
4.50577e-05
-1.73883e-05
4.753e-05
-2.0432e-05
5.02195e-05
-2.29044e-05
5.2948e-05
-2.46455e-05
5.54586e-05
-2.54657e-05
5.72498e-05
-2.49826e-05
5.82085e-05
-2.33936e-05
5.85693e-05
-2.20895e-05
5.74761e-05
-1.90346e-05
5.61814e-05
-1.70511e-05
5.52678e-05
-1.55383e-05
5.40316e-05
-1.34863e-05
5.20771e-05
-1.17961e-05
5.02839e-05
-1.05858e-05
4.80849e-05
-8.82782e-06
4.50104e-05
-7.57571e-06
4.19453e-05
-7.42346e-06
4.1421e-05
-1.13001e-05
3.85344e-05
-5.55466e-06
3.66314e-05
-4.31968e-06
3.5121e-05
-4.02183e-06
3.37299e-05
-3.69453e-06
3.25039e-05
-3.36579e-06
3.16084e-05
-3.18528e-06
3.08401e-05
-2.79621e-06
3.03452e-05
-2.45113e-06
3.01105e-05
-2.41189e-06
3.00311e-05
-2.43601e-06
2.99428e-05
-2.40741e-06
2.96657e-05
-2.38167e-06
3.01082e-05
-2.47915e-06
3.10268e-05
-2.75964e-06
3.22197e-05
-2.97157e-06
3.33372e-05
-2.92564e-06
3.45424e-05
-2.76966e-06
3.54039e-05
-2.14079e-06
-2.02792e-06
3.62946e-05
3.84241e-05
-6.15453e-06
3.98355e-05
-1.09417e-05
4.16053e-05
-1.55432e-05
4.35814e-05
-1.93785e-05
4.57917e-05
-2.26527e-05
4.80866e-05
-2.51987e-05
5.0186e-05
-2.6713e-05
5.17304e-05
-2.68775e-05
5.21102e-05
-2.5242e-05
5.15623e-05
-2.28101e-05
5.01964e-05
-2.06439e-05
4.8395e-05
-1.73785e-05
4.65613e-05
-1.54632e-05
4.36551e-05
-1.25455e-05
4.07514e-05
-1.05091e-05
3.76581e-05
-8.80307e-06
3.4465e-05
-7.13342e-06
3.16838e-05
-6.00498e-06
2.8938e-05
-4.83396e-06
2.44516e-05
-3.47343e-06
3.00731e-05
2.24968e-06
2.7365e-05
-2.76076e-06
2.63182e-05
-3.24705e-06
2.55049e-05
-3.23743e-06
2.50856e-05
-3.2835e-06
2.50747e-05
-3.38117e-06
2.51149e-05
-3.27647e-06
2.52194e-05
-3.03738e-06
2.56231e-05
-3.01852e-06
2.61743e-05
-3.18729e-06
2.66292e-05
-3.14103e-06
2.71781e-05
-3.0985e-06
2.78634e-05
-3.0413e-06
2.85592e-05
-3.07745e-06
2.91952e-05
-3.26171e-06
2.9678e-05
-3.33963e-06
3.01767e-05
-3.33148e-06
3.07643e-05
-3.26296e-06
3.12978e-05
-2.83306e-06
-2.60523e-06
3.19924e-05
3.7253e-05
-7.16484e-06
3.87048e-05
-1.24123e-05
4.03312e-05
-1.71902e-05
4.21206e-05
-2.1192e-05
4.40158e-05
-2.45759e-05
4.57413e-05
-2.69473e-05
4.68578e-05
-2.7819e-05
4.69386e-05
-2.67665e-05
4.54666e-05
-2.35605e-05
4.3502e-05
-2.07834e-05
4.18983e-05
-1.85776e-05
3.87595e-05
-1.54588e-05
3.48654e-05
-1.16508e-05
3.10066e-05
-8.82345e-06
2.79092e-05
-7.53609e-06
2.55096e-05
-6.45596e-06
2.37041e-05
-5.38029e-06
2.22495e-05
-4.5993e-06
2.10758e-05
-3.57723e-06
2.01513e-05
-2.59665e-06
2.25035e-05
-2.43478e-07
2.1623e-05
-1.97703e-06
2.08876e-05
-2.61595e-06
2.09821e-05
-3.33802e-06
2.15357e-05
-3.7889e-06
2.2227e-05
-3.98872e-06
2.28066e-05
-3.89152e-06
2.31983e-05
-3.57604e-06
2.32166e-05
-3.46513e-06
2.32437e-05
-3.2424e-06
2.30483e-05
-3.11378e-06
2.29654e-05
-3.11395e-06
2.34035e-05
-3.29809e-06
2.42699e-05
-3.51216e-06
2.4951e-05
-3.59346e-06
2.54374e-05
-3.63916e-06
2.57131e-05
-3.57392e-06
2.56416e-05
-3.42915e-06
2.55814e-05
-3.03235e-06
-2.82301e-06
2.55693e-05
3.6129e-05
-8.20368e-06
3.75681e-05
-1.3873e-05
3.90708e-05
-1.87198e-05
4.06584e-05
-2.28185e-05
4.21174e-05
-2.60924e-05
4.29591e-05
-2.78586e-05
4.25296e-05
-2.74301e-05
4.05622e-05
-2.45464e-05
3.84649e-05
-2.10943e-05
3.60734e-05
-1.83483e-05
3.18515e-05
-1.36563e-05
2.70882e-05
-1.02525e-05
2.36075e-05
-8.49939e-06
2.1504e-05
-6.90997e-06
1.99021e-05
-6.02401e-06
1.84924e-05
-5.12026e-06
1.75806e-05
-4.52939e-06
1.69994e-05
-4.172e-06
1.68436e-05
-3.2381e-06
1.68253e-05
-2.78192e-06
1.82276e-05
-1.90344e-06
1.84271e-05
-2.37172e-06
1.84965e-05
-2.75318e-06
1.8422e-05
-3.18384e-06
1.81834e-05
-3.482e-06
1.81036e-05
-3.78928e-06
1.81955e-05
-4.07049e-06
1.83709e-05
-4.06222e-06
1.83121e-05
-3.82453e-06
1.83065e-05
-3.5263e-06
1.84631e-05
-3.31669e-06
1.87238e-05
-3.20661e-06
1.90322e-05
-3.22847e-06
1.92604e-05
-3.34435e-06
1.91725e-05
-3.50763e-06
1.90636e-05
-3.52784e-06
1.89051e-05
-3.49741e-06
1.8696e-05
-3.38291e-06
1.85629e-05
-3.06955e-06
-2.73152e-06
1.83748e-05
3.50217e-05
-9.2879e-06
3.63963e-05
-1.52715e-05
3.78074e-05
-2.01649e-05
3.91236e-05
-2.41939e-05
3.98972e-05
-2.69688e-05
3.93057e-05
-2.74176e-05
3.66096e-05
-2.49006e-05
3.42502e-05
-2.14863e-05
3.16059e-05
-1.73152e-05
2.65798e-05
-1.33897e-05
2.16819e-05
-1.01079e-05
1.90628e-05
-7.84388e-06
1.69879e-05
-6.58197e-06
1.56656e-05
-5.67731e-06
1.48555e-05
-5.24795e-06
1.44504e-05
-4.70682e-06
1.4497e-05
-4.61427e-06
1.43577e-05
-4.1872e-06
1.42497e-05
-3.31359e-06
1.41131e-05
-2.73902e-06
1.42047e-05
-2.09303e-06
1.3929e-05
-2.18926e-06
1.38815e-05
-2.70376e-06
1.41178e-05
-3.2121e-06
1.44353e-05
-3.58559e-06
1.45568e-05
-3.84273e-06
1.42823e-05
-4.0323e-06
1.39408e-05
-4.0226e-06
1.36838e-05
-3.82593e-06
1.36252e-05
-3.55009e-06
1.37182e-05
-3.31569e-06
1.38231e-05
-3.15636e-06
1.38033e-05
-3.09413e-06
1.3659e-05
-3.13249e-06
1.339e-05
-3.22559e-06
1.30546e-05
-3.2727e-06
1.2733e-05
-3.26185e-06
1.24499e-05
-3.16753e-06
1.22833e-05
-2.94056e-06
-2.54353e-06
1.20984e-05
3.38561e-05
-1.03594e-05
3.51889e-05
-1.66279e-05
3.64923e-05
-2.15083e-05
3.73535e-05
-2.5138e-05
3.69501e-05
-2.6727e-05
3.41313e-05
-2.48804e-05
3.0577e-05
-2.19616e-05
2.74746e-05
-1.63531e-05
2.21292e-05
-1.26426e-05
1.80366e-05
-9.29783e-06
1.56563e-05
-7.74085e-06
1.39499e-05
-6.14886e-06
1.28468e-05
-5.54613e-06
1.23868e-05
-5.14067e-06
1.21316e-05
-4.94586e-06
1.17417e-05
-4.29952e-06
1.08394e-05
-3.78379e-06
9.95435e-06
-3.44696e-06
9.54009e-06
-3.29484e-06
9.53959e-06
-3.19335e-06
1.00814e-05
-2.94829e-06
1.08537e-05
-2.91774e-06
1.13654e-05
-3.14397e-06
1.15648e-05
-3.38001e-06
1.1731e-05
-3.68713e-06
1.18034e-05
-3.95735e-06
1.16497e-05
-4.06883e-06
1.14554e-05
-3.9686e-06
1.12867e-05
-3.69493e-06
1.11294e-05
-3.37015e-06
1.09751e-05
-3.10594e-06
1.07986e-05
-2.9175e-06
1.05486e-05
-2.81691e-06
1.0218e-05
-2.79697e-06
9.80921e-06
-2.83008e-06
9.37098e-06
-2.85527e-06
8.94672e-06
-2.84656e-06
8.55493e-06
-2.76873e-06
8.2642e-06
-2.63059e-06
-2.30702e-06
8.05462e-06
3.2555e-05
-1.12812e-05
3.3951e-05
-1.80434e-05
3.50165e-05
-2.26124e-05
3.49727e-05
-2.51939e-05
3.25421e-05
-2.45153e-05
2.88586e-05
-2.20789e-05
2.45627e-05
-1.82305e-05
1.88171e-05
-1.22515e-05
1.4946e-05
-8.74171e-06
1.30057e-05
-7.35235e-06
1.16466e-05
-6.38551e-06
1.08186e-05
-5.33504e-06
1.03761e-05
-5.09947e-06
9.69036e-06
-4.30094e-06
8.46242e-06
-3.71632e-06
7.57942e-06
-3.45832e-06
7.32581e-06
-3.65605e-06
7.43722e-06
-3.88717e-06
7.67494e-06
-4.0068e-06
8.1975e-06
-3.7889e-06
8.96567e-06
-3.7994e-06
9.90965e-06
-3.92516e-06
1.07347e-05
-3.96331e-06
1.12704e-05
-3.92147e-06
1.14484e-05
-3.90015e-06
1.12551e-05
-3.81135e-06
1.08452e-05
-3.7115e-06
1.0373e-05
-3.53484e-06
9.94587e-06
-3.26772e-06
9.57114e-06
-2.98013e-06
9.21825e-06
-2.73475e-06
8.86481e-06
-2.55165e-06
8.48878e-06
-2.43795e-06
8.07925e-06
-2.38726e-06
7.63179e-06
-2.38103e-06
7.16677e-06
-2.38292e-06
6.70499e-06
-2.36985e-06
6.27044e-06
-2.31275e-06
5.87884e-06
-2.21519e-06
-1.99803e-06
5.59341e-06
3.14154e-05
-1.22146e-05
3.27634e-05
-1.94004e-05
3.30645e-05
-2.29274e-05
3.11515e-05
-2.33594e-05
2.78352e-05
-2.16753e-05
2.25524e-05
-1.8504e-05
1.70739e-05
-1.14639e-05
1.30531e-05
-8.20153e-06
1.10919e-05
-6.7656e-06
1.00823e-05
-6.33503e-06
9.33783e-06
-5.64411e-06
8.61501e-06
-4.61226e-06
7.27662e-06
-3.73603e-06
6.12856e-06
-3.10989e-06
5.78433e-06
-3.27831e-06
6.02588e-06
-3.69864e-06
6.41429e-06
-4.15558e-06
7.07243e-06
-4.71272e-06
8.0173e-06
-5.17521e-06
9.20784e-06
-5.11849e-06
1.02132e-05
-4.92447e-06
1.07787e-05
-4.56783e-06
1.0956e-05
-4.19119e-06
1.08834e-05
-3.88369e-06
1.05876e-05
-3.64172e-06
1.01603e-05
-3.4182e-06
9.63998e-06
-3.21648e-06
9.09373e-06
-2.99868e-06
8.57977e-06
-2.75086e-06
8.1115e-06
-2.50477e-06
7.67667e-06
-2.29285e-06
7.25958e-06
-2.12956e-06
6.84568e-06
-2.02003e-06
6.42413e-06
-1.96041e-06
5.98916e-06
-1.93784e-06
5.54797e-06
-1.92965e-06
5.11096e-06
-1.91715e-06
4.69575e-06
-1.87941e-06
4.31264e-06
-1.81324e-06
-1.67951e-06
4.01207e-06
3.03791e-05
-1.3262e-05
3.13639e-05
-2.03718e-05
2.9558e-05
-2.10711e-05
2.68027e-05
-2.04574e-05
2.16505e-05
-1.74727e-05
1.55436e-05
-1.11674e-05
1.16531e-05
-7.59649e-06
9.77909e-06
-6.30117e-06
8.868e-06
-5.80724e-06
8.04307e-06
-5.50717e-06
6.81925e-06
-4.4256e-06
5.55593e-06
-3.35428e-06
4.82142e-06
-2.94542e-06
4.91863e-06
-3.06991e-06
5.34198e-06
-3.65703e-06
6.20666e-06
-4.58923e-06
7.63142e-06
-5.59046e-06
8.97546e-06
-6.17351e-06
9.79262e-06
-6.1075e-06
1.02394e-05
-5.64918e-06
1.03615e-05
-5.11329e-06
1.02866e-05
-4.54215e-06
1.00598e-05
-3.99936e-06
9.69505e-06
-3.55181e-06
9.22785e-06
-3.20495e-06
8.70831e-06
-2.92196e-06
8.16115e-06
-2.68267e-06
7.61717e-06
-2.45825e-06
7.10661e-06
-2.23753e-06
6.63941e-06
-2.03254e-06
6.20887e-06
-1.8571e-06
5.8037e-06
-1.71961e-06
5.41241e-06
-1.62379e-06
5.02532e-06
-1.56714e-06
4.63664e-06
-1.54095e-06
4.24812e-06
-1.53055e-06
3.86563e-06
-1.52203e-06
3.50114e-06
-1.501e-06
3.16419e-06
-1.46213e-06
-1.38745e-06
2.88538e-06
2.92349e-05
-1.43137e-05
2.84622e-05
-1.95786e-05
2.50676e-05
-1.75531e-05
2.0797e-05
-1.37634e-05
1.44774e-05
-1.00312e-05
1.04712e-05
-7.07059e-06
8.63395e-06
-5.75644e-06
7.64646e-06
-5.24717e-06
6.82888e-06
-4.95561e-06
5.4402e-06
-4.14604e-06
4.33294e-06
-3.33522e-06
4.01168e-06
-3.06732e-06
4.34164e-06
-3.12203e-06
5.16538e-06
-3.91665e-06
6.63984e-06
-5.15956e-06
8.31643e-06
-6.24969e-06
9.43167e-06
-6.7223e-06
9.8663e-06
-6.67015e-06
9.93625e-06
-6.21851e-06
9.79495e-06
-5.54194e-06
9.48585e-06
-4.83479e-06
9.0759e-06
-4.16114e-06
8.62058e-06
-3.57153e-06
8.13041e-06
-3.08674e-06
7.61974e-06
-2.71511e-06
7.10579e-06
-2.42341e-06
6.59983e-06
-2.18457e-06
6.11386e-06
-1.97355e-06
5.66116e-06
-1.7822e-06
5.24583e-06
-1.61303e-06
4.86304e-06
-1.46976e-06
4.5048e-06
-1.35673e-06
4.16254e-06
-1.27653e-06
3.82876e-06
-1.22754e-06
3.49856e-06
-1.20371e-06
3.17172e-06
-1.1953e-06
2.8517e-06
-1.19245e-06
2.5463e-06
-1.18538e-06
2.26319e-06
-1.16883e-06
-1.13484e-06
2.01996e-06
2.71052e-05
-1.43839e-05
2.44569e-05
-1.70136e-05
1.95634e-05
-1.24912e-05
1.35564e-05
-8.68309e-06
9.71667e-06
-6.15195e-06
7.81228e-06
-5.16669e-06
6.76542e-06
-4.69272e-06
5.93489e-06
-4.40283e-06
4.77967e-06
-3.79509e-06
4.0175e-06
-3.39485e-06
3.84492e-06
-3.17017e-06
4.12072e-06
-3.31273e-06
5.25396e-06
-4.20049e-06
7.04162e-06
-5.65291e-06
8.61999e-06
-6.69981e-06
9.44123e-06
-7.06189e-06
9.69158e-06
-6.98352e-06
9.53144e-06
-6.53031e-06
9.13378e-06
-5.84144e-06
8.6289e-06
-5.05129e-06
8.07142e-06
-4.29388e-06
7.51286e-06
-3.61915e-06
6.98553e-06
-3.06006e-06
6.48579e-06
-2.60185e-06
6.01315e-06
-2.25371e-06
5.55934e-06
-1.98048e-06
5.12664e-06
-1.75719e-06
4.71845e-06
-1.566e-06
4.34083e-06
-1.40251e-06
3.99385e-06
-1.26274e-06
3.67307e-06
-1.14526e-06
3.37317e-06
-1.05277e-06
3.0881e-06
-9.87074e-07
2.81226e-06
-9.4684e-07
2.54173e-06
-9.27652e-07
2.27558e-06
-9.22912e-07
2.01574e-06
-9.25805e-07
1.76712e-06
-9.29681e-07
1.53511e-06
-9.29928e-07
-9.23747e-07
1.33019e-06
2.47243e-05
-1.32254e-05
1.92995e-05
-1.15622e-05
1.30877e-05
-6.62025e-06
9.13987e-06
-4.83133e-06
7.49932e-06
-4.55445e-06
6.45039e-06
-4.11378e-06
5.56331e-06
-3.7944e-06
4.55572e-06
-3.37084e-06
4.03889e-06
-3.25472e-06
3.91805e-06
-3.27463e-06
4.32505e-06
-3.56165e-06
5.71605e-06
-4.67728e-06
7.56545e-06
-6.00794e-06
8.78516e-06
-6.82938e-06
9.28229e-06
-7.17558e-06
9.34825e-06
-7.12162e-06
9.04332e-06
-6.68062e-06
8.48264e-06
-5.97906e-06
7.81373e-06
-5.18025e-06
7.13633e-06
-4.37757e-06
6.50346e-06
-3.66819e-06
5.9299e-06
-3.05352e-06
5.42201e-06
-2.56016e-06
4.97257e-06
-2.15955e-06
4.56981e-06
-1.85392e-06
4.18615e-06
-1.60586e-06
3.82662e-06
-1.40174e-06
3.49594e-06
-1.23592e-06
3.19309e-06
-1.09833e-06
2.91358e-06
-9.80533e-07
2.65414e-06
-8.82998e-07
2.41189e-06
-8.07355e-07
2.18245e-06
-7.54219e-07
1.96154e-06
-7.22295e-07
1.74594e-06
-7.08123e-07
1.53441e-06
-7.07141e-07
1.32788e-06
-7.14829e-07
1.12916e-06
-7.26511e-07
9.41477e-07
-7.38074e-07
-7.50926e-07
7.72197e-07
1.97901e-05
-8.28322e-06
1.21557e-05
-3.92116e-06
8.63787e-06
-3.10389e-06
7.16146e-06
-3.3825e-06
6.11223e-06
-3.49118e-06
5.13977e-06
-3.12934e-06
4.38564e-06
-3.0098e-06
4.2092e-06
-3.13053e-06
4.34823e-06
-3.38588e-06
5.10956e-06
-4.00643e-06
6.49694e-06
-5.1415e-06
7.90407e-06
-6.15481e-06
8.72221e-06
-6.82711e-06
9.03053e-06
-7.1239e-06
8.95106e-06
-7.08559e-06
8.52735e-06
-6.69012e-06
7.8767e-06
-6.02872e-06
7.10608e-06
-5.21339e-06
6.33941e-06
-4.41458e-06
5.6406e-06
-3.67732e-06
5.03018e-06
-3.05941e-06
4.5115e-06
-2.5372e-06
4.06812e-06
-2.12107e-06
3.67984e-06
-1.77405e-06
3.33213e-06
-1.50881e-06
3.01694e-06
-1.29449e-06
2.73099e-06
-1.11768e-06
2.46878e-06
-9.73826e-07
2.22772e-06
-8.56275e-07
2.00774e-06
-7.58828e-07
1.80448e-06
-6.77651e-07
1.61434e-06
-6.1497e-07
1.43452e-06
-5.72067e-07
1.26192e-06
-5.47325e-07
1.09373e-06
-5.37498e-07
9.28441e-07
-5.39378e-07
7.66686e-07
-5.50625e-07
6.09728e-07
-5.67267e-07
4.58145e-07
-5.8454e-07
-6.09018e-07
3.17659e-07
1.59994e-05
-7.10794e-07
9.3153e-06
2.77869e-06
6.78822e-06
-5.139e-07
5.65996e-06
-2.18356e-06
4.82252e-06
-2.60775e-06
4.53954e-06
-2.79461e-06
4.75493e-06
-3.18167e-06
5.17667e-06
-3.51981e-06
6.08952e-06
-4.26839e-06
7.3329e-06
-5.24008e-06
8.20469e-06
-6.02385e-06
8.63893e-06
-6.58915e-06
8.73971e-06
-6.92017e-06
8.55135e-06
-6.92632e-06
8.06062e-06
-6.58554e-06
7.34203e-06
-5.96217e-06
6.52085e-06
-5.19978e-06
5.69122e-06
-4.38357e-06
4.94035e-06
-3.66359e-06
4.30303e-06
-3.03548e-06
3.76531e-06
-2.52076e-06
3.31057e-06
-2.08173e-06
2.92394e-06
-1.73462e-06
2.59893e-06
-1.45003e-06
2.31399e-06
-1.22515e-06
2.0608e-06
-1.04267e-06
1.83451e-06
-8.91996e-07
1.62936e-06
-7.68482e-07
1.44214e-06
-6.6826e-07
1.27105e-06
-5.86634e-07
1.11382e-06
-5.19108e-07
9.67357e-07
-4.6715e-07
8.2904e-07
-4.3245e-07
6.96774e-07
-4.13833e-07
5.67626e-07
-4.07245e-07
4.39485e-07
-4.10272e-07
3.14208e-07
-4.24511e-07
1.9195e-07
-4.44481e-07
7.5194e-08
-4.67689e-07
-4.88236e-07
-4.59547e-08
8.14106e-06
1.26263e-06
8.93932e-06
2.02486e-06
7.9798e-06
4.32979e-07
7.03424e-06
-1.26379e-06
6.54811e-06
-2.14414e-06
6.57957e-06
-2.78385e-06
6.98876e-06
-3.53721e-06
7.66583e-06
-4.16116e-06
8.17301e-06
-4.75855e-06
8.44606e-06
-5.50539e-06
8.53547e-06
-6.1082e-06
8.46981e-06
-6.51718e-06
8.19836e-06
-6.64081e-06
7.66253e-06
-6.38192e-06
6.90946e-06
-5.82416e-06
6.03314e-06
-5.08539e-06
5.17762e-06
-4.32475e-06
4.40185e-06
-3.60499e-06
3.7326e-06
-2.99705e-06
3.17151e-06
-2.46857e-06
2.69931e-06
-2.04471e-06
2.31564e-06
-1.69563e-06
1.9963e-06
-1.41382e-06
1.72929e-06
-1.18246e-06
1.49932e-06
-9.95113e-07
1.29821e-06
-8.41619e-07
1.12047e-06
-7.14113e-07
9.60988e-07
-6.08613e-07
8.16846e-07
-5.23428e-07
6.85418e-07
-4.5455e-07
5.65183e-07
-3.98223e-07
4.533e-07
-3.54704e-07
3.47743e-07
-3.26482e-07
2.48161e-07
-3.13984e-07
1.50653e-07
-3.09759e-07
5.63225e-08
-3.16283e-07
-4.02839e-08
-3.28491e-07
-1.38252e-07
-3.47422e-07
-2.35061e-07
-3.72194e-07
-3.9777e-07
-3.27367e-07
9.12961e-06
1.7299e-06
9.46787e-06
1.6879e-06
9.28772e-06
6.03754e-07
9.0224e-06
-1.02072e-06
8.7846e-06
-1.92505e-06
8.59429e-06
-2.58402e-06
8.45445e-06
-3.38899e-06
8.42187e-06
-4.12547e-06
8.44027e-06
-4.7742e-06
8.37381e-06
-5.43477e-06
8.2227e-06
-5.95143e-06
7.90566e-06
-6.19348e-06
7.32469e-06
-6.05199e-06
6.54584e-06
-5.5949e-06
5.66459e-06
-4.93426e-06
4.75674e-06
-4.22371e-06
3.98463e-06
-3.50351e-06
3.29679e-06
-2.90708e-06
2.70356e-06
-2.4014e-06
2.22648e-06
-1.98674e-06
1.83838e-06
-1.65234e-06
1.52352e-06
-1.37742e-06
1.26378e-06
-1.15165e-06
1.04745e-06
-9.64497e-07
8.62838e-07
-8.09452e-07
7.03695e-07
-6.81704e-07
5.64378e-07
-5.7418e-07
4.40043e-07
-4.83767e-07
3.29384e-07
-4.12121e-07
2.2905e-07
-3.53911e-07
1.38161e-07
-3.0717e-07
5.65725e-08
-2.73228e-07
-2.00495e-08
-2.50316e-07
-9.82869e-08
-2.36336e-07
-1.73776e-07
-2.35205e-07
-2.49188e-07
-2.42152e-07
-3.23726e-07
-2.55641e-07
-3.98548e-07
-2.74689e-07
-4.747e-07
-2.98572e-07
-3.25487e-07
-5.4999e-07
8.77337e-06
2.03351e-06
9.00638e-06
1.44215e-06
8.86431e-06
7.34708e-07
8.69517e-06
-8.65032e-07
8.45171e-06
-1.69364e-06
8.31364e-06
-2.45306e-06
8.25197e-06
-3.33187e-06
8.2266e-06
-4.103e-06
8.169e-06
-4.71672e-06
7.98917e-06
-5.25219e-06
7.63561e-06
-5.59271e-06
7.03046e-06
-5.5837e-06
6.23007e-06
-5.24355e-06
5.34172e-06
-4.69906e-06
4.46467e-06
-4.04872e-06
3.64698e-06
-3.40087e-06
2.94473e-06
-2.79153e-06
2.34723e-06
-2.30635e-06
1.8638e-06
-1.91397e-06
1.47637e-06
-1.59442e-06
1.16313e-06
-1.33453e-06
9.08628e-07
-1.11905e-06
6.98765e-07
-9.38725e-07
5.24365e-07
-7.87754e-07
3.75385e-07
-6.58765e-07
2.49547e-07
-5.54533e-07
1.40078e-07
-4.63776e-07
4.6257e-08
-3.89438e-07
-3.89463e-08
-3.26538e-07
-1.15837e-07
-2.76811e-07
-1.85046e-07
-2.38122e-07
-2.49049e-07
-2.0975e-07
-3.09121e-07
-1.91165e-07
-3.65494e-07
-1.81284e-07
-4.21875e-07
-1.80551e-07
-4.78828e-07
-1.87349e-07
-5.36646e-07
-2.00405e-07
-5.95811e-07
-2.18535e-07
-6.56872e-07
-2.40969e-07
-2.67022e-07
-7.19251e-07
8.35822e-06
2.23266e-06
8.4911e-06
1.29475e-06
8.64694e-06
5.65442e-07
8.53777e-06
-7.689e-07
8.40376e-06
-1.57083e-06
8.28154e-06
-2.33971e-06
8.14409e-06
-3.20056e-06
7.9677e-06
-3.93037e-06
7.74165e-06
-4.49157e-06
7.35723e-06
-4.86581e-06
6.73863e-06
-4.96953e-06
5.93806e-06
-4.77689e-06
5.06731e-06
-4.36718e-06
4.20054e-06
-3.82856e-06
3.38514e-06
-3.22559e-06
2.65975e-06
-2.66805e-06
2.07021e-06
-2.19672e-06
1.59132e-06
-1.8231e-06
1.20661e-06
-1.52429e-06
8.97337e-07
-1.28001e-06
6.46303e-07
-1.07875e-06
4.41611e-07
-9.10171e-07
2.7172e-07
-7.65368e-07
1.31283e-07
-6.44518e-07
1.62209e-08
-5.41585e-07
-8.6696e-08
-4.50128e-07
-1.73703e-07
-3.75746e-07
-2.49297e-07
-3.12845e-07
-3.14805e-07
-2.60704e-07
-3.72902e-07
-2.18771e-07
-4.25229e-07
-1.86286e-07
-4.73218e-07
-1.62706e-07
-5.18253e-07
-1.47533e-07
-5.61331e-07
-1.40072e-07
-6.04249e-07
-1.39967e-07
-6.48011e-07
-1.4639e-07
-6.93298e-07
-1.58383e-07
-7.40564e-07
-1.74985e-07
-7.90255e-07
-1.95442e-07
-2.19472e-07
-8.42408e-07
8.00895e-06
2.26135e-06
8.10664e-06
1.182e-06
8.18748e-06
4.70187e-07
8.14803e-06
-7.4288e-07
8.05029e-06
-1.48479e-06
7.92209e-06
-2.22109e-06
7.73646e-06
-3.02195e-06
7.45101e-06
-3.64932e-06
7.01309e-06
-4.05519e-06
6.39723e-06
-4.2486e-06
5.6311e-06
-4.19939e-06
4.79375e-06
-3.93382e-06
3.95396e-06
-3.52185e-06
3.14762e-06
-3.01877e-06
2.43985e-06
-2.51166e-06
1.85499e-06
-2.07684e-06
1.38579e-06
-1.72217e-06
1.0093e-06
-1.44144e-06
7.05996e-07
-1.21564e-06
4.60392e-07
-1.02919e-06
2.5906e-07
-8.72622e-07
9.38319e-08
-7.40569e-07
-4.08887e-08
-6.26957e-07
-1.55471e-07
-5.26867e-07
-2.52287e-07
-4.42302e-07
-3.32522e-07
-3.68319e-07
-4.01054e-07
-3.05633e-07
-4.60198e-07
-2.52917e-07
-5.11262e-07
-2.09364e-07
-5.55986e-07
-1.74267e-07
-5.95873e-07
-1.47129e-07
-6.3226e-07
-1.27566e-07
-6.66429e-07
-1.15128e-07
-6.99471e-07
-1.09308e-07
-7.32598e-07
-1.09627e-07
-7.66791e-07
-1.15484e-07
-8.02782e-07
-1.26161e-07
-8.41082e-07
-1.4092e-07
-8.82093e-07
-1.59109e-07
-1.80569e-07
-9.26094e-07
7.5475e-06
2.23183e-06
7.55154e-06
1.16263e-06
7.72734e-06
2.79544e-07
7.67026e-06
-6.99585e-07
7.54586e-06
-1.3726e-06
7.36154e-06
-2.04693e-06
7.03633e-06
-2.70445e-06
6.56758e-06
-3.18555e-06
5.97375e-06
-3.46371e-06
5.26314e-06
-3.53707e-06
4.48215e-06
-3.41496e-06
3.69064e-06
-3.13626e-06
2.92933e-06
-2.75428e-06
2.24638e-06
-2.33069e-06
1.6813e-06
-1.94036e-06
1.22645e-06
-1.61579e-06
8.63366e-07
-1.35328e-06
5.70849e-07
-1.14334e-06
3.32909e-07
-9.72278e-07
1.3788e-07
-8.28951e-07
-2.13987e-08
-7.08612e-07
-1.55318e-07
-6.02282e-07
-2.67034e-07
-5.11432e-07
-3.59562e-07
-4.31148e-07
-4.37645e-07
-3.61766e-07
-5.02863e-07
-3.01243e-07
-5.57832e-07
-2.49018e-07
-6.04688e-07
-2.0527e-07
-6.4481e-07
-1.69015e-07
-6.79619e-07
-1.39795e-07
-7.10414e-07
-1.17235e-07
-7.38414e-07
-1.01031e-07
-7.6475e-07
-9.08142e-08
-7.90447e-07
-8.61838e-08
-8.16483e-07
-8.6699e-08
-8.43723e-07
-9.18697e-08
-8.72854e-07
-1.0115e-07
-9.04388e-07
-1.13972e-07
-9.38712e-07
-1.29807e-07
-1.48518e-07
-9.76185e-07
7.0185e-06
2.21177e-06
6.96458e-06
1.2011e-06
7.02978e-06
1.99273e-07
6.90937e-06
-5.93252e-07
6.70423e-06
-1.18004e-06
6.41645e-06
-1.76974e-06
5.99147e-06
-2.28767e-06
5.45025e-06
-2.64987e-06
4.81607e-06
-2.83222e-06
4.11238e-06
-2.83332e-06
3.38724e-06
-2.68698e-06
2.68629e-06
-2.42942e-06
2.05225e-06
-2.11192e-06
1.52027e-06
-1.79204e-06
1.09223e-06
-1.50648e-06
7.49522e-07
-1.26742e-06
4.73367e-07
-1.07154e-06
2.47752e-07
-9.12198e-07
6.13754e-08
-7.80481e-07
-9.25471e-08
-6.69864e-07
-2.22407e-07
-5.73928e-07
-3.30327e-07
-4.90016e-07
-4.2113e-07
-4.16818e-07
-4.97057e-07
-3.52063e-07
-5.60885e-07
-2.95495e-07
-6.13973e-07
-2.45847e-07
-6.58585e-07
-2.03006e-07
-6.96193e-07
-1.66881e-07
-7.28141e-07
-1.36889e-07
-7.5565e-07
-1.12707e-07
-7.79853e-07
-9.40512e-08
-8.01824e-07
-8.0673e-08
-8.22555e-07
-7.22802e-08
-8.42958e-07
-6.85458e-08
-8.63874e-07
-6.90975e-08
-8.86046e-07
-7.35369e-08
-9.10088e-07
-8.14426e-08
-9.3648e-07
-9.23751e-08
-9.65598e-07
-1.05906e-07
-1.21907e-07
-9.97809e-07
6.14984e-06
2.54095e-06
6.13081e-06
1.20475e-06
6.08193e-06
2.33082e-07
5.85857e-06
-3.84063e-07
5.60393e-06
-9.38168e-07
5.26583e-06
-1.4425e-06
4.81865e-06
-1.84904e-06
4.28514e-06
-2.1223e-06
3.68285e-06
-2.23294e-06
3.04874e-06
-2.19999e-06
2.4293e-06
-2.06486e-06
1.86548e-06
-1.8609e-06
1.38373e-06
-1.6238e-06
9.88189e-07
-1.39052e-06
6.6833e-07
-1.18101e-06
4.08962e-07
-1.00251e-06
1.96382e-07
-8.53448e-07
2.0607e-08
-7.31055e-07
-1.27017e-07
-6.27586e-07
-2.51745e-07
-5.40102e-07
-3.56813e-07
-4.64166e-07
-4.45193e-07
-3.97388e-07
-5.19726e-07
-3.38559e-07
-5.82436e-07
-2.86406e-07
-6.34965e-07
-2.40332e-07
-6.78661e-07
-1.99873e-07
-7.15186e-07
-1.65106e-07
-7.4579e-07
-1.35525e-07
-7.71638e-07
-1.10909e-07
-7.93785e-07
-9.10453e-08
-8.13214e-07
-7.57203e-08
-8.30858e-07
-6.47334e-08
-8.47581e-07
-5.7854e-08
-8.64182e-07
-5.48161e-08
-8.81384e-07
-5.53173e-08
-8.99823e-07
-5.90417e-08
-9.20038e-07
-6.56575e-08
-9.42472e-07
-7.4819e-08
-9.67475e-07
-8.61864e-08
-9.96347e-08
-9.9539e-07
4.06185e-06
1.00531e-06
4.47867e-06
7.72773e-07
4.57093e-06
1.25934e-07
4.52264e-06
-3.49837e-07
4.35308e-06
-7.81353e-07
4.05775e-06
-1.15813e-06
3.66511e-06
-1.46511e-06
3.19486e-06
-1.65817e-06
2.67404e-06
-1.71586e-06
2.15411e-06
-1.68071e-06
1.67627e-06
-1.58482e-06
1.25875e-06
-1.43938e-06
9.06263e-07
-1.26616e-06
6.13774e-07
-1.09268e-06
3.72408e-07
-9.34288e-07
1.72777e-07
-7.97507e-07
6.47529e-09
-6.81807e-07
-1.34282e-07
-5.85085e-07
-2.53195e-07
-5.03574e-07
-3.54387e-07
-4.3407e-07
-4.4042e-07
-3.73627e-07
-5.13302e-07
-3.20422e-07
-5.7507e-07
-2.73318e-07
-6.27145e-07
-2.31325e-07
-6.70621e-07
-1.94051e-07
-7.06905e-07
-1.61641e-07
-7.37153e-07
-1.33534e-07
-7.62423e-07
-1.09548e-07
-7.83693e-07
-8.95507e-08
-8.01875e-07
-7.33927e-08
-8.17822e-07
-6.09159e-08
-8.32336e-07
-5.1965e-08
-8.46167e-07
-4.63572e-08
-8.60004e-07
-4.38804e-08
-8.74466e-07
-4.42983e-08
-8.90098e-07
-4.73605e-08
-9.07375e-07
-5.28014e-08
-9.26695e-07
-6.03497e-08
-9.48376e-07
-6.97409e-08
-8.08561e-08
-9.72726e-07
2.75974e-06
5.51291e-07
3.18397e-06
3.33829e-07
3.34681e-06
-5.14013e-08
3.3646e-06
-3.8138e-07
3.23365e-06
-6.62941e-07
2.99689e-06
-9.3223e-07
2.67357e-06
-1.15047e-06
2.28266e-06
-1.27375e-06
1.87339e-06
-1.31031e-06
1.48923e-06
-1.29734e-06
1.14506e-06
-1.23866e-06