/*--------------------------------*- C++ -*----------------------------------*\
| =========                 |                                                 |
| \\      /  F ield         | OpenFOAM: The Open Source CFD Toolbox           |
|  \\    /   O peration     | Version:  2.3.0                                 |
|   \\  /    A nd           | Web:      www.OpenFOAM.org                      |
|    \\/     M anipulation  |                                                 |
\*---------------------------------------------------------------------------*/
FoamFile
{
    version     2.0;
    format      ascii;
    class       volVectorField;
    location    "10";
    object      U;
}
// * * * * * * * * * * * * * * * * * * * * * * * * * * * * * * * * * * * * * //

dimensions      [0 1 -1 0 0 0 0];

internalField   nonuniform List<vector> 
26600
(
(9.92438 5.02606 -11.7333)
(9.6564 5.04166 -11.2798)
(9.45659 5.03839 -10.8696)
(9.4491 5.04665 -10.5121)
(9.53193 5.09511 -10.1661)
(9.66205 5.15855 -9.85233)
(9.83642 5.22365 -9.56974)
(10.0607 5.3018 -9.31355)
(10.3108 5.39047 -9.08698)
(10.5797 5.49428 -8.88379)
(10.8477 5.59809 -8.69527)
(11.1055 5.70406 -8.5107)
(11.3415 5.79912 -8.32744)
(11.5484 5.89325 -8.14686)
(11.7235 5.97409 -7.96812)
(11.8693 6.04786 -7.79503)
(11.9872 6.10922 -7.6249)
(12.092 6.16807 -7.46011)
(12.1862 6.21405 -7.29877)
(12.2724 6.25867 -7.14326)
(12.3468 6.29299 -6.99073)
(12.4031 6.3222 -6.84527)
(12.4612 6.35179 -6.70369)
(12.522 6.37007 -6.567)
(12.5538 6.38385 -6.43352)
(12.573 6.39855 -6.30702)
(12.5986 6.41105 -6.17892)
(12.6202 6.42081 -6.06198)
(12.6321 6.437 -5.93336)
(12.6401 6.42509 -5.80729)
(12.6389 6.40735 -5.69691)
(12.6382 6.39533 -5.5982)
(12.6408 6.38807 -5.49899)
(12.6407 6.37732 -5.39057)
(12.6295 6.35768 -5.29098)
(12.5992 6.32895 -5.19511)
(12.5435 6.29244 -5.10322)
(12.4772 6.2607 -5.02462)
(12.4939 6.23604 -4.92651)
(12.5105 5.74585 -4.8961)
(10.1036 4.55747 -11.8416)
(9.89539 4.63619 -11.602)
(9.79887 4.68632 -11.3203)
(9.86942 4.78652 -11.0511)
(10.0042 4.92205 -10.7862)
(10.1842 5.07607 -10.5269)
(10.4033 5.24915 -10.2706)
(10.6553 5.43651 -10.0102)
(10.9199 5.61554 -9.74633)
(11.1834 5.77635 -9.4778)
(11.4313 5.91027 -9.21578)
(11.663 6.03286 -8.95945)
(11.8812 6.13041 -8.71566)
(12.0736 6.2215 -8.47964)
(12.2455 6.29142 -8.25711)
(12.3916 6.35284 -8.04237)
(12.5102 6.40089 -7.84143)
(12.616 6.45527 -7.6458)
(12.7151 6.49113 -7.46258)
(12.8048 6.52822 -7.28538)
(12.8889 6.55081 -7.11974)
(12.9519 6.57244 -6.96169)
(13.0162 6.60124 -6.81235)
(13.1005 6.60402 -6.66859)
(13.1466 6.60538 -6.53648)
(13.1841 6.61132 -6.40402)
(13.2201 6.61621 -6.28329)
(13.2583 6.62681 -6.15935)
(13.2922 6.62892 -6.04902)
(13.342 6.63635 -5.93224)
(13.3404 6.64229 -5.83201)
(13.3429 6.64839 -5.7201)
(13.3379 6.64357 -5.63024)
(13.3699 6.64629 -5.52189)
(13.3783 6.63126 -5.44039)
(13.4179 6.61263 -5.33132)
(13.3812 6.56668 -5.26333)
(13.3358 6.55321 -5.15183)
(13.1337 6.51968 -5.07643)
(12.9712 6.6123 -5.01045)
(10.0399 4.76861 -11.8468)
(9.84773 5.01656 -11.5532)
(9.72509 5.15552 -11.2708)
(9.75753 5.28376 -10.9868)
(9.88526 5.4249 -10.7073)
(10.0834 5.58806 -10.4282)
(10.3257 5.75003 -10.1396)
(10.588 5.90461 -9.84561)
(10.8528 6.04345 -9.55332)
(11.1117 6.16137 -9.26612)
(11.3519 6.26237 -8.98919)
(11.5793 6.35708 -8.71997)
(11.7955 6.4279 -8.46577)
(11.987 6.49596 -8.22057)
(12.1628 6.54521 -7.99138)
(12.3118 6.58343 -7.77122)
(12.4266 6.61812 -7.56635)
(12.5292 6.66891 -7.3687)
(12.6385 6.69581 -7.18314)
(12.7344 6.72169 -7.00782)
(12.826 6.72935 -6.84145)
(12.8908 6.7388 -6.68409)
(12.976 6.74721 -6.53677)
(13.063 6.75605 -6.3961)
(13.1054 6.75681 -6.2652)
(13.1371 6.76718 -6.13955)
(13.1757 6.77506 -6.01924)
(13.2223 6.78107 -5.90304)
(13.2527 6.77938 -5.79217)
(13.2746 6.78687 -5.68485)
(13.2825 6.78515 -5.58304)
(13.301 6.78828 -5.48188)
(13.3139 6.7856 -5.38612)
(13.3471 6.7868 -5.29137)
(13.3713 6.77893 -5.19985)
(13.4118 6.74893 -5.11191)
(13.3529 6.70212 -5.02579)
(13.2714 6.65048 -4.9503)
(13.0156 6.49225 -4.83643)
(13.15 6.27694 -4.82102)
(10.1074 4.653 -11.8358)
(9.90703 4.94514 -11.5314)
(9.76973 5.16637 -11.2171)
(9.78911 5.34567 -10.9037)
(9.90975 5.55365 -10.5975)
(10.0875 5.76151 -10.282)
(10.3012 5.94855 -9.96048)
(10.5382 6.11648 -9.63657)
(10.7846 6.26108 -9.31826)
(11.0309 6.37053 -9.01241)
(11.2591 6.46226 -8.72035)
(11.4817 6.54186 -8.44029)
(11.6955 6.59467 -8.17823)
(11.8868 6.64413 -7.92718)
(12.0684 6.675 -7.6947)
(12.2235 6.68309 -7.47305)
(12.3282 6.69662 -7.26727)
(12.4217 6.75029 -7.07102)
(12.5496 6.74696 -6.88635)
(12.6483 6.76723 -6.71552)
(12.7376 6.7853 -6.55088)
(12.8046 6.7777 -6.39603)
(12.8798 6.7795 -6.2516)
(12.9662 6.77953 -6.11685)
(13.0227 6.75259 -5.9916)
(13.0555 6.74892 -5.87029)
(13.107 6.74382 -5.75551)
(13.1543 6.74536 -5.64348)
(13.206 6.73673 -5.53651)
(13.2691 6.7057 -5.43727)
(13.2676 6.69243 -5.33792)
(13.2519 6.6931 -5.2418)
(13.2422 6.69142 -5.14973)
(13.2821 6.67861 -5.05737)
(13.3355 6.64651 -4.96982)
(13.4116 6.60143 -4.88418)
(13.3626 6.54229 -4.79576)
(13.3786 6.37832 -4.73294)
(13.1877 6.06342 -4.61537)
(13.4012 5.49441 -4.65592)
(10.0769 4.70606 -11.8376)
(9.87937 5.06693 -11.5124)
(9.75318 5.32786 -11.1573)
(9.76917 5.55399 -10.8196)
(9.87483 5.79504 -10.4834)
(10.0328 6.01339 -10.1324)
(10.2291 6.21117 -9.77538)
(10.451 6.38338 -9.41957)
(10.6901 6.52076 -9.07479)
(10.9328 6.60875 -8.7507)
(11.1532 6.68395 -8.44339)
(11.3771 6.73776 -8.15355)
(11.5915 6.76943 -7.88501)
(11.7873 6.78944 -7.6303)
(11.9797 6.80155 -7.39693)
(12.146 6.77445 -7.17547)
(12.2182 6.77422 -6.96937)
(12.3137 6.80893 -6.77522)
(12.451 6.80277 -6.5942)
(12.5134 6.82352 -6.42785)
(12.5981 6.87841 -6.26573)
(12.6972 6.82275 -6.1148)
(12.7973 6.77723 -5.97793)
(12.9198 6.74533 -5.85265)
(12.9551 6.74164 -5.72961)
(12.9684 6.72482 -5.61197)
(13.0161 6.70471 -5.50399)
(13.0763 6.67735 -5.39458)
(13.158 6.62171 -5.29537)
(13.1839 6.59657 -5.19884)
(13.1322 6.60081 -5.09989)
(13.1239 6.59147 -5.00783)
(13.1337 6.5647 -4.91751)
(13.2132 6.52071 -4.82579)
(13.2773 6.4509 -4.74183)
(13.3259 6.4256 -4.65223)
(13.2719 6.34283 -4.55078)
(13.4032 6.19025 -4.48505)
(13.262 5.94578 -4.37761)
(13.4493 5.42332 -4.43368)
(10.0697 4.72524 -11.8432)
(9.88129 5.12867 -11.4826)
(9.74845 5.45068 -11.1077)
(9.74856 5.74771 -10.755)
(9.8324 6.02015 -10.3792)
(9.96782 6.26346 -9.98979)
(10.1513 6.47472 -9.59319)
(10.3651 6.64782 -9.20249)
(10.6055 6.77089 -8.83054)
(10.8494 6.8328 -8.48866)
(11.065 6.88833 -8.16595)
(11.2964 6.90169 -7.86872)
(11.5134 6.91112 -7.59588)
(11.715 6.8938 -7.34032)
(11.9232 6.88056 -7.10646)
(12.0758 6.86725 -6.88533)
(12.1153 6.85338 -6.67912)
(12.2136 6.81835 -6.48792)
(12.3263 6.84829 -6.31439)
(12.3361 6.91054 -6.15173)
(12.4284 7.07898 -5.98655)
(12.673 6.83151 -5.84915)
(12.7924 6.66524 -5.72389)
(12.8577 6.62042 -5.60133)
(12.8578 6.64212 -5.47831)
(12.8997 6.60517 -5.36366)
(12.9715 6.56624 -5.25645)
(13.059 6.51093 -5.14705)
(13.1293 6.41577 -5.04788)
(13.0958 6.3798 -4.94672)
(13.0253 6.31422 -4.84601)
(12.9895 6.26024 -4.74976)
(12.9497 6.20534 -4.65538)
(13.0055 6.14193 -4.55647)
(13.0026 6.08131 -4.46443)
(12.9854 6.03033 -4.34324)
(12.8288 5.97531 -4.2355)
(12.8037 5.83113 -4.12774)
(12.5705 5.68161 -3.9732)
(12.9059 5.61758 -4.0555)
(10.0648 4.74911 -11.8366)
(9.87245 5.20836 -11.4476)
(9.73974 5.59255 -11.0725)
(9.72651 5.93921 -10.6938)
(9.78559 6.24121 -10.2774)
(9.9052 6.50884 -9.84624)
(10.0793 6.73143 -9.4099)
(10.2904 6.90413 -8.98524)
(10.5411 7.00295 -8.58856)
(10.7873 7.03718 -8.23168)
(11.0049 7.06814 -7.89441)
(11.2513 7.01639 -7.59445)
(11.4728 6.9894 -7.31854)
(11.6626 6.98694 -7.06396)
(11.8573 6.94458 -6.8288)
(11.9946 6.94382 -6.61006)
(12.0526 6.91828 -6.40725)
(12.1247 6.80465 -6.21839)
(12.1525 6.81416 -6.05323)
(12.0243 6.89357 -5.88311)
(12.1297 7.64701 -5.73096)
(12.9219 6.81274 -5.60274)
(12.8878 6.52129 -5.47826)
(12.8149 6.45771 -5.35429)
(12.7794 6.40397 -5.22267)
(12.8027 6.32423 -5.10084)
(12.8129 6.26824 -4.97491)
(12.8428 6.22733 -4.84831)
(12.849 6.14647 -4.72659)
(12.7206 6.08389 -4.59954)
(12.5244 5.9822 -4.48016)
(12.3416 5.88915 -4.34776)
(12.1704 5.77214 -4.22534)
(12.0935 5.68901 -4.0934)
(11.8505 5.60737 -3.92152)
(11.6168 5.58079 -3.73437)
(11.2803 5.42963 -3.53776)
(11.1236 5.30423 -3.37162)
(10.7792 4.9428 -3.17472)
(11.0741 5.00678 -3.244)
(10.0625 4.77871 -11.8229)
(9.86048 5.29518 -11.4273)
(9.72807 5.74223 -11.0482)
(9.70789 6.12341 -10.6172)
(9.745 6.46048 -10.1618)
(9.85468 6.75103 -9.69132)
(10.0218 6.98394 -9.21995)
(10.2375 7.14781 -8.76734)
(10.506 7.20582 -8.35323)
(10.7529 7.21726 -7.98404)
(10.9869 7.21354 -7.63435)
(11.2495 7.10468 -7.33668)
(11.4167 7.05467 -7.05681)
(11.5946 7.03202 -6.8081)
(11.8255 6.97573 -6.57889)
(11.9618 6.93004 -6.3606)
(12.0394 6.86139 -6.16082)
(12.0699 6.7107 -5.97068)
(12.0189 6.61651 -5.80184)
(11.2912 6.47729 -5.63584)
(12.4282 6.34574 -5.47194)
(13.83 6.3222 -5.34529)
(12.92 6.30208 -5.21928)
(12.574 6.25506 -5.07731)
(12.3943 6.15004 -4.89586)
(12.2315 6.05787 -4.71588)
(12.0309 5.92507 -4.50319)
(11.9129 5.77375 -4.30336)
(11.7389 5.65725 -4.11952)
(11.366 5.55044 -3.93734)
(10.9448 5.39225 -3.75945)
(10.5668 5.20491 -3.59341)
(10.157 4.98411 -3.40214)
(9.78599 4.82025 -3.19322)
(9.32697 4.67775 -2.93314)
(8.99511 4.54095 -2.68892)
(8.63327 4.32859 -2.46726)
(8.46742 4.18914 -2.30757)
(8.07652 3.88924 -2.1729)
(8.26997 3.91494 -2.2314)
(10.0565 4.81364 -11.8106)
(9.84683 5.39547 -11.4203)
(9.7266 5.89273 -10.9967)
(9.69644 6.31093 -10.517)
(9.72238 6.68088 -10.0227)
(9.82669 6.99292 -9.51957)
(9.9906 7.22685 -9.02197)
(10.2211 7.36629 -8.5525)
(10.5117 7.36966 -8.129)
(10.7589 7.34777 -7.74926)
(10.9905 7.33398 -7.39315)
(11.2123 7.27156 -7.09879)
(11.3793 7.12151 -6.82548)
(11.6106 6.94751 -6.58837)
(11.8252 6.8798 -6.36279)
(11.9691 6.83695 -6.13906)
(12.0615 6.699 -5.93572)
(11.9594 6.49683 -5.7234)
(11.902 6.2911 -5.54829)
(11.7084 5.87913 -5.33754)
(12.7505 4.21089 -5.15875)
(12.6551 5.46631 -5.02175)
(12.0709 5.71819 -4.82787)
(11.5629 5.68677 -4.57646)
(10.9742 5.58635 -4.25582)
(10.4073 5.45162 -3.89727)
(9.90615 5.1515 -3.52768)
(9.50248 4.83145 -3.23868)
(9.02911 4.59708 -3.01503)
(8.52953 4.36999 -2.83226)
(8.05248 4.10915 -2.6613)
(7.59039 3.87454 -2.47027)
(7.13216 3.66799 -2.22556)
(6.76267 3.49352 -1.96768)
(6.42819 3.32293 -1.72705)
(6.18545 3.18963 -1.55396)
(5.93321 3.0479 -1.43243)
(5.78902 2.95264 -1.37207)
(5.5196 2.76525 -1.33765)
(5.6471 2.75992 -1.39063)
(10.0493 4.85353 -11.8044)
(9.83473 5.50963 -11.4054)
(9.73839 6.04977 -10.9136)
(9.70023 6.50696 -10.3926)
(9.72501 6.90648 -9.86236)
(9.83175 7.22751 -9.33363)
(9.9988 7.44507 -8.82109)
(10.2542 7.55095 -8.3471)
(10.5753 7.49687 -7.92097)
(10.7764 7.45193 -7.52972)
(10.9591 7.33924 -7.19603)
(11.2582 7.28063 -6.91247)
(11.4984 7.08043 -6.63916)
(11.638 6.87857 -6.41859)
(11.7085 6.7539 -6.17652)
(11.7715 6.6982 -5.92704)
(11.7742 6.53287 -5.67141)
(11.4602 6.25598 -5.40958)
(11.2591 5.81606 -5.1393)
(10.9291 5.32563 -4.8562)
(10.8419 4.61961 -4.57129)
(10.4503 4.81944 -4.29817)
(9.74734 4.68314 -3.97297)
(8.80402 4.5229 -3.51112)
(7.88825 4.25187 -2.9625)
(7.17378 3.9213 -2.44941)
(6.58212 3.60764 -2.06656)
(6.07681 3.33288 -1.84274)
(5.66517 3.10088 -1.72174)
(5.31428 2.84467 -1.61044)
(4.9912 2.63124 -1.46398)
(4.7074 2.47474 -1.27662)
(4.44721 2.36817 -1.07106)
(4.25443 2.29645 -0.908186)
(4.08036 2.23091 -0.806858)
(3.93674 2.16525 -0.75866)
(3.79228 2.09018 -0.738038)
(3.69521 2.02391 -0.734738)
(3.54364 1.90316 -0.733929)
(3.62763 1.87606 -0.764954)
(10.0282 4.9023 -11.8113)
(9.8289 5.63844 -11.3713)
(9.75967 6.22086 -10.8153)
(9.72431 6.71562 -10.2529)
(9.7604 7.13079 -9.68939)
(9.88054 7.43838 -9.14318)
(10.0546 7.61695 -8.62695)
(10.3388 7.69717 -8.15987)
(10.6778 7.58019 -7.72556)
(10.8482 7.50156 -7.37667)
(11.0221 7.24972 -7.05262)
(11.2891 7.0926 -6.79084)
(11.4187 6.97936 -6.50368)
(11.4165 6.897 -6.26765)
(11.2265 6.65685 -5.94427)
(10.998 6.39877 -5.5929)
(10.5321 6.03489 -5.17374)
(9.65939 5.50868 -4.65105)
(8.97822 4.82959 -4.22439)
(8.16882 4.23322 -3.78614)
(7.53178 3.50592 -3.37562)
(6.76305 3.17274 -2.89598)
(5.89953 2.95292 -2.32951)
(5.1198 2.69653 -1.74264)
(4.56171 2.46817 -1.30547)
(4.15448 2.32643 -1.04769)
(3.8102 2.2336 -0.905239)
(3.53485 2.11644 -0.820889)
(3.32441 1.98344 -0.742742)
(3.14411 1.85301 -0.640318)
(3.00136 1.74659 -0.533738)
(2.89042 1.66085 -0.443615)
(2.78766 1.59535 -0.377864)
(2.68936 1.55233 -0.340908)
(2.58192 1.52503 -0.325403)
(2.48106 1.49089 -0.322181)
(2.38094 1.45101 -0.324923)
(2.30716 1.40824 -0.329424)
(2.22017 1.33301 -0.34085)
(2.27904 1.28915 -0.360187)
(9.97293 4.95154 -11.8383)
(9.82931 5.77999 -11.3218)
(9.78774 6.41514 -10.7158)
(9.77655 6.93287 -10.1089)
(9.83887 7.33933 -9.51715)
(9.98393 7.60526 -8.96201)
(10.1462 7.76066 -8.45093)
(10.5061 7.68301 -8.00487)
(10.8091 7.61795 -7.61215)
(10.9035 7.45127 -7.3025)
(10.9534 7.21169 -6.97631)
(11.1052 7.01669 -6.69691)
(10.9578 6.7998 -6.36113)
(10.5522 6.54804 -6.01409)
(9.67989 6.01914 -5.40395)
(8.67293 5.31122 -4.70408)
(7.35001 4.55477 -3.90661)
(6.01938 3.70927 -3.12161)
(5.09153 2.95676 -2.55975)
(4.26974 2.37894 -2.01084)
(3.86956 1.97726 -1.57819)
(3.60323 1.82234 -1.20637)
(3.35906 1.77564 -0.877197)
(3.14914 1.76861 -0.632644)
(2.97214 1.76311 -0.469021)
(2.80775 1.72993 -0.365856)
(2.63475 1.67552 -0.299553)
(2.46947 1.5935 -0.255256)
(2.33463 1.49333 -0.218786)
(2.23135 1.39379 -0.185091)
(2.14748 1.31124 -0.159453)
(2.0726 1.24807 -0.14357)
(1.99807 1.20445 -0.135405)
(1.92002 1.17611 -0.133089)
(1.83355 1.15501 -0.134614)
(1.74477 1.13159 -0.138656)
(1.65533 1.10286 -0.144268)
(1.58124 1.06725 -0.15117)
(1.50248 1.0184 -0.160646)
(1.51643 0.955117 -0.173894)
(9.87204 5.02053 -11.8648)
(9.81874 5.95449 -11.2655)
(9.83628 6.63267 -10.6172)
(9.87258 7.14972 -9.97366)
(9.97468 7.51894 -9.36203)
(10.1118 7.7518 -8.80932)
(10.2834 7.92443 -8.31298)
(10.6488 7.68327 -7.91732)
(10.8272 7.61587 -7.58115)
(10.9023 7.4091 -7.30942)
(10.5994 7.0878 -6.95155)
(10.3074 6.65642 -6.56444)
(9.47072 6.14703 -5.95763)
(8.19771 5.38664 -5.14057)
(6.40846 4.25618 -3.96885)
(4.76461 3.15543 -2.84551)
(3.72082 2.40561 -2.04362)
(3.11838 2.03629 -1.50937)
(2.77098 1.81128 -1.1246)
(2.59767 1.67113 -0.794445)
(2.5791 1.59677 -0.544899)
(2.58731 1.56378 -0.368923)
(2.57632 1.54571 -0.248553)
(2.53564 1.51341 -0.168967)
(2.4486 1.47683 -0.122971)
(2.33166 1.43719 -0.0951221)
(2.20061 1.38654 -0.0780508)
(2.06864 1.31939 -0.0706807)
(1.95346 1.23939 -0.067864)
(1.85894 1.16079 -0.0660029)
(1.77729 1.09415 -0.0650027)
(1.70183 1.03984 -0.0653931)
(1.6271 0.997814 -0.0671268)
(1.5496 0.966714 -0.0700095)
(1.46657 0.943036 -0.0737723)
(1.38045 0.920053 -0.0782752)
(1.2934 0.89414 -0.083504)
(1.21392 0.862087 -0.0896089)
(1.13599 0.823129 -0.096751)
(1.10473 0.769929 -0.104124)
(9.87966 5.12384 -11.7796)
(9.83897 6.15453 -11.1878)
(9.94963 6.85295 -10.5194)
(10.0403 7.36597 -9.86215)
(10.157 7.67933 -9.24785)
(10.1774 7.96206 -8.70236)
(10.4036 7.90272 -8.27499)
(10.8006 7.65947 -7.96496)
(10.7678 7.37931 -7.67978)
(10.3389 7.19171 -7.35914)
(9.44002 6.61751 -6.73392)
(8.24936 5.6325 -5.82265)
(6.49828 4.49754 -4.6138)
(4.4615 3.02508 -3.16004)
(3.23459 2.16734 -2.07228)
(2.61504 1.83236 -1.3982)
(2.32989 1.73663 -0.945679)
(2.25693 1.74496 -0.587422)
(2.28011 1.72088 -0.341116)
(2.33565 1.63549 -0.206463)
(2.37865 1.56918 -0.138166)
(2.37903 1.51776 -0.0893262)
(2.34839 1.4579 -0.056653)
(2.29317 1.40018 -0.0424261)
(2.20482 1.34024 -0.0369459)
(2.09398 1.27475 -0.0348866)
(1.97148 1.21027 -0.0338634)
(1.84629 1.14175 -0.0337371)
(1.73071 1.06836 -0.0344552)
(1.62973 0.99757 -0.0357432)
(1.5404 0.93558 -0.0375845)
(1.45828 0.88412 -0.0400283)
(1.37951 0.843355 -0.0430404)
(1.30102 0.811873 -0.0465685)
(1.22041 0.78694 -0.0505611)
(1.13812 0.764182 -0.0550134)
(1.05536 0.740522 -0.0599596)
(0.976633 0.712787 -0.0654435)
(0.90167 0.68063 -0.0713631)
(0.852647 0.637898 -0.0769739)
(9.94465 5.24428 -11.6815)
(9.92533 6.38896 -11.085)
(10.1693 7.06074 -10.4391)
(10.3092 7.56664 -9.80428)
(10.3013 7.86083 -9.19087)
(10.3304 7.95068 -8.70969)
(10.6958 7.49537 -8.44369)
(10.5905 7.26485 -8.16953)
(9.99084 7.04825 -7.75385)
(8.77418 6.48042 -6.85154)
(6.94862 5.20261 -5.45447)
(4.8501 3.49688 -3.86258)
(3.28166 2.27115 -2.54961)
(2.47593 1.69665 -1.65031)
(2.1287 1.60079 -1.02668)
(2.09155 1.65427 -0.57523)
(2.22994 1.75441 -0.257629)
(2.31981 1.78739 -0.117962)
(2.33743 1.76312 -0.0694152)
(2.34167 1.68544 -0.057062)
(2.31761 1.59213 -0.0349438)
(2.26302 1.47945 -0.0272637)
(2.18729 1.37002 -0.0230294)
(2.09745 1.27687 -0.0202706)
(1.9911 1.19665 -0.0190863)
(1.87424 1.1223 -0.0191021)
(1.75381 1.05281 -0.0197248)
(1.63482 0.984176 -0.0207683)
(1.52303 0.915679 -0.022246)
(1.42202 0.851275 -0.0241577)
(1.3313 0.7944 -0.0265074)
(1.24822 0.746438 -0.0292918)
(1.16981 0.707635 -0.0324916)
(1.09342 0.677099 -0.0360897)
(1.01696 0.652797 -0.040075)
(0.940016 0.631622 -0.0444476)
(0.863148 0.610886 -0.0492094)
(0.788983 0.587986 -0.0543374)
(0.719056 0.562282 -0.0596964)
(0.665389 0.530234 -0.0648653)
(9.96085 5.38595 -11.6333)
(10.1133 6.64105 -11.0118)
(10.5517 7.20299 -10.4431)
(10.6977 7.52494 -9.7798)
(10.6072 7.7523 -9.26732)
(10.5701 7.40687 -9.05066)
(10.3509 7.03521 -8.72266)
(9.61767 6.81773 -8.13368)
(8.20392 6.14531 -6.89409)
(5.96325 4.65647 -5.03074)
(3.7341 2.87243 -3.19852)
(2.62123 1.92983 -2.12723)
(2.03421 1.56182 -1.35269)
(1.94298 1.51159 -0.776808)
(2.14279 1.67351 -0.290286)
(2.32808 1.82948 -0.0841397)
(2.42424 1.91587 -0.0314396)
(2.41413 1.88681 -0.0302585)
(2.37152 1.79768 -0.0299568)
(2.29438 1.65501 -0.0204217)
(2.19793 1.51216 -0.0159286)
(2.09109 1.37668 -0.0136892)
(1.98174 1.25253 -0.0125485)
(1.87267 1.146 -0.0120255)
(1.75915 1.05486 -0.0121014)
(1.64266 0.974661 -0.0127249)
(1.52744 0.903168 -0.0137594)
(1.41628 0.836406 -0.0151423)
(1.31147 0.772877 -0.0168779)
(1.21539 0.714608 -0.0189836)
(1.12849 0.663349 -0.0214661)
(1.04901 0.619884 -0.0243239)
(0.97454 0.584384 -0.0275497)
(0.902868 0.556183 -0.0311369)
(0.832236 0.53374 -0.0350785)
(0.761938 0.514802 -0.0393646)
(0.692158 0.497239 -0.0439754)
(0.624481 0.479103 -0.048864)
(0.560726 0.459625 -0.0539182)
(0.508103 0.436866 -0.0589179)
(9.90684 5.44485 -11.6261)
(10.4717 6.89923 -11.0858)
(11.1604 7.23516 -10.4396)
(11.0803 7.13728 -9.83477)
(10.5872 7.0739 -9.68226)
(10.072 6.82483 -9.2538)
(9.33234 6.43995 -8.48659)
(7.79085 5.72691 -6.93687)
(5.34528 4.13685 -4.70142)
(3.35152 2.61603 -2.88698)
(2.35268 1.89049 -1.82497)
(1.92418 1.55978 -1.14735)
(1.92845 1.49846 -0.543008)
(2.29747 1.7919 -0.142341)
(2.48066 1.99189 -0.0405571)
(2.5259 2.02621 -0.0230972)
(2.49869 1.98444 -0.0206097)
(2.42011 1.88438 -0.0173667)
(2.28402 1.72788 -0.0127332)
(2.1399 1.5592 -0.0100673)
(2.00078 1.39715 -0.00865031)
(1.86791 1.24881 -0.0080379)
(1.7429 1.11733 -0.00795458)
(1.62604 1.00617 -0.00824222)
(1.51192 0.911994 -0.00887231)
(1.40013 0.831711 -0.00983085)
(1.29349 0.762142 -0.0110944)
(1.19255 0.699193 -0.0126604)
(1.09702 0.640942 -0.0145418)
(1.00886 0.588544 -0.0167523)
(0.929049 0.542866 -0.0193005)
(0.856126 0.504164 -0.0221901)
(0.787972 0.472493 -0.0254196)
(0.7228 0.447335 -0.0289835)
(0.659174 0.42751 -0.0328706)
(0.59634 0.411357 -0.037062)
(0.534253 0.397235 -0.0415265)
(0.473874 0.383692 -0.0462125)
(0.416763 0.36995 -0.0510352)
(0.36779 0.355035 -0.0558756)
(9.87026 5.26632 -11.6144)
(10.8694 6.98615 -11.1585)
(11.515 6.6794 -10.3805)
(11.1257 6.59948 -10.1909)
(10.1739 6.51625 -9.73429)
(9.13991 6.05571 -8.76395)
(7.64245 5.32092 -7.0173)
(5.03151 3.66262 -4.48226)
(3.2218 2.43786 -2.64593)
(2.34703 1.86683 -1.581)
(2.02784 1.56964 -0.942084)
(2.14672 1.62298 -0.36323)
(2.46168 1.90426 -0.0890781)
(2.62137 2.08584 -0.0382585)
(2.62549 2.1031 -0.0237169)
(2.57671 2.06368 -0.0197639)
(2.458 1.95419 -0.0134699)
(2.2802 1.78692 -0.0092161)
(2.09551 1.60476 -0.00698994)
(1.92171 1.42299 -0.00587921)
(1.76294 1.25476 -0.00545998)
(1.61866 1.10641 -0.00551038)
(1.48855 0.976765 -0.00590655)
(1.37145 0.869093 -0.00657708)
(1.26184 0.777984 -0.00750314)
(1.1574 0.700135 -0.00868022)
(1.06053 0.633291 -0.0101144)
(0.970342 0.57482 -0.0118208)
(0.885136 0.522096 -0.0138156)
(0.806332 0.474888 -0.0161099)
(0.735217 0.434255 -0.0187115)
(0.670385 0.400226 -0.021626)
(0.609837 0.372548 -0.0248523)
(0.552144 0.350757 -0.0283819)
(0.496172 0.333903 -0.0321983)
(0.441175 0.320744 -0.0362767)
(0.386948 0.310055 -0.0405815)
(0.334058 0.300737 -0.0450639)
(0.283546 0.291995 -0.0496602)
(0.239343 0.283759 -0.0542999)
(10.086 4.80832 -11.4837)
(11.2963 5.6037 -11.2914)
(12.06 5.63628 -10.5375)
(11.0794 5.90254 -10.1593)
(9.08213 5.62583 -8.88969)
(7.22266 4.65616 -6.76582)
(4.65618 2.96871 -3.97799)
(3.19171 2.19859 -2.29495)
(2.52057 1.82861 -1.33702)
(2.32141 1.66077 -0.676088)
(2.48674 1.79201 -0.227026)
(2.66766 2.04363 -0.0726989)
(2.7634 2.16079 -0.034185)
(2.73758 2.16125 -0.0253546)
(2.65723 2.12513 -0.0190108)
(2.49507 2.01276 -0.0113286)
(2.28337 1.83797 -0.00703349)
(2.06739 1.64379 -0.00500478)
(1.86039 1.44935 -0.00411003)
(1.67368 1.269 -0.00384559)
(1.50823 1.10534 -0.00398499)
(1.36262 0.964837 -0.00442773)
(1.23402 0.842495 -0.00512034)
(1.12048 0.739971 -0.00603363)
(1.01791 0.654535 -0.00716368)
(0.922271 0.5811 -0.00851349)
(0.834903 0.517883 -0.0100954)
(0.755048 0.463904 -0.011926)
(0.680786 0.41673 -0.0140207)
(0.612117 0.374698 -0.0163892)
(0.550104 0.338646 -0.0190361)
(0.49386 0.308878 -0.0219653)
(0.44145 0.285048 -0.0251739)
(0.391634 0.266638 -0.0286491)
(0.343503 0.252789 -0.032371)
(0.296303 0.24254 -0.0363116)
(0.24971 0.235058 -0.0404353)
(0.204122 0.229427 -0.0446987)
(0.159792 0.224664 -0.0490532)
(0.120595 0.22186 -0.0534522)
(9.90193 3.95794 -11.2125)
(11.2052 3.39417 -10.8831)
(11.2698 4.4509 -10.1535)
(9.11485 4.83229 -8.69115)
(6.04117 3.76716 -5.54903)
(4.23789 2.61945 -3.25235)
(3.30714 2.10448 -1.84307)
(2.87719 1.89167 -0.979074)
(2.79942 1.86231 -0.423998)
(2.86871 1.99091 -0.142443)
(2.94132 2.14403 -0.0645212)
(2.93304 2.20274 -0.0325503)
(2.86913 2.2074 -0.0237516)
(2.74854 2.1775 -0.0167291)
(2.55004 2.06205 -0.00863604)
(2.30562 1.88175 -0.00492782)
(2.05631 1.67992 -0.00333574)
(1.82147 1.47626 -0.00273769)
(1.60584 1.28292 -0.00265929)
(1.41736 1.11254 -0.00291055)
(1.25323 0.96056 -0.00340976)
(1.11106 0.829777 -0.00412305)
(0.988013 0.717918 -0.00503555)
(0.880338 0.622194 -0.00613979)
(0.7851 0.542806 -0.00743781)
(0.698848 0.475055 -0.0089371)
(0.621365 0.416793 -0.0106499)
(0.55165 0.367212 -0.0125901)
(0.487844 0.324876 -0.0147705)
(0.429353 0.287944 -0.0171972)
(0.376572 0.256293 -0.0198728)
(0.328783 0.230351 -0.0227981)
(0.284356 0.210034 -0.0259661)
(0.242276 0.19485 -0.0293614)
(0.2018 0.183795 -0.0329616)
(0.162039 0.176052 -0.0367388)
(0.122547 0.171469 -0.0406594)
(0.0839882 0.16903 -0.0446862)
(0.0452522 0.167738 -0.0487814)
(0.0111331 0.167593 -0.0529118)
(4.6942 -0.147601 -0.13662)
(6.19545 -0.310984 -2.89782)
(6.02729 0.925585 -3.25063)
(5.06467 1.67812 -2.72907)
(4.31254 1.78927 -1.93076)
(3.85233 1.85638 -1.13317)
(3.63593 1.93456 -0.557747)
(3.44733 1.93057 -0.273811)
(3.31201 2.02015 -0.122)
(3.2524 2.13254 -0.0593614)
(3.16023 2.19511 -0.0283235)
(3.01915 2.22313 -0.018576)
(2.86616 2.21464 -0.0113749)
(2.63509 2.10465 -0.00490257)
(2.35588 1.92055 -0.00266474)
(2.06756 1.7073 -0.00186743)
(1.7999 1.4981 -0.00163669)
(1.5625 1.29893 -0.00173361)
(1.34844 1.11909 -0.00207859)
(1.16415 0.961238 -0.00262942)
(1.00643 0.824433 -0.00336798)
(0.870714 0.705229 -0.00428459)
(0.754552 0.604134 -0.00537488)
(0.654589 0.517446 -0.006639)
(0.567812 0.444671 -0.00808099)
(0.491148 0.382755 -0.00970861)
(0.423451 0.329747 -0.0115321)
(0.363406 0.284643 -0.0135621)
(0.309312 0.246633 -0.0158073)
(0.260373 0.214174 -0.0182705)
(0.216407 0.186624 -0.0209514)
(0.176626 0.164104 -0.0238474)
(0.139608 0.146845 -0.0269479)
(0.104734 0.134796 -0.0302357)
(0.0715981 0.126232 -0.0336884)
(0.0384588 0.121021 -0.0372792)
(0.005232 0.118593 -0.0409782)
(-0.0269675 0.11838 -0.0447544)
(-0.059164 0.120058 -0.048578)
(-0.0887117 0.121724 -0.0524245)
(4.85571 1.23822 -0.0128745)
(5.4973 1.17106 -0.280517)
(5.4913 1.43796 -0.40134)
(5.11227 1.65365 -0.402798)
(4.56022 1.74362 -0.319528)
(4.2041 1.78505 -0.211537)
(3.92918 1.88427 -0.131693)
(3.68759 1.97664 -0.072135)
(3.52965 2.04418 -0.0287913)
(3.38594 2.14173 -0.00878765)
(3.2045 2.21018 -0.008947)
(3.01741 2.22249 -0.00507214)
(2.75302 2.13025 -0.00205906)
(2.43044 1.94834 -0.00118032)
(2.10532 1.7318 -0.00090665)
(1.80063 1.5125 -0.000888011)
(1.53306 1.30762 -0.00106634)
(1.30232 1.1233 -0.00143836)
(1.09684 0.962637 -0.00200067)
(0.921114 0.820723 -0.00274295)
(0.771837 0.699333 -0.00365504)
(0.645187 0.593855 -0.00473035)
(0.537934 0.503542 -0.00596625)
(0.446883 0.425965 -0.00736313)
(0.369043 0.360033 -0.00892476)
(0.301609 0.304055 -0.0106571)
(0.243198 0.256122 -0.0125674)
(0.192102 0.215211 -0.0146622)
(0.146721 0.18122 -0.0169462)
(0.106404 0.152665 -0.0194189)
(0.0705747 0.128807 -0.0220778)
(0.0380896 0.109727 -0.0249162)
(0.00740461 0.0953149 -0.0279216)
(-0.0208161 0.0851612 -0.0310764)
(-0.0474172 0.0788346 -0.0343594)
(-0.0744057 0.0758983 -0.0377463)
(-0.101425 0.0751695 -0.0412115)
(-0.128317 0.0766315 -0.0447295)
(-0.15517 0.0802443 -0.0482768)
(-0.180828 0.0845582 -0.0518349)
(4.93004 0.197604 0.0199085)
(5.55548 0.46078 -0.0558519)
(5.34138 0.697883 -0.066021)
(4.79357 1.21247 -0.070078)
(4.42599 1.44153 -0.0652837)
(4.17494 1.60262 -0.0583274)
(3.95596 1.79038 -0.0402957)
(3.78103 1.94146 -0.0174518)
(3.62522 2.06439 -0.0076504)
(3.42333 2.1546 -0.00595979)
(3.20092 2.19295 -0.00287899)
(2.89859 2.12518 -0.00155221)
(2.53303 1.95836 -0.000952867)
(2.16184 1.74091 -0.000633148)
(1.82462 1.52053 -0.000543643)
(1.52475 1.3124 -0.000663395)
(1.26799 1.12106 -0.000983519)
(1.04775 0.958372 -0.00150013)
(0.855151 0.817706 -0.00220546)
(0.692086 0.694808 -0.00308623)
(0.554383 0.5888 -0.0041312)
(0.438428 0.496456 -0.00533235)
(0.341007 0.416443 -0.0066852)
(0.259161 0.347507 -0.00818846)
(0.190071 0.288012 -0.00984365)
(0.131138 0.238045 -0.011654)
(0.0814524 0.194815 -0.0136232)
(0.0382378 0.158265 -0.0157542)
(0.000446261 0.127675 -0.0180477)
(-0.0322382 0.102343 -0.020501)
(-0.0611254 0.0816992 -0.023109)
(-0.0872272 0.0656797 -0.0258626)
(-0.111326 0.0537315 -0.0287484)
(-0.133656 0.0450743 -0.0317496)
(-0.155196 0.0405661 -0.0348465)
(-0.17675 0.039089 -0.0380181)
(-0.198597 0.040019 -0.041243)
(-0.220772 0.0430477 -0.0445009)
(-0.243041 0.0479351 -0.0477736)
(-0.265151 0.0539757 -0.051047)
(4.9488 0.318817 0.0100941)
(5.54734 0.780039 -0.00948953)
(5.3561 1.00795 -0.0130512)
(4.92284 1.3465 -0.0163532)
(4.65352 1.50127 -0.0152031)
(4.41265 1.65934 -0.0101424)
(4.17168 1.84314 -0.00701188)
(3.91588 1.99025 -0.0067479)
(3.67248 2.07934 -0.00520746)
(3.40816 2.12228 -0.00280182)
(3.06086 2.07765 -0.00142832)
(2.65426 1.93474 -0.000731282)
(2.24134 1.7328 -0.000429988)
(1.86216 1.51343 -0.000345603)
(1.53121 1.30291 -0.00042183)
(1.24829 1.11463 -0.000671292)
(1.0095 0.948693 -0.00110949)
(0.805873 0.810243 -0.00174052)
(0.63087 0.69016 -0.00255687)
(0.482494 0.585012 -0.00354573)
(0.357274 0.49322 -0.00469509)
(0.252403 0.412793 -0.00599445)
(0.164807 0.342109 -0.00743692)
(0.091981 0.281265 -0.00901894)
(0.030743 0.228454 -0.0107393)
(-0.0203787 0.183112 -0.0125983)
(-0.0623484 0.144466 -0.0145965)
(-0.0984637 0.112022 -0.0167334)
(-0.129237 0.0845468 -0.0190072)
(-0.155622 0.0620536 -0.0214131)
(-0.178592 0.0441066 -0.0239436)
(-0.199023 0.0303235 -0.0265885)
(-0.217686 0.0203308 -0.0293345)
(-0.235137 0.0137501 -0.0321661)
(-0.252053 0.0105477 -0.0350662)
(-0.269044 0.0101965 -0.0380169)
(-0.286507 0.0122229 -0.0410009)
(-0.304577 0.0162588 -0.0440021)
(-0.322982 0.0220096 -0.0470068)
(-0.341887 0.0290482 -0.0500047)
(5.04432 0.13519 0.00451392)
(5.66416 0.615744 -0.000884026)
(5.44678 0.817272 -0.00200085)
(5.0011 1.17518 -0.00398581)
(4.74323 1.39764 -0.00466882)
(4.50866 1.59911 -0.00373044)
(4.23256 1.80555 -0.00348)
(3.94006 1.93983 -0.00227127)
(3.60769 1.99682 -0.00120984)
(3.21791 1.97628 -0.000580137)
(2.77604 1.86631 -0.000277907)
(2.3284 1.69158 -0.000169631)
(1.91215 1.48773 -0.000159235)
(1.5463 1.28253 -0.000237166)
(1.23806 1.09435 -0.000438213)
(0.982699 0.933834 -0.000797428)
(0.768206 0.797023 -0.0013367)
(0.585312 0.681493 -0.00206269)
(0.428348 0.580605 -0.0029686)
(0.294551 0.490998 -0.00404273)
(0.181575 0.411688 -0.00527131)
(0.087472 0.34186 -0.00664222)
(0.00899692 0.280009 -0.00814652)
(-0.0558763 0.22595 -0.00977847)
(-0.109087 0.17944 -0.0115346)
(-0.152986 0.138267 -0.0134126)
(-0.188877 0.10377 -0.0154097)
(-0.218699 0.0746609 -0.0175234)
(-0.243679 0.050359 -0.0197498)
(-0.264666 0.0305469 -0.0220822)
(-0.282564 0.0148674 -0.0245121)
(-0.298219 0.0030207 -0.0270289)
(-0.312377 -0.00530982 -0.0296201)
(-0.32565 -0.0104238 -0.0322719)
(-0.338616 -0.0125558 -0.0349696)
(-0.351792 -0.0120582 -0.0376988)
(-0.365576 -0.00931241 -0.0404455)
(-0.380152 -0.00466717 -0.0431975)
(-0.395295 0.00157745 -0.0459445)
(-0.411355 0.00911389 -0.048679)
(5.088 0.00434843 0.0014406)
(5.67573 0.564643 0.000570384)
(5.42531 0.833268 0.000264782)
(5.02841 1.17803 -0.000543206)
(4.76812 1.37676 -0.00140795)
(4.5067 1.56357 -0.00108879)
(4.17296 1.73367 -0.000574366)
(3.77194 1.82196 -0.000277556)
(3.34294 1.8255 -0.000158982)
(2.87974 1.75219 -8.37026e-05)
(2.40639 1.61338 -4.48896e-05)
(1.95956 1.43444 -4.55721e-05)
(1.56485 1.24514 -0.000104987)
(1.23486 1.0677 -0.000257811)
(0.965008 0.912558 -0.000541317)
(0.741059 0.781533 -0.00098487)
(0.551232 0.669498 -0.00160577)
(0.388465 0.573166 -0.00240748)
(0.24837 0.48824 -0.00338288)
(0.128553 0.411735 -0.00451941)
(0.0269156 0.343468 -0.00580202)
(-0.0574556 0.282321 -0.0072176)
(-0.127135 0.228417 -0.00875587)
(-0.18446 0.180298 -0.0104092)
(-0.231016 0.138822 -0.0121721)
(-0.268752 0.102505 -0.0140397)
(-0.299107 0.071488 -0.0160074)
(-0.323768 0.0454971 -0.0180712)
(-0.343887 0.0239162 -0.0202254)