/*--------------------------------*- C++ -*----------------------------------*\
| =========                 |                                                 |
| \\      /  F ield         | OpenFOAM: The Open Source CFD Toolbox           |
|  \\    /   O peration     | Version:  2.3.0                                 |
|   \\  /    A nd           | Web:      www.OpenFOAM.org                      |
|    \\/     M anipulation  |                                                 |
\*---------------------------------------------------------------------------*/
FoamFile
{
    version     2.0;
    format      ascii;
    class       volVectorField;
    location    "9600/bottomAir";
    object      U;
}
// * * * * * * * * * * * * * * * * * * * * * * * * * * * * * * * * * * * * * //

dimensions      [0 1 -1 0 0 0 0];

internalField   nonuniform List<vector> 
4000
(
(32.99982 -0.003036834 0)
(24.96296 -0.001524257 0)
(21.72045 -0.0006074919 0)
(22.58203 -0.0004690964 0)
(22.91087 -0.000345196 0)
(22.81894 -0.0002356992 0)
(22.78588 -0.0001813151 0)
(22.79587 -0.0001527143 0)
(22.79938 -0.0001339805 0)
(22.79847 -0.0001222083 0)
(22.79828 -0.0001153185 0)
(22.79854 -0.0001113981 0)
(22.79874 -0.0001093702 0)
(22.79889 -0.0001086252 0)
(22.79906 -0.0001087572 0)
(22.79923 -0.0001094849 0)
(22.79942 -0.0001106177 0)
(22.79961 -0.0001120221 0)
(22.79981 -0.0001136023 0)
(22.80001 -0.0001152888 0)
(22.80022 -0.0001170298 0)
(22.80044 -0.0001187879 0)
(22.80066 -0.0001205343 0)
(22.80089 -0.0001222487 0)
(22.80112 -0.000123915 0)
(22.80136 -0.0001255227 0)
(22.8016 -0.0001270633 0)
(22.80185 -0.0001285317 0)
(22.80209 -0.000129924 0)
(22.80235 -0.0001312387 0)
(22.8026 -0.0001324744 0)
(22.80286 -0.0001336316 0)
(22.80313 -0.0001347106 0)
(22.80339 -0.0001357128 0)
(22.80366 -0.0001366397 0)
(22.80393 -0.000137493 0)
(22.8042 -0.0001382748 0)
(22.80448 -0.0001389868 0)
(22.80476 -0.0001396312 0)
(22.80503 -0.0001402098 0)
(22.80531 -0.0001407245 0)
(22.80559 -0.000141177 0)
(22.80588 -0.0001415689 0)
(22.80616 -0.0001419015 0)
(22.80644 -0.0001421762 0)
(22.80673 -0.0001423937 0)
(22.80701 -0.0001425551 0)
(22.8073 -0.0001426606 0)
(22.80759 -0.0001427107 0)
(22.80787 -0.0001427053 0)
(22.80816 -0.0001426443 0)
(22.80845 -0.000142527 0)
(22.80873 -0.0001423529 0)
(22.80902 -0.0001421206 0)
(22.8093 -0.0001418291 0)
(22.80959 -0.0001414765 0)
(22.80987 -0.0001410611 0)
(22.81016 -0.0001405804 0)
(22.81044 -0.0001400322 0)
(22.81072 -0.0001394134 0)
(22.811 -0.0001387211 0)
(22.81128 -0.0001379517 0)
(22.81155 -0.0001371017 0)
(22.81183 -0.0001361669 0)
(22.8121 -0.0001351432 0)
(22.81237 -0.0001340259 0)
(22.81264 -0.0001328103 0)
(22.81291 -0.0001314912 0)
(22.81317 -0.0001300636 0)
(22.81343 -0.0001285217 0)
(22.81368 -0.0001268602 0)
(22.81394 -0.0001250731 0)
(22.81418 -0.0001231549 0)
(22.81443 -0.0001210994 0)
(22.81467 -0.0001189012 0)
(22.8149 -0.0001165542 0)
(22.81513 -0.0001140533 0)
(22.81536 -0.0001113927 0)
(22.81557 -0.0001085681 0)
(22.81579 -0.0001055744 0)
(22.81599 -0.0001024082 0)
(22.81619 -9.906576e-05 0)
(22.81638 -9.554496e-05 0)
(22.81657 -9.18438e-05 0)
(22.81674 -8.796196e-05 0)
(22.81691 -8.389958e-05 0)
(22.81707 -7.965864e-05 0)
(22.81722 -7.524181e-05 0)
(22.81736 -7.06538e-05 0)
(22.81749 -6.590019e-05 0)
(22.81761 -6.09888e-05 0)
(22.81772 -5.592852e-05 0)
(22.81782 -5.07308e-05 0)
(22.81791 -4.540893e-05 0)
(22.81798 -3.998006e-05 0)
(22.81805 -3.44671e-05 0)
(22.8181 -2.890394e-05 0)
(22.81814 -2.335687e-05 0)
(22.81817 -1.792477e-05 0)
(22.81819 -1.301031e-05 0)
(32.99448 -0.003790976 0)
(24.96038 -0.001639962 0)
(21.71584 -0.0004909294 0)
(22.57682 -0.0004041909 0)
(22.9057 -0.0003049666 0)
(22.81369 -0.0002049847 0)
(22.78054 -0.000171557 0)
(22.79051 -0.0001662508 0)
(22.794 -0.000168357 0)
(22.79309 -0.0001756396 0)
(22.79289 -0.0001863819 0)
(22.79315 -0.0001986514 0)
(22.79335 -0.0002114838 0)
(22.7935 -0.0002244357 0)
(22.79367 -0.0002372338 0)
(22.79386 -0.0002497056 0)
(22.79404 -0.0002617525 0)
(22.79424 -0.0002733184 0)
(22.79444 -0.0002843724 0)
(22.79465 -0.0002948997 0)
(22.79487 -0.0003048963 0)
(22.79509 -0.0003143657 0)
(22.79531 -0.0003233158 0)
(22.79555 -0.0003317584 0)
(22.79578 -0.0003397075 0)
(22.79602 -0.0003471787 0)
(22.79627 -0.0003541886 0)
(22.79652 -0.0003607546 0)
(22.79678 -0.0003668943 0)
(22.79703 -0.0003726253 0)
(22.7973 -0.000377965 0)
(22.79756 -0.0003829306 0)
(22.79783 -0.0003875386 0)
(22.7981 -0.000391805 0)
(22.79837 -0.0003957451 0)
(22.79865 -0.0003993735 0)
(22.79892 -0.0004027037 0)
(22.7992 -0.0004057487 0)
(22.79949 -0.0004085204 0)
(22.79977 -0.0004110297 0)
(22.80005 -0.0004132868 0)
(22.80034 -0.0004153006 0)
(22.80063 -0.0004170794 0)
(22.80091 -0.0004186302 0)
(22.8012 -0.0004199593 0)
(22.80149 -0.0004210718 0)
(22.80178 -0.0004219721 0)
(22.80207 -0.0004226632 0)
(22.80236 -0.0004231477 0)
(22.80266 -0.0004234268 0)
(22.80295 -0.0004235008 0)
(22.80324 -0.0004233693 0)
(22.80353 -0.0004230306 0)
(22.80382 -0.0004224823 0)
(22.80411 -0.000421721 0)
(22.8044 -0.0004207421 0)
(22.80469 -0.0004195405 0)
(22.80498 -0.0004181097 0)
(22.80526 -0.0004164425 0)
(22.80555 -0.0004145307 0)
(22.80583 -0.0004123652 0)
(22.80612 -0.0004099359 0)
(22.8064 -0.0004072318 0)
(22.80668 -0.0004042411 0)
(22.80696 -0.0004009511 0)
(22.80723 -0.0003973481 0)
(22.8075 -0.0003934179 0)
(22.80777 -0.0003891453 0)
(22.80804 -0.0003845148 0)
(22.80831 -0.0003795099 0)
(22.80857 -0.000374114 0)
(22.80882 -0.0003683099 0)
(22.80908 -0.0003620803 0)
(22.80933 -0.0003554077 0)
(22.80957 -0.0003482748 0)
(22.80981 -0.0003406646 0)
(22.81004 -0.0003325607 0)
(22.81027 -0.0003239473 0)
(22.8105 -0.0003148098 0)
(22.81071 -0.0003051349 0)
(22.81092 -0.0002949109 0)
(22.81113 -0.000284128 0)
(22.81132 -0.0002727789 0)
(22.81151 -0.0002608588 0)
(22.81169 -0.000248366 0)
(22.81187 -0.0002353019 0)
(22.81203 -0.0002216719 0)
(22.81218 -0.000207485 0)
(22.81233 -0.0001927548 0)
(22.81246 -0.0001774992 0)
(22.81259 -0.0001617407 0)
(22.8127 -0.0001455069 0)
(22.81281 -0.0001288306 0)
(22.8129 -0.00011175 0)
(22.81298 -9.431009e-05 0)
(22.81305 -7.656439e-05 0)
(22.81311 -5.857836e-05 0)
(22.81315 -4.044669e-05 0)
(22.81319 -2.228592e-05 0)
(22.81321 -4.448518e-06 0)
(32.99432 -0.001447512 0)
(24.96154 -0.0007350822 0)
(21.71639 -0.0003875082 0)
(22.57709 -0.0004012598 0)
(22.90601 -0.000386504 0)
(22.814 -0.0003537753 0)
(22.78084 -0.0003444501 0)
(22.7908 -0.0003480671 0)
(22.7943 -0.0003560691 0)
(22.79339 -0.000367537 0)
(22.79319 -0.0003816982 0)
(22.79346 -0.0003974409 0)
(22.79365 -0.0004140386 0)
(22.79381 -0.0004310475 0)
(22.79398 -0.0004481411 0)
(22.79416 -0.0004650793 0)
(22.79435 -0.0004816905 0)
(22.79455 -0.0004978529 0)
(22.79475 -0.0005134801 0)
(22.79496 -0.000528512 0)
(22.79517 -0.0005429089 0)
(22.79539 -0.0005566462 0)
(22.79562 -0.0005697117 0)
(22.79585 -0.0005821014 0)
(22.79608 -0.0005938192 0)
(22.79633 -0.0006048739 0)
(22.79657 -0.0006152786 0)
(22.79682 -0.0006250495 0)
(22.79707 -0.0006342049 0)
(22.79733 -0.0006427646 0)
(22.79759 -0.0006507496 0)
(22.79786 -0.0006581811 0)
(22.79812 -0.0006650807 0)
(22.79839 -0.0006714695 0)
(22.79866 -0.0006773682 0)
(22.79894 -0.0006827971 0)
(22.79922 -0.0006877753 0)
(22.79949 -0.000692321 0)
(22.79977 -0.0006964514 0)
(22.80006 -0.0007001823 0)
(22.80034 -0.0007035285 0)
(22.80062 -0.0007065031 0)
(22.80091 -0.0007091182 0)
(22.8012 -0.0007113843 0)
(22.80148 -0.0007133104 0)
(22.80177 -0.0007149042 0)
(22.80206 -0.0007161718 0)
(22.80235 -0.000717118 0)
(22.80264 -0.0007177456 0)
(22.80293 -0.0007180567 0)
(22.80322 -0.0007180512 0)
(22.80351 -0.0007177277 0)
(22.8038 -0.0007170833 0)
(22.80409 -0.0007161137 0)
(22.80438 -0.0007148126 0)
(22.80467 -0.0007131728 0)
(22.80496 -0.0007111849 0)
(22.80524 -0.0007088384 0)
(22.80553 -0.0007061209 0)
(22.80581 -0.0007030188 0)
(22.8061 -0.0006995166 0)
(22.80638 -0.0006955975 0)
(22.80666 -0.0006912431 0)
(22.80694 -0.0006864336 0)
(22.80721 -0.0006811475 0)
(22.80749 -0.0006753624 0)
(22.80776 -0.0006690539 0)
(22.80803 -0.000662197 0)
(22.80829 -0.0006547652 0)
(22.80856 -0.0006467313 0)
(22.80882 -0.000638067 0)
(22.80907 -0.0006287437 0)
(22.80933 -0.000618732 0)
(22.80957 -0.0006080028 0)
(22.80982 -0.0005965265 0)
(22.81006 -0.0005842748 0)
(22.81029 -0.0005712196 0)
(22.81052 -0.0005573344 0)
(22.81074 -0.0005425941 0)
(22.81096 -0.0005269762 0)
(22.81117 -0.0005104605 0)
(22.81137 -0.0004930305 0)
(22.81157 -0.000474673 0)
(22.81175 -0.0004553797 0)
(22.81193 -0.0004351469 0)
(22.81211 -0.0004139767 0)
(22.81227 -0.0003918773 0)
(22.81242 -0.0003688634 0)
(22.81257 -0.0003449568 0)
(22.8127 -0.0003201871 0)
(22.81283 -0.000294591 0)
(22.81294 -0.0002682141 0)
(22.81304 -0.0002411097 0)
(22.81313 -0.0002133397 0)
(22.81321 -0.0001849741 0)
(22.81328 -0.0001560916 0)
(22.81334 -0.0001267771 0)
(22.81338 -9.711948e-05 0)
(22.81342 -6.719769e-05 0)
(22.81344 -3.70352e-05 0)
(32.99393 -0.0009985064 0)
(24.96206 -0.0008468661 0)
(21.71694 -0.0006423688 0)
(22.57755 -0.000579816 0)
(22.90646 -0.0005345915 0)
(22.81445 -0.0004923196 0)
(22.78126 -0.0004709363 0)
(22.79121 -0.0004670816 0)
(22.7947 -0.0004736096 0)
(22.79377 -0.0004871752 0)
(22.79357 -0.0005056942 0)
(22.79383 -0.0005273805 0)
(22.79402 -0.0005509307 0)
(22.79418 -0.0005754569 0)
(22.79434 -0.0006003355 0)
(22.79453 -0.0006251226 0)
(22.79471 -0.0006495058 0)
(22.79491 -0.0006732672 0)
(22.79511 -0.0006962563 0)
(22.79532 -0.0007183714 0)
(22.79553 -0.0007395467 0)
(22.79575 -0.0007597432 0)
(22.79598 -0.0007789415 0)
(22.79621 -0.0007971372 0)
(22.79645 -0.000814337 0)
(22.79669 -0.000830556 0)
(22.79694 -0.0008458151 0)
(22.79719 -0.0008601401 0)
(22.79744 -0.0008735595 0)
(22.7977 -0.0008861041 0)
(22.79796 -0.0008978057 0)
(22.79822 -0.0009086967 0)
(22.79849 -0.0009188095 0)
(22.79876 -0.0009281758 0)
(22.79903 -0.0009368266 0)
(22.79931 -0.0009447916 0)
(22.79958 -0.0009520994 0)
(22.79986 -0.0009587767 0)
(22.80014 -0.0009648486 0)
(22.80043 -0.0009703385 0)
(22.80071 -0.0009752677 0)
(22.80099 -0.0009796557 0)
(22.80128 -0.0009835197 0)
(22.80157 -0.0009868751 0)
(22.80185 -0.0009897351 0)
(22.80214 -0.0009921108 0)
(22.80243 -0.000994011 0)
(22.80272 -0.0009954427 0)
(22.80301 -0.0009964106 0)
(22.8033 -0.000996917 0)
(22.80359 -0.0009969624 0)
(22.80388 -0.000996545 0)
(22.80417 -0.0009956608 0)
(22.80446 -0.0009943036 0)
(22.80475 -0.0009924651 0)
(22.80504 -0.0009901348 0)
(22.80533 -0.0009872999 0)
(22.80562 -0.0009839456 0)
(22.8059 -0.0009800548 0)
(22.80619 -0.0009756082 0)
(22.80647 -0.0009705842 0)
(22.80675 -0.0009649593 0)
(22.80703 -0.0009587077 0)
(22.80731 -0.0009518015 0)
(22.80759 -0.0009442109 0)
(22.80786 -0.000935904 0)
(22.80814 -0.0009268471 0)
(22.80841 -0.0009170047 0)
(22.80867 -0.0009063399 0)
(22.80894 -0.0008948142 0)
(22.8092 -0.0008823881 0)
(22.80945 -0.0008690209 0)
(22.80971 -0.0008546716 0)
(22.80995 -0.0008392989 0)
(22.8102 -0.0008228614 0)
(22.81044 -0.0008053186 0)
(22.81067 -0.0007866311 0)
(22.8109 -0.0007667611 0)
(22.81113 -0.0007456733 0)
(22.81134 -0.0007233353 0)
(22.81155 -0.0006997185 0)
(22.81176 -0.0006747989 0)
(22.81195 -0.0006485577 0)
(22.81214 -0.0006209826 0)
(22.81232 -0.000592068 0)
(22.8125 -0.0005618161 0)
(22.81266 -0.0005302379 0)
(22.81282 -0.0004973537 0)
(22.81296 -0.0004631938 0)
(22.8131 -0.0004277989 0)
(22.81322 -0.0003912209 0)
(22.81334 -0.000353523 0)
(22.81344 -0.0003147798 0)
(22.81353 -0.0002750775 0)
(22.81361 -0.0002345135 0)
(22.81368 -0.0001931966 0)
(22.81374 -0.0001512456 0)
(22.81378 -0.0001087903 0)
(22.81381 -6.595784e-05 0)
(22.81384 -2.291733e-05 0)
(32.9938 -0.0005580105 0)
(24.96241 -0.0005292552 0)
(21.71728 -0.0004536408 0)
(22.5778 -0.0004545034 0)
(22.90668 -0.0004697766 0)
(22.81466 -0.0004841401 0)
(22.78146 -0.0005056605 0)
(22.79139 -0.0005342983 0)
(22.79487 -0.0005667909 0)
(22.79395 -0.0006014413 0)
(22.79374 -0.0006373569 0)
(22.794 -0.0006737682 0)
(22.79419 -0.0007100739 0)
(22.79435 -0.0007458573 0)
(22.79452 -0.0007808239 0)
(22.7947 -0.0008147628 0)
(22.79489 -0.0008475256 0)
(22.79509 -0.000879012 0)
(22.79529 -0.0009091572 0)
(22.7955 -0.0009379233 0)
(22.79572 -0.000965294 0)
(22.79594 -0.0009912688 0)
(22.79617 -0.00101586 0)
(22.7964 -0.001039089 0)
(22.79664 -0.001060987 0)
(22.79688 -0.001081587 0)
(22.79713 -0.00110093 0)
(22.79738 -0.001119057 0)
(22.79764 -0.001136012 0)
(22.7979 -0.001151842 0)
(22.79816 -0.00116659 0)
(22.79842 -0.001180303 0)
(22.79869 -0.001193024 0)
(22.79896 -0.001204796 0)
(22.79924 -0.001215662 0)
(22.79951 -0.00122566 0)
(22.79979 -0.001234828 0)
(22.80007 -0.001243202 0)
(22.80035 -0.001250815 0)
(22.80063 -0.001257697 0)
(22.80092 -0.001263877 0)
(22.8012 -0.001269379 0)
(22.80149 -0.001274227 0)
(22.80178 -0.00127844 0)
(22.80206 -0.001282036 0)
(22.80235 -0.001285029 0)
(22.80264 -0.001287431 0)
(22.80293 -0.001289251 0)
(22.80322 -0.001290495 0)
(22.80351 -0.001291167 0)
(22.80381 -0.001291267 0)
(22.8041 -0.001290793 0)
(22.80439 -0.00128974 0)
(22.80468 -0.0012881 0)
(22.80497 -0.001285863 0)
(22.80526 -0.001283016 0)
(22.80555 -0.001279541 0)
(22.80583 -0.001275421 0)
(22.80612 -0.001270633 0)
(22.80641 -0.001265152 0)
(22.80669 -0.00125895 0)
(22.80697 -0.001251998 0)
(22.80725 -0.001244262 0)
(22.80753 -0.001235706 0)
(22.80781 -0.001226292 0)
(22.80809 -0.001215977 0)
(22.80836 -0.00120472 0)
(22.80863 -0.001192474 0)
(22.8089 -0.00117919 0)
(22.80916 -0.00116482 0)
(22.80942 -0.001149311 0)
(22.80968 -0.001132611 0)
(22.80994 -0.001114665 0)
(22.81019 -0.001095421 0)
(22.81043 -0.001074825 0)
(22.81067 -0.001052822 0)
(22.81091 -0.001029361 0)
(22.81114 -0.001004392 0)
(22.81136 -0.0009778688 0)
(22.81158 -0.0009497479 0)
(22.8118 -0.0009199911 0)
(22.812 -0.0008885659 0)
(22.8122 -0.0008554467 0)
(22.81239 -0.0008206158 0)
(22.81257 -0.0007840643 0)
(22.81275 -0.0007457938 0)
(22.81291 -0.0007058169 0)
(22.81307 -0.0006641582 0)
(22.81322 -0.0006208554 0)
(22.81335 -0.0005759599 0)
(22.81348 -0.0005295376 0)
(22.81359 -0.0004816689 0)
(22.8137 -0.0004324488 0)
(22.81379 -0.0003819872 0)
(22.81387 -0.0003304079 0)
(22.81394 -0.0002778476 0)
(22.814 -0.000224454 0)
(22.81405 -0.000170386 0)
(22.81408 -0.0001157954 0)
(22.8141 -6.089881e-05 0)
(32.99362 -0.0004112316 0)
(24.96247 -0.0005006438 0)
(21.71737 -0.0005228532 0)
(22.57788 -0.0005613356 0)
(22.90677 -0.000596397 0)
(22.81475 -0.0006252348 0)
(22.78155 -0.0006547375 0)
(22.79149 -0.0006874664 0)
(22.79497 -0.0007229846 0)
(22.79404 -0.0007606455 0)
(22.79384 -0.0007999068 0)
(22.7941 -0.000840166 0)
(22.79429 -0.0008808379 0)
(22.79444 -0.0009214268 0)
(22.79462 -0.000961531 0)
(22.7948 -0.001000831 0)
(22.79499 -0.001039079 0)
(22.79519 -0.001076089 0)
(22.79539 -0.001111726 0)
(22.7956 -0.001145896 0)
(22.79582 -0.001178538 0)
(22.79604 -0.001209619 0)
(22.79627 -0.001239127 0)
(22.79651 -0.001267067 0)
(22.79675 -0.001293457 0)
(22.79699 -0.001318326 0)
(22.79724 -0.00134171 0)
(22.79749 -0.00136365 0)
(22.79775 -0.001384193 0)
(22.79801 -0.001403387 0)
(22.79827 -0.001421283 0)
(22.79854 -0.00143793 0)
(22.7988 -0.001453381 0)
(22.79908 -0.001467683 0)
(22.79935 -0.001480885 0)
(22.79963 -0.001493032 0)
(22.7999 -0.00150417 0)
(22.80019 -0.001514339 0)
(22.80047 -0.001523579 0)
(22.80075 -0.001531924 0)
(22.80104 -0.001539409 0)
(22.80132 -0.001546062 0)
(22.80161 -0.001551911 0)
(22.8019 -0.00155698 0)
(22.80219 -0.001561288 0)
(22.80248 -0.001564852 0)
(22.80277 -0.001567686 0)
(22.80306 -0.001569801 0)
(22.80335 -0.001571203 0)
(22.80364 -0.001571897 0)
(22.80393 -0.001571882 0)
(22.80422 -0.001571156 0)
(22.80451 -0.001569712 0)
(22.8048 -0.00156754 0)
(22.80509 -0.001564627 0)
(22.80538 -0.001560957 0)
(22.80567 -0.001556509 0)
(22.80596 -0.00155126 0)
(22.80625 -0.001545183 0)
(22.80654 -0.001538248 0)
(22.80682 -0.001530421 0)
(22.8071 -0.001521664 0)
(22.80739 -0.001511937 0)
(22.80767 -0.001501195 0)
(22.80795 -0.001489392 0)
(22.80822 -0.001476477 0)
(22.8085 -0.001462396 0)
(22.80877 -0.001447093 0)
(22.80904 -0.001430509 0)
(22.8093 -0.001412582 0)
(22.80957 -0.00139325 0)
(22.80982 -0.001372446 0)
(22.81008 -0.001350105 0)
(22.81033 -0.001326159 0)
(22.81058 -0.001300542 0)
(22.81082 -0.001273188 0)
(22.81106 -0.001244032 0)
(22.81129 -0.001213011 0)
(22.81152 -0.001180067 0)
(22.81174 -0.001145145 0)
(22.81195 -0.001108197 0)
(22.81216 -0.001069182 0)
(22.81236 -0.001028066 0)
(22.81255 -0.000984825 0)
(22.81274 -0.0009394475 0)
(22.81291 -0.000891933 0)
(22.81308 -0.0008422954 0)
(22.81324 -0.0007905632 0)
(22.81339 -0.0007367816 0)
(22.81352 -0.0006810124 0)
(22.81365 -0.0006233355 0)
(22.81377 -0.0005638491 0)
(22.81387 -0.0005026697 0)
(22.81397 -0.0004399321 0)
(22.81405 -0.0003757887 0)
(22.81412 -0.0003104084 0)
(22.81418 -0.0002439742 0)
(22.81423 -0.0001766852 0)
(22.81426 -0.0001087347 0)
(22.81428 -4.040512e-05 0)
(32.99351 -0.0003010965 0)
(24.96252 -0.0004136985 0)
(21.71746 -0.0004662082 0)
(22.57796 -0.000522957 0)
(22.90685 -0.0005788686 0)
(22.81483 -0.0006318575 0)
(22.78162 -0.0006848281 0)
(22.79155 -0.0007392549 0)
(22.79503 -0.0007948649 0)
(22.7941 -0.0008510235 0)
(22.7939 -0.0009071957 0)
(22.79415 -0.0009628956 0)
(22.79434 -0.001017683 0)
(22.7945 -0.001071197 0)
(22.79467 -0.001123159 0)
(22.79486 -0.001173359 0)
(22.79505 -0.001221648 0)
(22.79525 -0.001267921 0)
(22.79545 -0.001312118 0)
(22.79567 -0.001354205 0)
(22.79589 -0.001394177 0)
(22.79611 -0.001432049 0)
(22.79634 -0.001467851 0)
(22.79658 -0.001501625 0)
(22.79682 -0.001533424 0)
(22.79707 -0.001563307 0)
(22.79732 -0.001591338 0)
(22.79757 -0.001617583 0)
(22.79783 -0.001642114 0)
(22.79809 -0.001664999 0)
(22.79835 -0.001686309 0)
(22.79862 -0.001706112 0)
(22.79889 -0.001724476 0)
(22.79916 -0.001741465 0)
(22.79944 -0.001757143 0)
(22.79972 -0.001771569 0)
(22.8 -0.001784798 0)
(22.80028 -0.001796884 0)
(22.80056 -0.001807875 0)
(22.80085 -0.001817817 0)
(22.80113 -0.001826751 0)
(22.80142 -0.001834715 0)
(22.80171 -0.001841741 0)
(22.802 -0.00184786 0)
(22.80229 -0.001853096 0)
(22.80258 -0.001857472 0)
(22.80287 -0.001861003 0)
(22.80316 -0.001863704 0)
(22.80345 -0.001865584 0)
(22.80374 -0.001866648 0)
(22.80403 -0.001866897 0)
(22.80433 -0.001866327 0)
(22.80462 -0.001864933 0)
(22.80491 -0.001862702 0)
(22.8052 -0.00185962 0)
(22.80549 -0.001855667 0)
(22.80578 -0.001850821 0)
(22.80607 -0.001845052 0)
(22.80636 -0.001838331 0)
(22.80665 -0.00183062 0)
(22.80693 -0.001821879 0)
(22.80722 -0.001812066 0)
(22.8075 -0.001801131 0)
(22.80778 -0.001789022 0)
(22.80806 -0.001775683 0)
(22.80834 -0.001761053 0)
(22.80862 -0.00174507 0)
(22.80889 -0.001727665 0)
(22.80916 -0.001708768 0)
(22.80943 -0.001688305 0)
(22.80969 -0.0016662 0)
(22.80995 -0.001642376 0)
(22.81021 -0.001616751 0)
(22.81046 -0.001589246 0)
(22.81071 -0.001559778 0)
(22.81096 -0.001528268 0)
(22.8112 -0.001494637 0)
(22.81143 -0.001458808 0)
(22.81166 -0.00142071 0)
(22.81188 -0.001380274 0)
(22.8121 -0.001337441 0)
(22.81231 -0.001292158 0)
(22.81251 -0.001244382 0)
(22.8127 -0.001194082 0)
(22.81289 -0.00114124 0)
(22.81307 -0.001085853 0)
(22.81324 -0.001027932 0)
(22.8134 -0.0009675108 0)
(22.81355 -0.0009046386 0)
(22.81369 -0.000839387 0)
(22.81382 -0.0007718491 0)
(22.81394 -0.0007021399 0)
(22.81405 -0.0006303971 0)
(22.81414 -0.0005567803 0)
(22.81423 -0.0004814707 0)
(22.8143 -0.0004046694 0)
(22.81436 -0.0003265948 0)
(22.81441 -0.0002474849 0)
(22.81444 -0.0001675709 0)
(22.81446 -8.719378e-05 0)
(32.9934 -0.0002612425 0)
(24.96249 -0.0004055891 0)
(21.71745 -0.0004940957 0)
(22.57795 -0.0005794897 0)
(22.90685 -0.0006609759 0)
(22.81483 -0.0007363921 0)
(22.78163 -0.0008076762 0)
(22.79157 -0.0008767522 0)
(22.79504 -0.0009443212 0)
(22.79412 -0.001010508 0)
(22.79391 -0.001075321 0)
(22.79417 -0.001138688 0)
(22.79437 -0.001200465 0)
(22.79452 -0.001260484 0)
(22.7947 -0.001318589 0)
(22.79489 -0.001374647 0)
(22.79508 -0.001428549 0)
(22.79528 -0.001480212 0)
(22.79549 -0.001529585 0)
(22.7957 -0.001576638 0)
(22.79593 -0.001621363 0)
(22.79615 -0.001663775 0)
(22.79639 -0.001703901 0)
(22.79663 -0.001741781 0)
(22.79687 -0.00177747 0)
(22.79712 -0.001811025 0)
(22.79737 -0.001842515 0)
(22.79762 -0.001872009 0)
(22.79788 -0.001899581 0)
(22.79815 -0.001925305 0)
(22.79841 -0.001949258 0)
(22.79868 -0.001971512 0)
(22.79895 -0.001992141 0)
(22.79923 -0.002011217 0)
(22.7995 -0.002028806 0)
(22.79978 -0.002044975 0)
(22.80006 -0.002059783 0)
(22.80035 -0.002073291 0)
(22.80063 -0.00208555 0)
(22.80091 -0.002096612 0)
(22.8012 -0.00210652 0)
(22.80149 -0.002115317 0)
(22.80178 -0.002123039 0)
(22.80207 -0.002129719 0)
(22.80236 -0.002135383 0)
(22.80265 -0.002140056 0)
(22.80294 -0.002143755 0)
(22.80323 -0.002146496 0)
(22.80353 -0.002148287 0)
(22.80382 -0.002149135 0)
(22.80411 -0.002149038 0)
(22.80441 -0.002147994 0)
(22.8047 -0.002145994 0)
(22.80499 -0.002143024 0)
(22.80528 -0.002139067 0)
(22.80557 -0.0021341 0)
(22.80587 -0.002128095 0)
(22.80616 -0.002121021 0)
(22.80645 -0.002112842 0)
(22.80673 -0.002103515 0)
(22.80702 -0.002092994 0)
(22.80731 -0.002081229 0)
(22.80759 -0.002068163 0)
(22.80787 -0.002053737 0)
(22.80816 -0.002037884 0)
(22.80843 -0.002020536 0)
(22.80871 -0.002001618 0)
(22.80899 -0.001981052 0)
(22.80926 -0.001958757 0)
(22.80953 -0.001934645 0)
(22.80979 -0.001908629 0)
(22.81005 -0.001880617 0)
(22.81031 -0.001850515 0)
(22.81057 -0.001818229 0)
(22.81082 -0.001783662 0)
(22.81107 -0.00174672 0)
(22.81131 -0.001707309 0)
(22.81154 -0.001665339 0)
(22.81178 -0.001620722 0)
(22.812 -0.001573378 0)
(22.81222 -0.001523234 0)
(22.81243 -0.001470225 0)
(22.81264 -0.001414297 0)
(22.81283 -0.001355412 0)
(22.81302 -0.001293543 0)
(22.8132 -0.001228683 0)
(22.81338 -0.001160845 0)
(22.81354 -0.001090059 0)
(22.81369 -0.001016383 0)
(22.81384 -0.000939897 0)
(22.81397 -0.0008607065 0)
(22.81409 -0.0007789444 0)
(22.8142 -0.0006947702 0)
(22.8143 -0.0006083702 0)
(22.81438 -0.0005199563 0)
(22.81446 -0.0004297653 0)
(22.81452 -0.0003380546 0)
(22.81457 -0.0002451068 0)
(22.8146 -0.0001511973 0)
(22.81462 -5.673426e-05 0)
(32.9933 -0.0002363257 0)
(24.96245 -0.0003935823 0)
(21.71744 -0.0004968717 0)
(22.57795 -0.0005947962 0)
(22.90685 -0.0006900405 0)
(22.81484 -0.0007801349 0)
(22.78164 -0.0008661169 0)
(22.79157 -0.0009496161 0)
(22.79505 -0.001031269 0)
(22.79413 -0.001111122 0)
(22.79392 -0.001189097 0)
(22.79418 -0.001265068 0)
(22.79438 -0.001338856 0)
(22.79454 -0.001410276 0)
(22.79471 -0.001479164 0)
(22.7949 -0.001545389 0)
(22.7951 -0.001608852 0)
(22.7953 -0.001669489 0)
(22.79551 -0.001727267 0)
(22.79573 -0.001782181 0)
(22.79595 -0.00183425 0)
(22.79618 -0.001883512 0)
(22.79642 -0.001930022 0)
(22.79666 -0.001973848 0)
(22.79691 -0.002015069 0)
(22.79716 -0.002053771 0)
(22.79741 -0.002090043 0)
(22.79767 -0.00212398 0)
(22.79793 -0.002155678 0)
(22.7982 -0.002185233 0)
(22.79846 -0.00221274 0)
(22.79873 -0.002238291 0)
(22.79901 -0.002261978 0)
(22.79928 -0.002283887 0)
(22.79956 -0.002304102 0)
(22.79984 -0.002322702 0)
(22.80012 -0.002339761 0)
(22.80041 -0.002355349 0)
(22.80069 -0.002369531 0)
(22.80098 -0.002382366 0)
(22.80127 -0.002393908 0)
(22.80156 -0.002404208 0)
(22.80185 -0.002413307 0)
(22.80214 -0.002421246 0)
(22.80243 -0.002428057 0)
(22.80272 -0.002433767 0)
(22.80302 -0.0024384 0)
(22.80331 -0.002441973 0)
(22.8036 -0.002444497 0)
(22.8039 -0.002445979 0)
(22.80419 -0.00244642 0)
(22.80448 -0.002445817 0)
(22.80478 -0.002444161 0)
(22.80507 -0.002441436 0)
(22.80537 -0.002437623 0)
(22.80566 -0.002432696 0)
(22.80595 -0.002426625 0)
(22.80624 -0.002419374 0)
(22.80653 -0.002410901 0)
(22.80682 -0.00240116 0)
(22.80711 -0.002390096 0)
(22.8074 -0.002377654 0)
(22.80768 -0.002363768 0)
(22.80797 -0.00234837 0)
(22.80825 -0.002331385 0)
(22.80853 -0.002312734 0)
(22.80881 -0.002292332 0)
(22.80909 -0.002270089 0)
(22.80936 -0.00224591 0)
(22.80963 -0.002219697 0)
(22.8099 -0.002191346 0)
(22.81016 -0.002160752 0)
(22.81043 -0.002127806 0)
(22.81068 -0.002092398 0)
(22.81094 -0.002054416 0)
(22.81119 -0.002013747 0)
(22.81143 -0.001970283 0)
(22.81167 -0.001923916 0)
(22.8119 -0.001874542 0)
(22.81213 -0.001822064 0)
(22.81235 -0.001766394 0)
(22.81257 -0.001707453 0)
(22.81278 -0.001645174 0)
(22.81298 -0.001579505 0)
(22.81317 -0.001510413 0)
(22.81336 -0.001437883 0)
(22.81353 -0.001361921 0)
(22.8137 -0.00128256 0)
(22.81385 -0.001199859 0)
(22.814 -0.001113905 0)
(22.81413 -0.001024817 0)
(22.81426 -0.0009327425 0)
(22.81437 -0.0008378634 0)
(22.81447 -0.0007403926 0)
(22.81456 -0.0006405736 0)
(22.81463 -0.0005386799 0)
(22.8147 -0.0004350101 0)
(22.81475 -0.0003298928 0)
(22.81478 -0.0002236494 0)
(22.81481 -0.0001167567 0)
(32.9932 -0.0002325625 0)
(24.96238 -0.0004071743 0)
(21.7174 -0.000528373 0)
(22.57791 -0.0006442602 0)
(22.90681 -0.0007587308 0)
(22.81481 -0.0008678919 0)
(22.78161 -0.0009717327 0)
(22.79155 -0.001071564 0)
(22.79503 -0.00116799 0)
(22.79411 -0.001261131 0)
(22.79391 -0.001351045 0)
(22.79417 -0.001437764 0)
(22.79437 -0.00152127 0)
(22.79453 -0.001601519 0)
(22.79471 -0.00167847 0)
(22.79491 -0.001752091 0)
(22.79511 -0.001822366 0)
(22.79531 -0.001889299 0)
(22.79553 -0.001952908 0)
(22.79575 -0.002013232 0)
(22.79598 -0.002070326 0)
(22.79621 -0.002124257 0)
(22.79645 -0.002175106 0)
(22.79669 -0.002222962 0)
(22.79694 -0.002267922 0)
(22.79719 -0.002310087 0)
(22.79745 -0.002349565 0)
(22.79771 -0.002386462 0)
(22.79797 -0.002420887 0)
(22.79824 -0.002452946 0)
(22.79851 -0.002482747 0)
(22.79878 -0.002510391 0)
(22.79906 -0.002535978 0)
(22.79933 -0.002559605 0)
(22.79961 -0.002581361 0)
(22.7999 -0.002601334 0)
(22.80018 -0.002619605 0)
(22.80046 -0.00263625 0)
(22.80075 -0.002651338 0)
(22.80104 -0.002664935 0)
(22.80133 -0.002677099 0)
(22.80162 -0.002687884 0)
(22.80191 -0.002697337 0)
(22.8022 -0.002705499 0)
(22.8025 -0.002712406 0)
(22.80279 -0.002718089 0)
(22.80308 -0.00272257 0)
(22.80338 -0.002725869 0)
(22.80367 -0.002727998 0)
(22.80397 -0.002728963 0)
(22.80426 -0.002728767 0)
(22.80456 -0.002727404 0)
(22.80485 -0.002724863 0)
(22.80515 -0.002721129 0)
(22.80544 -0.002716178 0)
(22.80573 -0.002709983 0)
(22.80603 -0.00270251 0)
(22.80632 -0.002693718 0)
(22.80661 -0.002683561 0)
(22.8069 -0.002671987 0)
(22.80719 -0.002658937 0)
(22.80748 -0.002644347 0)
(22.80777 -0.002628145 0)
(22.80805 -0.002610254 0)
(22.80834 -0.002590592 0)
(22.80862 -0.002569068 0)
(22.8089 -0.002545588 0)
(22.80918 -0.00252005 0)
(22.80945 -0.002492349 0)
(22.80973 -0.002462372 0)
(22.81 -0.002430003 0)
(22.81027 -0.002395123 0)
(22.81053 -0.002357606 0)
(22.81079 -0.002317327 0)
(22.81105 -0.002274159 0)
(22.8113 -0.002227971 0)
(22.81154 -0.002178638 0)
(22.81179 -0.002126035 0)
(22.81202 -0.00207004 0)
(22.81226 -0.00201054 0)
(22.81248 -0.001947429 0)
(22.8127 -0.001880613 0)
(22.81291 -0.001810009 0)
(22.81311 -0.001735554 0)
(22.81331 -0.001657202 0)
(22.8135 -0.001574929 0)
(22.81368 -0.001488737 0)
(22.81385 -0.001398656 0)
(22.81401 -0.001304746 0)
(22.81416 -0.001207102 0)
(22.8143 -0.001105853 0)
(22.81442 -0.001001164 0)
(22.81454 -0.0008932384 0)
(22.81464 -0.000782318 0)
(22.81473 -0.0006686803 0)
(22.81481 -0.0005526385 0)
(22.81487 -0.0004345361 0)
(22.81492 -0.0003147531 0)
(22.81496 -0.0001936619 0)
(22.81498 -7.181594e-05 0)
(32.9931 -0.0002353939 0)
(24.96231 -0.000423968 0)
(21.71735 -0.0005575975 0)
(22.57786 -0.0006857174 0)
(22.90677 -0.0008134853 0)
(22.81477 -0.0009361412 0)
(22.78159 -0.00105316 0)
(22.79153 -0.001165764 0)
(22.79501 -0.001274526 0)
(22.79409 -0.001379539 0)
(22.7939 -0.001480852 0)
(22.79416 -0.001578493 0)
(22.79436 -0.001672441 0)
(22.79453 -0.001762654 0)
(22.79471 -0.00184909 0)
(22.79491 -0.001931718 0)
(22.79511 -0.002010526 0)
(22.79532 -0.002085525 0)
(22.79554 -0.002156744 0)
(22.79576 -0.002224233 0)
(22.79599 -0.002288062 0)
(22.79623 -0.002348315 0)
(22.79647 -0.002405089 0)
(22.79672 -0.002458495 0)
(22.79697 -0.002508647 0)
(22.79722 -0.002555669 0)
(22.79748 -0.002599685 0)
(22.79775 -0.002640823 0)
(22.79801 -0.00267921 0)
(22.79828 -0.002714972 0)
(22.79855 -0.002748233 0)
(22.79883 -0.002779111 0)
(22.79911 -0.002807724 0)
(22.79939 -0.00283418 0)
(22.79967 -0.002858586 0)
(22.79995 -0.00288104 0)
(22.80024 -0.002901635 0)
(22.80052 -0.002920459 0)
(22.80081 -0.002937592 0)
(22.8011 -0.002953107 0)
(22.80139 -0.002967072 0)
(22.80168 -0.002979546 0)
(22.80198 -0.002990584 0)
(22.80227 -0.003000232 0)
(22.80256 -0.003008531 0)
(22.80286 -0.003015515 0)
(22.80315 -0.003021211 0)
(22.80345 -0.003025641 0)
(22.80375 -0.003028817 0)
(22.80404 -0.003030749 0)
(22.80434 -0.003031437 0)
(22.80463 -0.003030876 0)
(22.80493 -0.003029056 0)
(22.80523 -0.003025956 0)
(22.80552 -0.003021554 0)
(22.80582 -0.003015817 0)
(22.80611 -0.003008708 0)
(22.80641 -0.003000182 0)
(22.8067 -0.002990188 0)
(22.80699 -0.002978666 0)
(22.80728 -0.002965553 0)
(22.80757 -0.002950775 0)
(22.80786 -0.002934254 0)
(22.80815 -0.002915904 0)
(22.80844 -0.002895631 0)
(22.80872 -0.002873335 0)
(22.809 -0.002848909 0)
(22.80929 -0.002822241 0)
(22.80956 -0.002793209 0)
(22.80984 -0.002761689 0)
(22.81011 -0.002727548 0)
(22.81038 -0.002690651 0)
(22.81065 -0.002650857 0)
(22.81091 -0.002608021 0)
(22.81117 -0.002561997 0)
(22.81143 -0.002512637 0)
(22.81168 -0.002459795 0)
(22.81192 -0.002403325 0)
(22.81216 -0.002343086 0)
(22.8124 -0.002278944 0)
(22.81263 -0.002210773 0)
(22.81285 -0.00213846 0)
(22.81307 -0.002061903 0)
(22.81328 -0.001981022 0)
(22.81348 -0.001895756 0)
(22.81367 -0.001806069 0)
(22.81385 -0.001711953 0)
(22.81402 -0.001613434 0)
(22.81419 -0.001510569 0)
(22.81434 -0.001403458 0)
(22.81448 -0.001292237 0)
(22.81461 -0.001177089 0)
(22.81473 -0.001058237 0)
(22.81484 -0.0009359532 0)
(22.81493 -0.0008105488 0)
(22.81501 -0.0006823795 0)
(22.81508 -0.0005518369 0)
(22.81513 -0.0004193562 0)
(22.81517 -0.0002853652 0)
(22.81519 -0.0001505008 0)
(32.99299 -0.0002460202 0)
(24.96223 -0.0004509294 0)
(21.71728 -0.0005985309 0)
(22.5778 -0.0007411026 0)
(22.90672 -0.0008846705 0)
(22.81472 -0.001023437 0)
(22.78154 -0.001156246 0)
(22.79148 -0.00128407 0)