/*--------------------------------*- C++ -*----------------------------------*\
| =========                 |                                                 |
| \\      /  F ield         | OpenFOAM: The Open Source CFD Toolbox           |
|  \\    /   O peration     | Version:  2.3.0                                 |
|   \\  /    A nd           | Web:      www.OpenFOAM.org                      |
|    \\/     M anipulation  |                                                 |
\*---------------------------------------------------------------------------*/
FoamFile
{
    version     2.0;
    format      ascii;
    class       volScalarField;
    location    "9800/wall";
    object      T;
}
// * * * * * * * * * * * * * * * * * * * * * * * * * * * * * * * * * * * * * //

dimensions      [0 0 0 1 0 0 0];

internalField   nonuniform List<scalar> 
2000
(
1153.505
1153.57
1153.604
1153.601
1153.59
1153.577
1153.562
1153.547
1153.531
1153.515
1153.498
1153.481
1153.464
1153.447
1153.43
1153.413
1153.396
1153.378
1153.361
1153.344
1153.327
1153.309
1153.292
1153.275
1153.257
1153.24
1153.223
1153.205
1153.188
1153.171
1153.153
1153.136
1153.118
1153.101
1153.084
1153.066
1153.049
1153.031
1153.014
1152.997
1152.979
1152.962
1152.944
1152.927
1152.91
1152.892
1152.875
1152.857
1152.84
1152.822
1152.805
1152.788
1152.77
1152.753
1152.735
1152.718
1152.7
1152.683
1152.665
1152.648
1152.63
1152.613
1152.596
1152.578
1152.561
1152.543
1152.526
1152.508
1152.491
1152.473
1152.456
1152.438
1152.421
1152.403
1152.386
1152.368
1152.351
1152.333
1152.316
1152.298
1152.281
1152.263
1152.246
1152.229
1152.211
1152.194
1152.176
1152.159
1152.142
1152.124
1152.107
1152.09
1152.073
1152.056
1152.039
1152.023
1152.008
1151.993
1151.98
1151.971
1111.045
1111.068
1111.084
1111.087
1111.082
1111.073
1111.062
1111.049
1111.036
1111.022
1111.007
1110.992
1110.977
1110.962
1110.947
1110.931
1110.916
1110.9
1110.884
1110.869
1110.853
1110.837
1110.821
1110.806
1110.79
1110.774
1110.758
1110.742
1110.726
1110.711
1110.695
1110.679
1110.663
1110.647
1110.631
1110.615
1110.599
1110.584
1110.568
1110.552
1110.536
1110.52
1110.504
1110.488
1110.472
1110.456
1110.44
1110.424
1110.408
1110.393
1110.377
1110.361
1110.345
1110.329
1110.313
1110.297
1110.281
1110.265
1110.249
1110.233
1110.217
1110.201
1110.185
1110.169
1110.153
1110.137
1110.121
1110.105
1110.09
1110.074
1110.058
1110.042
1110.026
1110.01
1109.994
1109.978
1109.962
1109.946
1109.93
1109.914
1109.898
1109.882
1109.866
1109.85
1109.834
1109.819
1109.803
1109.787
1109.771
1109.756
1109.74
1109.725
1109.71
1109.695
1109.681
1109.667
1109.655
1109.643
1109.634
1109.629
1068.563
1068.571
1068.578
1068.58
1068.577
1068.571
1068.562
1068.552
1068.541
1068.529
1068.516
1068.503
1068.49
1068.477
1068.463
1068.449
1068.435
1068.421
1068.407
1068.393
1068.379
1068.365
1068.351
1068.336
1068.322
1068.308
1068.294
1068.279
1068.265
1068.251
1068.236
1068.222
1068.208
1068.193
1068.179
1068.165
1068.15
1068.136
1068.121
1068.107
1068.093
1068.078
1068.064
1068.049
1068.035
1068.021
1068.006
1067.992
1067.978
1067.963
1067.949
1067.934
1067.92
1067.905
1067.891
1067.877
1067.862
1067.848
1067.833
1067.819
1067.805
1067.79
1067.776
1067.761
1067.747
1067.732
1067.718
1067.704
1067.689
1067.675
1067.66
1067.646
1067.631
1067.617
1067.603
1067.588
1067.574
1067.559
1067.545
1067.531
1067.516
1067.502
1067.487
1067.473
1067.459
1067.445
1067.431
1067.416
1067.402
1067.389
1067.375
1067.361
1067.348
1067.336
1067.323
1067.312
1067.302
1067.293
1067.286
1067.283
1026.071
1026.074
1026.077
1026.078
1026.075
1026.071
1026.064
1026.056
1026.046
1026.036
1026.025
1026.014
1026.003
1025.991
1025.979
1025.967
1025.955
1025.942
1025.93
1025.917
1025.905
1025.892
1025.88
1025.867
1025.854
1025.842
1025.829
1025.816
1025.803
1025.791
1025.778
1025.765
1025.752
1025.739
1025.727
1025.714
1025.701
1025.688
1025.675
1025.662
1025.65
1025.637
1025.624
1025.611
1025.598
1025.585
1025.573
1025.56
1025.547
1025.534
1025.521
1025.508
1025.495
1025.483
1025.47
1025.457
1025.444
1025.431
1025.418
1025.405
1025.392
1025.38
1025.367
1025.354
1025.341
1025.328
1025.315
1025.302
1025.289
1025.277
1025.264
1025.251
1025.238
1025.225
1025.212
1025.199
1025.186
1025.174
1025.161
1025.148
1025.135
1025.122
1025.11
1025.097
1025.084
1025.072
1025.059
1025.047
1025.034
1025.022
1025.01
1024.999
1024.987
1024.976
1024.966
1024.957
1024.948
1024.941
1024.936
1024.934
983.5758
983.577
983.578
983.5776
983.5755
983.5716
983.5662
983.5596
983.552
983.5436
983.5346
983.5252
983.5154
983.5053
983.4951
983.4846
983.474
983.4633
983.4524
983.4416
983.4306
983.4196
983.4086
983.3975
983.3864
983.3752
983.3641
983.3529
983.3417
983.3305
983.3193
983.3081
983.2968
983.2856
983.2743
983.2631
983.2518
983.2405
983.2293
983.218
983.2067
983.1955
983.1842
983.1729
983.1616
983.1503
983.139
983.1277
983.1164
983.1051
983.0938
983.0825
983.0712
983.0599
983.0486
983.0373
983.026
983.0147
983.0034
982.9921
982.9808
982.9694
982.9581
982.9468
982.9355
982.9242
982.9129
982.9016
982.8902
982.8789
982.8676
982.8563
982.845
982.8337
982.8224
982.8111
982.7999
982.7886
982.7774
982.7661
982.7549
982.7437
982.7326
982.7215
982.7104
982.6994
982.6885
982.6777
982.667
982.6565
982.6462
982.6362
982.6265
982.6174
982.6088
982.6011
982.5944
982.589
982.5852
982.5833
941.079
941.0794
941.0795
941.0787
941.0768
941.0737
941.0694
941.0641
941.058
941.0512
941.0439
941.0361
941.0279
941.0195
941.0109
941.002
940.993
940.9839
940.9747
940.9655
940.9561
940.9467
940.9373
940.9278
940.9182
940.9087
940.8991
940.8895
940.8799
940.8703
940.8606
940.851
940.8413
940.8317
940.822
940.8123
940.8026
940.7929
940.7832
940.7735
940.7638
940.7541
940.7444
940.7347
940.725
940.7153
940.7055
940.6958
940.6861
940.6764
940.6667
940.6569
940.6472
940.6375
940.6277
940.618
940.6083
940.5985
940.5888
940.5791
940.5693
940.5596
940.5499
940.5401
940.5304
940.5206
940.5109
940.5012
940.4914
940.4817
940.472
940.4623
940.4525
940.4428
940.4331
940.4234
940.4137
940.4041
940.3944
940.3848
940.3751
940.3656
940.356
940.3465
940.337
940.3276
940.3183
940.3092
940.3001
940.2912
940.2825
940.2742
940.2661
940.2585
940.2515
940.2453
940.2399
940.2356
940.2327
940.2312
898.5815
898.5815
898.5813
898.5805
898.5789
898.5765
898.5732
898.5691
898.5643
898.559
898.5531
898.5469
898.5404
898.5335
898.5265
898.5193
898.5119
898.5044
898.4968
898.4891
898.4814
898.4736
898.4657
898.4578
898.4499
898.4419
898.4339
898.4259
898.4179
898.4099
898.4018
898.3938
898.3857
898.3776
898.3695
898.3614
898.3533
898.3452
898.3371
898.329
898.3208
898.3127
898.3046
898.2965
898.2883
898.2802
898.2721
898.2639
898.2558
898.2476
898.2395
898.2314
898.2232
898.2151
898.2069
898.1988
898.1906
898.1825
898.1743
898.1662
898.158
898.1499
898.1417
898.1336
898.1254
898.1173
898.1091
898.101
898.0929
898.0847
898.0766
898.0684
898.0603
898.0522
898.0441
898.036
898.0279
898.0198
898.0117
898.0037
897.9957
897.9877
897.9797
897.9718
897.964
897.9562
897.9485
897.9409
897.9334
897.9261
897.919
897.9122
897.9057
897.8996
897.894
897.889
897.8848
897.8815
897.8792
897.8781
856.0835
856.0835
856.0832
856.0826
856.0814
856.0796
856.0772
856.0743
856.0708
856.0668
856.0624
856.0577
856.0527
856.0474
856.0419
856.0363
856.0305
856.0246
856.0186
856.0126
856.0064
856.0002
855.9939
855.9876
855.9813
855.9749
855.9685
855.9621
855.9557
855.9492
855.9428
855.9363
855.9298
855.9233
855.9168
855.9103
855.9038
855.8973
855.8908
855.8842
855.8777
855.8712
855.8646
855.8581
855.8516
855.845
855.8385
855.8319
855.8254
855.8188
855.8123
855.8057
855.7992
855.7926
855.7861
855.7795
855.773
855.7664
855.7598
855.7533
855.7467
855.7402
855.7336
855.7271
855.7205
855.714
855.7074
855.7009
855.6943
855.6878
855.6812
855.6747
855.6682
855.6616
855.6551
855.6486
855.6421
855.6357
855.6292
855.6228
855.6163
855.61
855.6036
855.5973
855.591
855.5849
855.5787
855.5727
855.5668
855.5611
855.5555
855.5502
855.5451
855.5404
855.5361
855.5323
855.529
855.5265
855.5248
855.5239
813.5851
813.5851
813.585
813.5847
813.584
813.5829
813.5815
813.5796
813.5773
813.5746
813.5716
813.5684
813.5648
813.5611
813.5572
813.5531
813.5489
813.5446
813.5402
813.5357
813.5311
813.5265
813.5219
813.5172
813.5124
813.5076
813.5028
813.498
813.4932
813.4883
813.4835
813.4786
813.4737
813.4688
813.4639
813.459
813.454
813.4491
813.4442
813.4393
813.4343
813.4294
813.4244
813.4195
813.4146
813.4096
813.4047
813.3997
813.3948
813.3898
813.3848
813.3799
813.3749
813.37
813.365
813.3601
813.3551
813.3501
813.3452
813.3402
813.3353
813.3303
813.3254
813.3204
813.3155
813.3105
813.3055
813.3006
813.2957
813.2907
813.2858
813.2808
813.2759
813.271
813.2661
813.2612
813.2563
813.2514
813.2466
813.2417
813.2369
813.2321
813.2274
813.2227
813.218
813.2134
813.2089
813.2044
813.2
813.1958
813.1917
813.1878
813.1842
813.1807
813.1776
813.1749
813.1726
813.1708
813.1695
813.1689
771.0863
771.0865
771.0866
771.0867
771.0865
771.0862
771.0857
771.0848
771.0837
771.0823
771.0807
771.0789
771.0768
771.0746
771.0722
771.0697
771.067
771.0643
771.0614
771.0585
771.0556
771.0525
771.0495
771.0463
771.0432
771.04
771.0368
771.0336
771.0303
771.0271
771.0238
771.0205
771.0172
771.0139
771.0106
771.0073
771.004
771.0006
770.9973
770.994
770.9906
770.9873
770.9839
770.9806
770.9772
770.9739
770.9705
770.9672
770.9638
770.9605
770.9571
770.9537
770.9504
770.947
770.9437
770.9403
770.937
770.9336
770.9302
770.9269
770.9235
770.9202
770.9168
770.9135
770.9101
770.9068
770.9034
770.9001
770.8967
770.8934
770.89
770.8867
770.8834
770.8801
770.8768
770.8735
770.8702
770.8669
770.8636
770.8604
770.8572
770.854
770.8508
770.8477
770.8446
770.8416
770.8386
770.8357
770.8329
770.8302
770.8275
770.8251
770.8227
770.8206
770.8186
770.8169
770.8154
770.8143
770.8135
770.813
728.5871
728.5874
728.5878
728.5883
728.5889
728.5893
728.5897
728.5899
728.59
728.5899
728.5896
728.5892
728.5885
728.5878
728.5869
728.5859
728.5848
728.5836
728.5823
728.581
728.5796
728.5782
728.5767
728.5751
728.5736
728.572
728.5704
728.5687
728.5671
728.5654
728.5637
728.562
728.5603
728.5586
728.5569
728.5552
728.5534
728.5517
728.55
728.5482
728.5465
728.5447
728.543
728.5412
728.5395
728.5377
728.536
728.5342
728.5324
728.5307
728.5289
728.5272
728.5254
728.5236
728.5219
728.5201
728.5184
728.5166
728.5148
728.5131
728.5113
728.5096
728.5078
728.5061
728.5043
728.5025
728.5008
728.4991
728.4973
728.4956
728.4938
728.4921
728.4904
728.4887
728.487
728.4853
728.4836
728.4819
728.4802
728.4786
728.477
728.4754
728.4738
728.4723
728.4708
728.4693
728.4679
728.4665
728.4652
728.4639
728.4627
728.4616
728.4606
728.4597
728.4589
728.4581
728.4575
728.457
728.4566
728.4563
686.0873
686.0878
686.0886
686.0896
686.0908
686.0921
686.0935
686.0948
686.096
686.0972
686.0983
686.0992
686.1
686.1007
686.1013
686.1018
686.1023
686.1026
686.1029
686.1031
686.1033
686.1034
686.1035
686.1035
686.1035
686.1035
686.1035
686.1035
686.1034
686.1033
686.1032
686.1031
686.103
686.1028
686.1027
686.1026
686.1024
686.1023
686.1021
686.102
686.1018
686.1017
686.1015
686.1013
686.1012
686.101
686.1009
686.1007
686.1005
686.1004
686.1002
686.1
686.0998
686.0997
686.0995
686.0993
686.0992
686.099
686.0988
686.0987
686.0985
686.0984
686.0982
686.098
686.0979
686.0977
686.0976
686.0974
686.0973
686.0971
686.097
686.0969
686.0967
686.0966
686.0965
686.0964
686.0963
686.0962
686.0962
686.0961
686.0961
686.0961
686.0961
686.0961
686.0962
686.0962
686.0964
686.0965
686.0967
686.0969
686.0972
686.0974
686.0977
686.098
686.0983
686.0985
686.0987
686.0988
686.0988
686.0987
643.5867
643.5874
643.5886
643.5903
643.5923
643.5945
643.5969
643.5993
643.6018
643.6042
643.6066
643.6089
643.6111
643.6133
643.6154
643.6174
643.6193
643.6212
643.623
643.6248
643.6265
643.6282
643.6298
643.6315
643.633
643.6346
643.6361
643.6377
643.6392
643.6406
643.6421
643.6436
643.6451
643.6465
643.648
643.6494
643.6508
643.6523
643.6537
643.6551
643.6566
643.658
643.6594
643.6608
643.6623
643.6637
643.6651
643.6665
643.6679
643.6693
643.6708
643.6722
643.6736
643.675
643.6764
643.6779
643.6793
643.6807
643.6821
643.6835
643.685
643.6864
643.6878
643.6893
643.6907
643.6921
643.6936
643.695
643.6964
643.6979
643.6993
643.7008
643.7022
643.7037
643.7052
643.7067
643.7082
643.7097
643.7112
643.7127
643.7143
643.7158
643.7174
643.719
643.7206
643.7222
643.7239
643.7256
643.7272
643.7289
643.7306
643.7322
643.7338
643.7354
643.7368
643.738
643.739
643.7398
643.7402
643.7403
601.0851
601.0861
601.0878
601.0902
601.0931
601.0963
601.0998
601.1034
601.1071
601.1108
601.1145
601.1182
601.1219
601.1255
601.1291
601.1326
601.136
601.1394
601.1427
601.146
601.1493
601.1525
601.1557
601.1589
601.162
601.1651
601.1682
601.1713
601.1744
601.1774
601.1805
601.1835
601.1865
601.1895
601.1926
601.1956
601.1986
601.2016
601.2046
601.2076
601.2106
601.2136
601.2166
601.2196
601.2226
601.2256
601.2286
601.2316
601.2346
601.2376
601.2405
601.2435
601.2465
601.2495
601.2525
601.2555
601.2585
601.2615
601.2645
601.2675
601.2705
601.2735
601.2765
601.2795
601.2825
601.2856
601.2886
601.2916
601.2946
601.2976
601.3007
601.3037
601.3067
601.3098
601.3128
601.3159
601.319
601.322
601.3251
601.3282
601.3313
601.3345
601.3376
601.3407
601.3439
601.3471
601.3502
601.3534
601.3566
601.3597
601.3628
601.3659
601.3688
601.3716
601.3742
601.3765
601.3784
601.3799
601.3808
601.381
558.5822
558.5836
558.586
558.5892
558.5931
558.5974
558.6021
558.607
558.6119
558.617
558.6221
558.6272
558.6322
558.6373
558.6423
558.6473
558.6522
558.6571
558.6619
558.6667
558.6715
558.6763
558.681
558.6857
558.6904
558.695
558.6997
558.7043
558.7089
558.7135
558.7181
558.7227
558.7273
558.7319
558.7364
558.741
558.7456
558.7501
558.7547
558.7593
558.7638
558.7684
558.7729
558.7775
558.7821
558.7866
558.7912
558.7957
558.8003
558.8048
558.8094
558.814
558.8185
558.8231
558.8276
558.8322
558.8368
558.8413
558.8459
558.8504
558.855
558.8596
558.8641
558.8687
558.8733
558.8779
558.8825
558.887
558.8916
558.8962
558.9008
558.9054
558.91
558.9146
558.9192
558.9238
558.9285
558.9331
558.9378
558.9424
558.9471
558.9517
558.9564
558.9611
558.9658
558.9705
558.9752
558.9799
558.9846
558.9892
558.9937
558.9982
559.0025
559.0066
559.0104
559.0138
559.0167
559.019
559.0204
559.0209
516.0778
516.0796
516.0829
516.0872
516.0923
516.0979
516.1038
516.11
516.1163
516.1227
516.1292
516.1357
516.1421
516.1486
516.1551
516.1615
516.1679
516.1743
516.1806
516.1869
516.1932
516.1994
516.2057
516.2119
516.2181
516.2243
516.2305
516.2366
516.2428
516.2489
516.255
516.2612
516.2673
516.2734
516.2795
516.2856
516.2917
516.2978
516.304
516.3101
516.3162
516.3223
516.3284
516.3345
516.3406
516.3467
516.3528
516.3589
516.365
516.3711
516.3772
516.3833
516.3894
516.3955
516.4016
516.4077
516.4138
516.4199
516.4261
516.4322
516.4383
516.4444
516.4505
516.4566
516.4628
516.4689
516.475
516.4811
516.4873
516.4934
516.4996
516.5057
516.5119
516.518
516.5242
516.5303
516.5365
516.5427
516.5489
516.5551
516.5613
516.5675
516.5737
516.5799
516.5861
516.5924
516.5986
516.6048
516.6109
516.617
516.623
516.6289
516.6347
516.6401
516.6453
516.6499
516.6539
516.6571
516.6592
516.6601
473.5711
473.5738
473.5784
473.5841
473.5906
473.5976
473.6049
473.6124
473.6201
473.6279
473.6358
473.6437
473.6516
473.6595
473.6673
473.6752
473.6831
473.6909
473.6987
473.7065
473.7142
473.722
473.7297
473.7374
473.7451
473.7528
473.7605
473.7682
473.7758
473.7835
473.7911
473.7988
473.8064
473.8141
473.8217
473.8293
473.837
473.8446
473.8522
473.8599
473.8675
473.8751
473.8827
473.8904
473.898
473.9056
473.9133
473.9209
473.9285
473.9362
473.9438
473.9514
473.9591
473.9667
473.9743
473.982
473.9896
473.9972
474.0049
474.0125
474.0202
474.0278
474.0355
474.0431
474.0508
474.0584
474.0661
474.0738
474.0814
474.0891
474.0968
474.1044
474.1121
474.1198
474.1275
474.1352
474.1429
474.1506
474.1583
474.166
474.1737
474.1815
474.1892
474.1969
474.2046
474.2124
474.2201
474.2278
474.2354
474.243
474.2505
474.2579
474.2651
474.272
474.2786
474.2847
474.29
474.2943
474.2973
474.2986
431.0616
431.0658
431.0724
431.0799
431.088
431.0965
431.1053
431.1143
431.1234
431.1326
431.1419
431.1512
431.1605
431.1698
431.1791
431.1884
431.1977
431.2069
431.2162
431.2254
431.2347
431.2439
431.2531
431.2623
431.2714
431.2806
431.2898
431.2989
431.3081
431.3172
431.3264
431.3355
431.3447
431.3538
431.3629
431.3721
431.3812
431.3903
431.3995
431.4086
431.4177
431.4268
431.436
431.4451
431.4542
431.4634
431.4725
431.4817
431.4908
431.4999
431.5091
431.5182
431.5274
431.5365
431.5456
431.5548
431.5639
431.5731
431.5822
431.5914
431.6005
431.6097
431.6189
431.628
431.6372
431.6463
431.6555
431.6647
431.6739
431.683
431.6922
431.7014
431.7106
431.7198
431.729
431.7382
431.7474
431.7566
431.7658
431.775
431.7842
431.7934
431.8027
431.8119
431.8211
431.8303
431.8395
431.8487
431.8579
431.867
431.876
431.8849
431.8936
431.9021
431.9102
431.9178
431.9247
431.9305
431.9348
431.9368
388.5475
388.5552
388.565
388.5748
388.5847
388.5948
388.6052
388.6156
388.6262
388.6368
388.6474
388.6581
388.6688
388.6795
388.6902
388.701
388.7117
388.7223
388.733
388.7437
388.7544
388.765
388.7757
388.7863
388.7969
388.8076
388.8182
388.8288
388.8394
388.85
388.8606
388.8713
388.8819
388.8925
388.9031
388.9137
388.9243
388.9349
388.9455
388.9561
388.9667
388.9774
388.988
388.9986
389.0092
389.0198
389.0304
389.041
389.0517
389.0623
389.0729
389.0835
389.0942
389.1048
389.1154
389.126
389.1367
389.1473
389.1579
389.1686
389.1792
389.1899
389.2005
389.2111
389.2218
389.2324
389.2431
389.2537
389.2644
389.2751
389.2857
389.2964
389.307
389.3177
389.3284
389.3391
389.3497
389.3604
389.3711
389.3818
389.3925
389.4032
389.4139
389.4246
389.4353
389.446
389.4567
389.4673
389.478
389.4886
389.4991
389.5096
389.5199
389.53
389.5398
389.5492
389.558
389.5657
389.5718
389.5752
346.0255
346.042
346.0573
346.0692
346.0807
346.0926
346.1045
346.1164
346.1284
346.1404
346.1525
346.1646
346.1766
346.1887
346.2008
346.2129
346.225
346.2371
346.2492
346.2612
346.2733
346.2854
346.2974
346.3095
346.3216
346.3336
346.3457
346.3577
346.3698
346.3818
346.3939
346.4059
346.418
346.4301
346.4421
346.4542
346.4662
346.4783
346.4903
346.5024
346.5145
346.5265
346.5386
346.5507
346.5627
346.5748
346.5869
346.5989
346.611
346.6231
346.6352
346.6473
346.6593
346.6714
346.6835
346.6956
346.7077
346.7198
346.7319
346.7439
346.756
346.7681
346.7802
346.7923
346.8044
346.8165
346.8287
346.8408
346.8529
346.865
346.8771
346.8892
346.9013
346.9135
346.9256
346.9377
346.9498
346.962
346.9741
346.9863
346.9984
347.0105
347.0227
347.0348
347.047
347.0591
347.0713
347.0834
347.0955
347.1076
347.1197
347.1317
347.1436
347.1554
347.1671
347.1785
347.1895
347.1998
347.2087
347.2149
)
;

boundaryField
{
    leftLet
    {
        type            zeroGradient;
    }
    rightLet
    {
        type            zeroGradient;
    }
    frontAndBack
    {
        type            empty;
    }
    wall_to_bottomAir
    {
        type            compressible::turbulentTemperatureCoupledBaffleMixed;
        refValue        nonuniform List<scalar> 
100
(
1199.43
1199.647
1199.705
1199.667
1199.64
1199.623
1199.605
1199.586
1199.567
1199.548
1199.529
1199.51
1199.491
1199.472
1199.453
1199.434
1199.416
1199.397
1199.378
1199.359
1199.34
1199.321
1199.302
1199.283
1199.264
1199.245
1199.226
1199.207
1199.188
1199.169
1199.15
1199.131
1199.112
1199.093
1199.074
1199.055
1199.036
1199.017
1198.998
1198.979
1198.96
1198.941
1198.922
1198.903
1198.884
1198.865
1198.846
1198.827
1198.808
1198.789
1198.77
1198.751
1198.732
1198.713
1198.694
1198.675
1198.656
1198.636
1198.617
1198.598
1198.579
1198.56
1198.541
1198.522
1198.503
1198.484
1198.465
1198.446
1198.427
1198.408
1198.389
1198.369
1198.35
1198.331
1198.312
1198.293
1198.274
1198.255
1198.236
1198.217
1198.198
1198.178
1198.159
1198.14
1198.121
1198.102
1198.083
1198.064
1198.045
1198.025
1198.006
1197.987
1197.968
1197.949
1197.93
1197.91
1197.891
1197.872
1197.853
1197.834
)
;
        refGradient     uniform 0;
        valueFraction   nonuniform List<scalar> 
100
(
0.4615385
0.4615385
0.4615385
0.4615385
0.4615385
0.4615385
0.4615385
0.4615385
0.4615385
0.4615385
0.4615385
0.4615385
0.4615385
0.4615385
0.4615385
0.4615385
0.4615385
0.4615385
0.4615385
0.4615385
0.4615385
0.4615385
0.4615385
0.4615385
0.4615385
0.4615385
0.4615385
0.4615385
0.4615385
0.4615385
0.4615385
0.4615385
0.4615385
0.4615385
0.4615385
0.4615385
0.4615385
0.4615385
0.4615385
0.4615385
0.4615385
0.4615385
0.4615385
0.4615385
0.4615385
0.4615385
0.4615385
0.4615385
0.4615385
0.4615385
0.4615385
0.4615385
0.4615385
0.4615385
0.4615385
0.4615385
0.4615385
0.4615385
0.4615385
0.4615385
0.4615385
0.4615385
0.4615385
0.4615385
0.4615385
0.4615385
0.4615385
0.4615385
0.4615385
0.4615385
0.4615385
0.4615385
0.4615385
0.4615385
0.4615385
0.4615385
0.4615385
0.4615385
0.4615385
0.4615385
0.4615385
0.4615385
0.4615385
0.4615385
0.4615385
0.4615385
0.4615385
0.4615385
0.4615385
0.4615385
0.4615385
0.4615385
0.4615385
0.4615385
0.4615385
0.4615385
0.4615385
0.4615385
0.4615385
0.4615385
)
;
        value           nonuniform List<scalar> 
100
(
1174.701
1174.837
1174.881
1174.862
1174.844
1174.829
1174.813
1174.796
1174.778
1174.761
1174.743
1174.725
1174.707
1174.69
1174.672
1174.654
1174.636
1174.618
1174.6
1174.582
1174.563
1174.545
1174.527
1174.509
1174.491
1174.473
1174.455
1174.437
1174.419
1174.401
1174.382
1174.364
1174.346
1174.328
1174.31
1174.292
1174.274
1174.256
1174.237
1174.219
1174.201
1174.183
1174.165
1174.147
1174.128
1174.11
1174.092
1174.074
1174.056
1174.038
1174.019
1174.001
1173.983
1173.965
1173.947
1173.929
1173.91
1173.892
1173.874
1173.856
1173.838
1173.819
1173.801
1173.783
1173.765
1173.747
1173.728
1173.71
1173.692
1173.674
1173.656
1173.637
1173.619
1173.601
1173.583
1173.564
1173.546
1173.528
1173.51
1173.491
1173.473
1173.455
1173.437
1173.419
1173.4
1173.382
1173.364
1173.346
1173.328
1173.309
1173.291
1173.273
1173.255
1173.237
1173.22
1173.202
1173.185
1173.168
1173.152
1173.138
)
;
        Tnbr            T;
        thicknessLayers 0();
        kappaLayers     0();
        kappa           solidThermo;
        kappaName       none;
    }
    wall_to_topAir
    {
        type            compressible::turbulentTemperatureCoupledBaffleMixed;
        refValue        nonuniform List<scalar> 
100
(
299.9419
299.9869
300.0105
300.0215
300.034
300.0478
300.0615
300.075
300.0885
300.102
300.1156
300.1291
300.1427
300.1562
300.1698
300.1833
300.1969
300.2104
300.224
300.2375
300.2511
300.2646
300.2782
300.2917
300.3053
300.3189
300.3324
300.346
300.3596
300.3732
300.3867
300.4003
300.4139
300.4275
300.4411
300.4546
300.4682
300.4818
300.4954
300.509
300.5226
300.5362
300.5498
300.5634
300.577
300.5906
300.6042
300.6178
300.6314
300.645
300.6586
300.6722
300.6859
300.6995
300.7131
300.7267
300.7403
300.754
300.7676
300.7812
300.7949
300.8085
300.8221
300.8358
300.8494
300.863
300.8767
300.8903
300.904
300.9176
300.9313
300.9449
300.9586
300.9722
300.9859
300.9995
301.0132
301.0269
301.0405
301.0542
301.0679
301.0815
301.0952
301.1089
301.1226
301.1362
301.1499
301.1636
301.1773
301.191
301.2046
301.2183
301.232
301.2457
301.2594
301.2731
301.2868
301.3005
301.3141
301.3278
)
;
        refGradient     uniform 0;
        valueFraction   nonuniform List<scalar> 
100
(
0.4615385
0.4615385
0.4615385
0.4615385
0.4615385
0.4615385
0.4615385
0.4615385
0.4615385
0.4615385
0.4615385
0.4615385
0.4615385
0.4615385
0.4615385
0.4615385
0.4615385
0.4615385
0.4615385
0.4615385
0.4615385
0.4615385
0.4615385
0.4615385
0.4615385
0.4615385
0.4615385
0.4615385
0.4615385
0.4615385
0.4615385
0.4615385
0.4615385
0.4615385
0.4615385
0.4615385
0.4615385
0.4615385
0.4615385
0.4615385
0.4615385
0.4615385
0.4615385
0.4615385
0.4615385
0.4615385
0.4615385
0.4615385
0.4615385
0.4615385
0.4615385
0.4615385
0.4615385
0.4615385
0.4615385
0.4615385
0.4615385
0.4615385
0.4615385
0.4615385
0.4615385
0.4615385
0.4615385
0.4615385
0.4615385
0.4615385
0.4615385
0.4615385
0.4615385
0.4615385
0.4615385
0.4615385
0.4615385
0.4615385
0.4615385
0.4615385
0.4615385
0.4615385
0.4615385
0.4615385
0.4615385
0.4615385
0.4615385
0.4615385
0.4615385
0.4615385
0.4615385
0.4615385
0.4615385
0.4615385
0.4615385
0.4615385
0.4615385
0.4615385
0.4615385
0.4615385
0.4615385
0.4615385
0.4615385
0.4615385
)
;
        value           nonuniform List<scalar> 
100
(
324.7562
324.7858
324.8049
324.8164
324.8284
324.8412
324.8539
324.8665
324.8792
324.8919
324.9047
324.9174
324.9302
324.943
324.9557
324.9685
324.9812
324.994
325.0068
325.0195
325.0323
325.045
325.0578
325.0705
325.0833
325.096
325.1088
325.1216
325.1343
325.1471
325.1598
325.1726
325.1853
325.1981
325.2109
325.2236
325.2364
325.2491
325.2619
325.2747
325.2874
325.3002
325.313
325.3258
325.3385
325.3513
325.3641
325.3769
325.3897
325.4024
325.4152
325.428
325.4408
325.4536
325.4664
325.4792
325.492
325.5048
325.5176
325.5304
325.5432
325.556
325.5688
325.5816
325.5944
325.6072
325.62
325.6329
325.6457
325.6585
325.6713
325.6842
325.697
325.7098
325.7226
325.7355
325.7483
325.7612
325.774
325.7868
325.7997
325.8125
325.8254
325.8382
325.8511
325.8639
325.8768
325.8896
325.9025
325.9153
325.9281
325.9409
325.9536
325.9663
325.9789
325.9914
326.0036
326.0155
326.0266
326.0362
)
;
        Tnbr            T;
        thicknessLayers 0();
        kappaLayers     0();
        kappa           solidThermo;
        kappaName       none;
    }
}


// ************************************************************************* //
