/*--------------------------------*- C++ -*----------------------------------*\
| =========                 |                                                 |
| \\      /  F ield         | OpenFOAM: The Open Source CFD Toolbox           |
|  \\    /   O peration     | Version:  2.3.0                                 |
|   \\  /    A nd           | Web:      www.OpenFOAM.org                      |
|    \\/     M anipulation  |                                                 |
\*---------------------------------------------------------------------------*/
FoamFile
{
    version     2.0;
    format      ascii;
    class       volScalarField;
    location    "10000/wall";
    object      T;
}
// * * * * * * * * * * * * * * * * * * * * * * * * * * * * * * * * * * * * * //

dimensions      [0 0 0 1 0 0 0];

internalField   nonuniform List<scalar> 
2000
(
1153.499
1153.566
1153.6
1153.598
1153.586
1153.574
1153.56
1153.544
1153.528
1153.512
1153.496
1153.479
1153.462
1153.445
1153.428
1153.411
1153.394
1153.377
1153.36
1153.343
1153.326
1153.308
1153.291
1153.274
1153.257
1153.24
1153.222
1153.205
1153.188
1153.171
1153.153
1153.136
1153.119
1153.102
1153.084
1153.067
1153.05
1153.033
1153.015
1152.998
1152.981
1152.964
1152.946
1152.929
1152.912
1152.894
1152.877
1152.86
1152.843
1152.825
1152.808
1152.791
1152.773
1152.756
1152.739
1152.721
1152.704
1152.687
1152.669
1152.652
1152.635
1152.617
1152.6
1152.583
1152.565
1152.548
1152.531
1152.513
1152.496
1152.479
1152.461
1152.444
1152.427
1152.409
1152.392
1152.375
1152.357
1152.34
1152.323
1152.305
1152.288
1152.271
1152.253
1152.236
1152.219
1152.201
1152.184
1152.167
1152.15
1152.132
1152.115
1152.098
1152.082
1152.065
1152.048
1152.032
1152.017
1152.002
1151.989
1151.98
1111.041
1111.064
1111.081
1111.084
1111.079
1111.07
1111.059
1111.047
1111.033
1111.019
1111.005
1110.99
1110.975
1110.96
1110.945
1110.929
1110.914
1110.899
1110.883
1110.867
1110.852
1110.836
1110.82
1110.805
1110.789
1110.773
1110.758
1110.742
1110.726
1110.711
1110.695
1110.679
1110.663
1110.647
1110.632
1110.616
1110.6
1110.584
1110.569
1110.553
1110.537
1110.521
1110.505
1110.49
1110.474
1110.458
1110.442
1110.426
1110.411
1110.395
1110.379
1110.363
1110.347
1110.332
1110.316
1110.3
1110.284
1110.268
1110.252
1110.237
1110.221
1110.205
1110.189
1110.173
1110.157
1110.142
1110.126
1110.11
1110.094
1110.078
1110.062
1110.047
1110.031
1110.015
1109.999
1109.983
1109.967
1109.951
1109.936
1109.92
1109.904
1109.888
1109.872
1109.857
1109.841
1109.825
1109.81
1109.794
1109.778
1109.763
1109.748
1109.732
1109.718
1109.703
1109.689
1109.675
1109.662
1109.651
1109.642
1109.637
1068.559
1068.567
1068.575
1068.577
1068.574
1068.568
1068.56
1068.549
1068.538
1068.526
1068.514
1068.501
1068.488
1068.475
1068.461
1068.447
1068.434
1068.42
1068.406
1068.392
1068.378
1068.364
1068.35
1068.335
1068.321
1068.307
1068.293
1068.279
1068.265
1068.25
1068.236
1068.222
1068.208
1068.193
1068.179
1068.165
1068.151
1068.136
1068.122
1068.108
1068.093
1068.079
1068.065
1068.051
1068.036
1068.022
1068.008
1067.993
1067.979
1067.965
1067.951
1067.936
1067.922
1067.908
1067.893
1067.879
1067.865
1067.85
1067.836
1067.822
1067.807
1067.793
1067.779
1067.764
1067.75
1067.736
1067.722
1067.707
1067.693
1067.679
1067.664
1067.65
1067.636
1067.621
1067.607
1067.593
1067.578
1067.564
1067.55
1067.535
1067.521
1067.507
1067.493
1067.478
1067.464
1067.45
1067.436
1067.422
1067.408
1067.395
1067.381
1067.368
1067.355
1067.342
1067.33
1067.318
1067.308
1067.3
1067.293
1067.29
1026.067
1026.071
1026.074
1026.075
1026.072
1026.068
1026.061
1026.053
1026.044
1026.034
1026.023
1026.012
1026.001
1025.989
1025.977
1025.965
1025.953
1025.941
1025.928
1025.916
1025.904
1025.891
1025.878
1025.866
1025.853
1025.841
1025.828
1025.815
1025.803
1025.79
1025.777
1025.765
1025.752
1025.739
1025.726
1025.714
1025.701
1025.688
1025.676
1025.663
1025.65
1025.637
1025.625
1025.612
1025.599
1025.586
1025.574
1025.561
1025.548
1025.535
1025.522
1025.51
1025.497
1025.484
1025.471
1025.459
1025.446
1025.433
1025.42
1025.407
1025.395
1025.382
1025.369
1025.356
1025.343
1025.331
1025.318
1025.305
1025.292
1025.28
1025.267
1025.254
1025.241
1025.228
1025.216
1025.203
1025.19
1025.177
1025.165
1025.152
1025.139
1025.126
1025.114
1025.101
1025.089
1025.076
1025.064
1025.051
1025.039
1025.027
1025.015
1025.003
1024.992
1024.981
1024.971
1024.962
1024.954
1024.947
1024.942
1024.939
983.5725
983.5738
983.5748
983.5746
983.5726
983.5688
983.5635
983.557
983.5495
983.5412
983.5323
983.523
983.5133
983.5033
983.4931
983.4827
983.4722
983.4615
983.4508
983.44
983.4291
983.4182
983.4072
983.3962
983.3852
983.3741
983.363
983.3519
983.3408
983.3297
983.3185
983.3074
983.2962
983.285
983.2739
983.2627
983.2515
983.2403
983.2291
983.2179
983.2067
983.1955
983.1843
983.1731
983.1619
983.1507
983.1394
983.1282
983.117
983.1058
983.0945
983.0833
983.0721
983.0609
983.0496
983.0384
983.0272
983.0159
983.0047
982.9934
982.9822
982.971
982.9597
982.9485
982.9372
982.926
982.9148
982.9035
982.8923
982.881
982.8698
982.8586
982.8473
982.8361
982.8249
982.8137
982.8025
982.7913
982.7801
982.769
982.7578
982.7467
982.7356
982.7246
982.7136
982.7027
982.6918
982.6811
982.6705
982.6601
982.6498
982.6399
982.6303
982.6212
982.6127
982.605
982.5984
982.593
982.5892
982.5874
941.076
941.0764
941.0765
941.0759
941.0741
941.071
941.0668
941.0616
941.0556
941.0489
941.0416
941.0339
941.0258
941.0174
941.0089
941.0001
940.9912
940.9821
940.973
940.9638
940.9545
940.9451
940.9357
940.9263
940.9168
940.9073
940.8978
940.8883
940.8787
940.8692
940.8596
940.85
940.8404
940.8308
940.8212
940.8115
940.8019
940.7923
940.7826
940.773
940.7634
940.7537
940.7441
940.7344
940.7247
940.7151
940.7054
940.6958
940.6861
940.6764
940.6668
940.6571
940.6474
940.6377
940.6281
940.6184
940.6087
940.599
940.5894
940.5797
940.57
940.5603
940.5507
940.541
940.5313
940.5216
940.5119
940.5023
940.4926
940.4829
940.4732
940.4636
940.4539
940.4443
940.4346
940.425
940.4153
940.4057
940.3961
940.3865
940.377
940.3674
940.358
940.3485
940.3391
940.3298
940.3205
940.3114
940.3024
940.2936
940.2849
940.2766
940.2686
940.2611
940.2541
940.2479
940.2426
940.2383
940.2354
940.234
898.5786
898.5787
898.5785
898.5777
898.5762
898.5738
898.5706
898.5666
898.5619
898.5566
898.5508
898.5447
898.5382
898.5314
898.5244
898.5172
898.5099
898.5025
898.4949
898.4873
898.4796
898.4718
898.464
898.4562
898.4483
898.4404
898.4324
898.4245
898.4165
898.4085
898.4005
898.3924
898.3844
898.3764
898.3683
898.3603
898.3522
898.3441
898.3361
898.328
898.3199
898.3118
898.3037
898.2957
898.2876
898.2795
898.2714
898.2633
898.2552
898.2471
898.239
898.2309
898.2228
898.2147
898.2066
898.1985
898.1904
898.1823
898.1741
898.166
898.1579
898.1498
898.1417
898.1336
898.1255
898.1174
898.1093
898.1012
898.0931
898.085
898.0769
898.0688
898.0607
898.0526
898.0446
898.0365
898.0285
898.0204
898.0124
898.0044
897.9964
897.9885
897.9806
897.9727
897.9649
897.9572
897.9495
897.9419
897.9345
897.9273
897.9202
897.9134
897.9069
897.9009
897.8953
897.8903
897.8861
897.8828
897.8806
897.8794
856.0807
856.0807
856.0805
856.0799
856.0788
856.0771
856.0747
856.0718
856.0684
856.0644
856.0601
856.0554
856.0504
856.0452
856.0398
856.0342
856.0284
856.0226
856.0166
856.0106
856.0044
855.9983
855.992
855.9858
855.9795
855.9731
855.9668
855.9604
855.954
855.9475
855.9411
855.9347
855.9282
855.9217
855.9153
855.9088
855.9023
855.8958
855.8893
855.8828
855.8763
855.8698
855.8633
855.8568
855.8502
855.8437
855.8372
855.8307
855.8242
855.8176
855.8111
855.8046
855.7981
855.7915
855.785
855.7785
855.772
855.7654
855.7589
855.7524
855.7458
855.7393
855.7328
855.7262
855.7197
855.7132
855.7067
855.7001
855.6936
855.6871
855.6806
855.6741
855.6676
855.6611
855.6546
855.6481
855.6417
855.6352
855.6288
855.6224
855.616
855.6096
855.6033
855.597
855.5908
855.5846
855.5785
855.5725
855.5667
855.5609
855.5554
855.5501
855.545
855.5403
855.536
855.5322
855.529
855.5265
855.5248
855.5239
813.5825
813.5825
813.5824
813.5821
813.5815
813.5804
813.579
813.5771
813.5749
813.5723
813.5693
813.5661
813.5626
813.5588
813.5549
813.5509
813.5467
813.5424
813.538
813.5335
813.529
813.5244
813.5198
813.5151
813.5103
813.5056
813.5008
813.496
813.4911
813.4863
813.4814
813.4766
813.4717
813.4668
813.4619
813.457
813.4521
813.4472
813.4423
813.4373
813.4324
813.4275
813.4226
813.4176
813.4127
813.4077
813.4028
813.3979
813.3929
813.388
813.383
813.3781
813.3731
813.3682
813.3633
813.3583
813.3534
813.3484
813.3435
813.3385
813.3336
813.3286
813.3237
813.3187
813.3138
813.3088
813.3039
813.299
813.294
813.2891
813.2842
813.2792
813.2743
813.2694
813.2645
813.2596
813.2548
813.2499
813.245
813.2402
813.2354
813.2306
813.2259
813.2212
813.2165
813.2119
813.2074
813.203
813.1986
813.1944
813.1903
813.1864
813.1828
813.1794
813.1763
813.1735
813.1712
813.1694
813.1682
813.1675
771.0838
771.084
771.0841
771.0842
771.0841
771.0838
771.0832
771.0824
771.0813
771.08
771.0784
771.0765
771.0745
771.0722
771.0699
771.0673
771.0647
771.062
771.0591
771.0562
771.0532
771.0502
771.0471
771.044
771.0409
771.0377
771.0345
771.0312
771.028
771.0247
771.0214
771.0182
771.0148
771.0115
771.0082
771.0049
771.0016
770.9982
770.9949
770.9915
770.9882
770.9848
770.9815
770.9781
770.9748
770.9714
770.9681
770.9647
770.9614
770.958
770.9546
770.9513
770.9479
770.9445
770.9412
770.9378
770.9344
770.9311
770.9277
770.9243
770.921
770.9176
770.9143
770.9109
770.9075
770.9042
770.9008
770.8975
770.8941
770.8908
770.8874
770.8841
770.8808
770.8775
770.8741
770.8708
770.8675
770.8643
770.861
770.8578
770.8545
770.8513
770.8482
770.845
770.842
770.8389
770.8359
770.833
770.8302
770.8275
770.8248
770.8223
770.82
770.8178
770.8159
770.8142
770.8127
770.8116
770.8107
770.8102
728.5847
728.585
728.5854
728.5859
728.5865
728.587
728.5873
728.5876
728.5876
728.5875
728.5872
728.5868
728.5861
728.5854
728.5845
728.5835
728.5824
728.5812
728.5799
728.5785
728.5771
728.5756
728.5741
728.5726
728.571
728.5694
728.5677
728.5661
728.5644
728.5627
728.561
728.5593
728.5576
728.5558
728.5541
728.5524
728.5506
728.5488
728.5471
728.5453
728.5435
728.5418
728.54
728.5382
728.5365
728.5347
728.5329
728.5311
728.5293
728.5276
728.5258
728.524
728.5222
728.5204
728.5186
728.5169
728.5151
728.5133
728.5115
728.5097
728.5079
728.5062
728.5044
728.5026
728.5008
728.4991
728.4973
728.4955
728.4938
728.492
728.4902
728.4885
728.4867
728.485
728.4833
728.4816
728.4799
728.4782
728.4765
728.4748
728.4732
728.4715
728.47
728.4684
728.4669
728.4654
728.4639
728.4625
728.4612
728.4599
728.4587
728.4576
728.4565
728.4556
728.4548
728.454
728.4534
728.4528
728.4524
728.4521
686.0849
686.0854
686.0862
686.0873
686.0885
686.0898
686.0911
686.0924
686.0937
686.0948
686.0958
686.0967
686.0975
686.0982
686.0988
686.0993
686.0997
686.1
686.1003
686.1004
686.1006
686.1007
686.1007
686.1007
686.1007
686.1006
686.1006
686.1005
686.1004
686.1003
686.1001
686.1
686.0998
686.0997
686.0995
686.0993
686.0991
686.0989
686.0988
686.0986
686.0984
686.0982
686.098
686.0978
686.0976
686.0974
686.0972
686.097
686.0968
686.0966
686.0963
686.0961
686.0959
686.0957
686.0955
686.0953
686.0951
686.0949
686.0947
686.0945
686.0943
686.0941
686.0939
686.0937
686.0935
686.0933
686.0931
686.0929
686.0927
686.0926
686.0924
686.0922
686.0921
686.0919
686.0917
686.0916
686.0915
686.0914
686.0912
686.0912
686.0911
686.091
686.091
686.091
686.091
686.0911
686.0911
686.0912
686.0914
686.0916
686.0918
686.092
686.0923
686.0925
686.0928
686.093
686.0932
686.0933
686.0933
686.0931
643.5844
643.5851
643.5863
643.588
643.59
643.5922
643.5945
643.5969
643.5994
643.6018
643.6041
643.6064
643.6086
643.6107
643.6128
643.6147
643.6166
643.6184
643.6202
643.6219
643.6236
643.6252
643.6268
643.6284
643.6299
643.6314
643.6329
643.6344
643.6358
643.6373
643.6387
643.6401
643.6415
643.6429
643.6443
643.6457
643.6471
643.6485
643.6498
643.6512
643.6526
643.654
643.6553
643.6567
643.6581
643.6594
643.6608
643.6621
643.6635
643.6649
643.6662
643.6676
643.669
643.6703
643.6717
643.6731
643.6744
643.6758
643.6772
643.6785
643.6799
643.6813
643.6826
643.684
643.6854
643.6868
643.6881
643.6895
643.6909
643.6923
643.6937
643.6951
643.6965
643.6979
643.6993
643.7008
643.7022
643.7037
643.7051
643.7066
643.7081
643.7096
643.7111
643.7126
643.7142
643.7158
643.7174
643.719
643.7206
643.7222
643.7239
643.7255
643.727
643.7285
643.7299
643.7311
643.7321
643.7328
643.7332
643.7333
601.0829
601.0838
601.0856
601.0879
601.0908
601.094
601.0974
601.101
601.1047
601.1084
601.112
601.1157
601.1193
601.1228
601.1263
601.1297
601.1331
601.1365
601.1397
601.143
601.1461
601.1493
601.1524
601.1555
601.1586
601.1616
601.1647
601.1677
601.1707
601.1737
601.1766
601.1796
601.1826
601.1855
601.1885
601.1914
601.1944
601.1973
601.2002
601.2031
601.2061
601.209
601.2119
601.2149
601.2178
601.2207
601.2236
601.2265
601.2295
601.2324
601.2353
601.2382
601.2412
601.2441
601.247
601.2499
601.2529
601.2558
601.2587
601.2616
601.2646
601.2675
601.2704
601.2734
601.2763
601.2793
601.2822
601.2851
601.2881
601.291
601.294
601.297
601.2999
601.3029
601.3059
601.3089
601.3119
601.3149
601.3179
601.3209
601.324
601.327
601.3301
601.3332
601.3362
601.3393
601.3424
601.3456
601.3487
601.3517
601.3548
601.3577
601.3606
601.3633
601.3659
601.3681
601.37
601.3714
601.3723
601.3726
558.5801
558.5814
558.5838
558.587
558.5909
558.5952
558.5998
558.6046
558.6095
558.6145
558.6195
558.6245
558.6295
558.6345
558.6394
558.6443
558.6492
558.654
558.6587
558.6635
558.6682
558.6728
558.6775
558.6821
558.6867
558.6913
558.6958
558.7004
558.7049
558.7094
558.7139
558.7184
558.7229
558.7274
558.7319
558.7364
558.7409
558.7453
558.7498
558.7543
558.7588
558.7632
558.7677
558.7722
558.7766
558.7811
558.7856
558.79
558.7945
558.799
558.8035
558.8079
558.8124
558.8169
558.8213
558.8258
558.8303
558.8348
558.8392
558.8437
558.8482
558.8527
558.8572
558.8616
558.8661
558.8706
558.8751
558.8796
558.8841
558.8886
558.8931
558.8976
558.9021
558.9067
558.9112
558.9157
558.9202
558.9248
558.9294
558.9339
558.9385
558.9431
558.9477
558.9523
558.9569
558.9615
558.9661
558.9707
558.9753
558.9798
558.9843
558.9887
558.9929
558.9969
559.0007
559.004
559.0069
559.0091
559.0105
559.011
516.0757
516.0775
516.0808
516.0851
516.0901
516.0956
516.1015
516.1076
516.1138
516.1202
516.1266
516.133
516.1393
516.1457
516.1521
516.1584
516.1647
516.171
516.1772
516.1834
516.1896
516.1958
516.2019
516.208
516.2141
516.2202
516.2263
516.2323
516.2384
516.2444
516.2505
516.2565
516.2625
516.2685
516.2745
516.2805
516.2865
516.2925
516.2985
516.3045
516.3105
516.3165
516.3225
516.3285
516.3345
516.3405
516.3465
516.3525
516.3585
516.3645
516.3705
516.3765
516.3825
516.3885
516.3945
516.4005
516.4066
516.4126
516.4186
516.4246
516.4306
516.4366
516.4426
516.4486
516.4547
516.4607
516.4667
516.4727
516.4788
516.4848
516.4908
516.4969
516.5029
516.509
516.515
516.5211
516.5272
516.5332
516.5393
516.5454
516.5515
516.5576
516.5637
516.5698
516.5759
516.5821
516.5882
516.5943
516.6003
516.6063
516.6122
516.618
516.6237
516.629
516.6341
516.6387
516.6426
516.6458
516.6478
516.6487
473.5691
473.5718
473.5763
473.582
473.5885
473.5954
473.6026
473.61
473.6176
473.6253
473.6331
473.6409
473.6487
473.6565
473.6642
473.672
473.6797
473.6874
473.6951
473.7028
473.7105
473.7181
473.7257
473.7333
473.7409
473.7484
473.756
473.7636
473.7711
473.7786
473.7862
473.7937
473.8012
473.8087
473.8163
473.8238
473.8313
473.8388
473.8463
473.8538
473.8613
473.8688
473.8763
473.8838
473.8914
473.8989
473.9064
473.9139
473.9214
473.9289
473.9364
473.9439
473.9514
473.959
473.9665
473.974
473.9815
473.989
473.9966
474.0041
474.0116
474.0191
474.0267
474.0342
474.0417
474.0493
474.0568
474.0643
474.0719
474.0794
474.087
474.0945
474.1021
474.1097
474.1172
474.1248
474.1324
474.14
474.1475
474.1551
474.1627
474.1703
474.178
474.1856
474.1932
474.2008
474.2084
474.2159
474.2235
474.231
474.2384
474.2456
474.2527
474.2595
474.266
474.272
474.2772
474.2815
474.2844
474.2857
431.0596
431.0639
431.0704
431.0779
431.0859
431.0944
431.103
431.1119
431.1209
431.13
431.1391
431.1483
431.1575
431.1667
431.1758
431.185
431.1942
431.2033
431.2124
431.2215
431.2306
431.2397
431.2488
431.2578
431.2669
431.2759
431.2849
431.294
431.303
431.312
431.321
431.33
431.339
431.348
431.357
431.366
431.375
431.384
431.393
431.402
431.411
431.42
431.429
431.438
431.447
431.456
431.465
431.474
431.483
431.492
431.501
431.51
431.519
431.528
431.537
431.546
431.555
431.5641
431.5731
431.5821
431.5911
431.6001
431.6091
431.6182
431.6272
431.6362
431.6452
431.6543
431.6633
431.6724
431.6814
431.6904
431.6995
431.7085
431.7176
431.7267
431.7357
431.7448
431.7539
431.7629
431.772
431.7811
431.7902
431.7993
431.8084
431.8175
431.8265
431.8356
431.8446
431.8535
431.8624
431.8712
431.8798
431.8882
431.8962
431.9037
431.9105
431.9162
431.9204
431.9224
388.5456
388.5533
388.5631
388.5729
388.5827
388.5927
388.6029
388.6132
388.6236
388.6341
388.6446
388.6552
388.6658
388.6763
388.6869
388.6974
388.708
388.7185
388.7291
388.7396
388.7501
388.7606
388.7711
388.7816
388.7921
388.8026
388.813
388.8235
388.834
388.8444
388.8549
388.8654
388.8758
388.8863
388.8967
388.9072
388.9176
388.9281
388.9386
388.949
388.9595
388.9699
388.9804
388.9909
389.0013
389.0118
389.0222
389.0327
389.0432
389.0537
389.0641
389.0746
389.0851
389.0955
389.106
389.1165
389.127
389.1375
389.1479
389.1584
389.1689
389.1794
389.1899
389.2004
389.2109
389.2214
389.2319
389.2424
389.2529
389.2634
389.2739
389.2844
389.2949
389.3054
389.3159
389.3265
389.337
389.3475
389.358
389.3686
389.3791
389.3897
389.4002
389.4108
389.4213
389.4318
389.4424
389.4529
389.4634
389.4738
389.4842
389.4945
389.5047
389.5146
389.5243
389.5336
389.5423
389.5499
389.5559
389.5592
346.0236
346.0402
346.0556
346.0674
346.0788
346.0905
346.1022
346.114
346.1259
346.1377
346.1496
346.1616
346.1735
346.1854
346.1973
346.2092
346.2212
346.2331
346.245
346.2569
346.2688
346.2807
346.2926
346.3045
346.3164
346.3283
346.3402
346.3521
346.364
346.3759
346.3877
346.3996
346.4115
346.4234
346.4353
346.4472
346.4591
346.471
346.4829
346.4948
346.5067
346.5186
346.5304
346.5423
346.5542
346.5662
346.5781
346.59
346.6019
346.6138
346.6257
346.6376
346.6495
346.6614
346.6733
346.6853
346.6972
346.7091
346.721
346.7329
346.7449
346.7568
346.7687
346.7807
346.7926
346.8045
346.8165
346.8284
346.8403
346.8523
346.8642
346.8762
346.8881
346.9001
346.912
346.924
346.936
346.9479
346.9599
346.9719
346.9838
346.9958
347.0078
347.0198
347.0317
347.0437
347.0557
347.0676
347.0796
347.0915
347.1034
347.1153
347.127
347.1387
347.1502
347.1614
347.1723
347.1824
347.1913
347.1973
)
;

boundaryField
{
    leftLet
    {
        type            zeroGradient;
    }
    rightLet
    {
        type            zeroGradient;
    }
    frontAndBack
    {
        type            empty;
    }
    wall_to_bottomAir
    {
        type            compressible::turbulentTemperatureCoupledBaffleMixed;
        refValue        nonuniform List<scalar> 
100
(
1199.423
1199.643
1199.702
1199.664
1199.637
1199.621
1199.602
1199.583
1199.565
1199.546
1199.527
1199.508
1199.489
1199.471
1199.452
1199.433
1199.414
1199.395
1199.376
1199.358
1199.339
1199.32
1199.301
1199.282
1199.263
1199.245
1199.226
1199.207
1199.188
1199.169
1199.15
1199.132
1199.113
1199.094
1199.075
1199.056
1199.037
1199.018
1199
1198.981
1198.962
1198.943
1198.924
1198.905
1198.886
1198.867
1198.849
1198.83
1198.811
1198.792
1198.773
1198.754
1198.735
1198.716
1198.697
1198.679
1198.66
1198.641
1198.622
1198.603
1198.584
1198.565
1198.546
1198.527
1198.508
1198.489
1198.47
1198.451
1198.432
1198.414
1198.395
1198.376
1198.357
1198.338
1198.319
1198.3
1198.281
1198.262
1198.243
1198.224
1198.205
1198.186
1198.167
1198.148
1198.129
1198.11
1198.091
1198.072
1198.053
1198.034
1198.015
1197.996
1197.977
1197.958
1197.939
1197.92
1197.901
1197.882
1197.863
1197.844
)
;
        refGradient     uniform 0;
        valueFraction   nonuniform List<scalar> 
100
(
0.4615385
0.4615385
0.4615385
0.4615385
0.4615385
0.4615385
0.4615385
0.4615385
0.4615385
0.4615385
0.4615385
0.4615385
0.4615385
0.4615385
0.4615385
0.4615385
0.4615385
0.4615385
0.4615385
0.4615385
0.4615385
0.4615385
0.4615385
0.4615385
0.4615385
0.4615385
0.4615385
0.4615385
0.4615385
0.4615385
0.4615385
0.4615385
0.4615385
0.4615385
0.4615385
0.4615385
0.4615385
0.4615385
0.4615385
0.4615385
0.4615385
0.4615385
0.4615385
0.4615385
0.4615385
0.4615385
0.4615385
0.4615385
0.4615385
0.4615385
0.4615385
0.4615385
0.4615385
0.4615385
0.4615385
0.4615385
0.4615385
0.4615385
0.4615385
0.4615385
0.4615385
0.4615385
0.4615385
0.4615385
0.4615385
0.4615385
0.4615385
0.4615385
0.4615385
0.4615385
0.4615385
0.4615385
0.4615385
0.4615385
0.4615385
0.4615385
0.4615385
0.4615385
0.4615385
0.4615385
0.4615385
0.4615385
0.4615385
0.4615385
0.4615385
0.4615385
0.4615385
0.4615385
0.4615385
0.4615385
0.4615385
0.4615385
0.4615385
0.4615385
0.4615385
0.4615385
0.4615385
0.4615385
0.4615385
0.4615385
)
;
        value           nonuniform List<scalar> 
100
(
1174.694
1174.832
1174.878
1174.859
1174.841
1174.826
1174.81
1174.793
1174.776
1174.758
1174.741
1174.723
1174.705
1174.688
1174.67
1174.652
1174.634
1174.616
1174.598
1174.58
1174.562
1174.545
1174.527
1174.509
1174.491
1174.473
1174.455
1174.437
1174.419
1174.401
1174.383
1174.365
1174.347
1174.329
1174.311
1174.293
1174.275
1174.257
1174.239
1174.221
1174.203
1174.185
1174.167
1174.149
1174.131
1174.113
1174.095
1174.077
1174.059
1174.041
1174.023
1174.005
1173.987
1173.968
1173.95
1173.932
1173.914
1173.896
1173.878
1173.86
1173.842
1173.824
1173.806
1173.788
1173.77
1173.752
1173.734
1173.716
1173.698
1173.679
1173.661
1173.643
1173.625
1173.607
1173.589
1173.571
1173.553
1173.535
1173.517
1173.499
1173.48
1173.462
1173.444
1173.426
1173.408
1173.39
1173.372
1173.354
1173.336
1173.318
1173.3
1173.282
1173.264
1173.246
1173.229
1173.211
1173.194
1173.177
1173.162
1173.148
)
;
        Tnbr            T;
        thicknessLayers 0();
        kappaLayers     0();
        kappa           solidThermo;
        kappaName       none;
    }
    wall_to_topAir
    {
        type            compressible::turbulentTemperatureCoupledBaffleMixed;
        refValue        nonuniform List<scalar> 
100
(
299.9399
299.9855
300.0093
300.02
300.0323
300.046
300.0595
300.0728
300.0861
300.0995
300.1129
300.1263
300.1396
300.153
300.1664
300.1798
300.1931
300.2065
300.2199
300.2333
300.2467
300.2601
300.2735
300.2869
300.3002
300.3136
300.327
300.3404
300.3538
300.3672
300.3807
300.3941
300.4075
300.4209
300.4343
300.4477
300.4611
300.4745
300.488
300.5014
300.5148
300.5282
300.5417
300.5551
300.5685
300.5819
300.5954
300.6088
300.6223
300.6357
300.6491
300.6626
300.676
300.6895
300.7029
300.7164
300.7298
300.7433
300.7567
300.7702
300.7836
300.7971
300.8106
300.824
300.8375
300.851
300.8644
300.8779
300.8914
300.9049
300.9183
300.9318
300.9453
300.9588
300.9723
300.9858
300.9992
301.0127
301.0262
301.0397
301.0532
301.0667
301.0802
301.0937
301.1072
301.1207
301.1342
301.1477
301.1612
301.1747
301.1883
301.2018
301.2153
301.2288
301.2423
301.2558
301.2693
301.2829
301.2964
301.3099
)
;
        refGradient     uniform 0;
        valueFraction   nonuniform List<scalar> 
100
(
0.4615385
0.4615385
0.4615385
0.4615385
0.4615385
0.4615385
0.4615385
0.4615385
0.4615385
0.4615385
0.4615385
0.4615385
0.4615385
0.4615385
0.4615385
0.4615385
0.4615385
0.4615385
0.4615385
0.4615385
0.4615385
0.4615385
0.4615385
0.4615385
0.4615385
0.4615385
0.4615385
0.4615385
0.4615385
0.4615385
0.4615385
0.4615385
0.4615385
0.4615385
0.4615385
0.4615385
0.4615385
0.4615385
0.4615385
0.4615385
0.4615385
0.4615385
0.4615385
0.4615385
0.4615385
0.4615385
0.4615385
0.4615385
0.4615385
0.4615385
0.4615385
0.4615385
0.4615385
0.4615385
0.4615385
0.4615385
0.4615385
0.4615385
0.4615385
0.4615385
0.4615385
0.4615385
0.4615385
0.4615385
0.4615385
0.4615385
0.4615385
0.4615385
0.4615385
0.4615385
0.4615385
0.4615385
0.4615385
0.4615385
0.4615385
0.4615385
0.4615385
0.4615385
0.4615385
0.4615385
0.4615385
0.4615385
0.4615385
0.4615385
0.4615385
0.4615385
0.4615385
0.4615385
0.4615385
0.4615385
0.4615385
0.4615385
0.4615385
0.4615385
0.4615385
0.4615385
0.4615385
0.4615385
0.4615385
0.4615385
)
;
        value           nonuniform List<scalar> 
100
(
324.7542
324.7842
324.8034
324.8148
324.8266
324.8392
324.8517
324.8642
324.8768
324.8893
324.9019
324.9145
324.9271
324.9397
324.9523
324.9649
324.9775
324.9901
325.0026
325.0152
325.0278
325.0404
325.053
325.0656
325.0782
325.0908
325.1034
325.1159
325.1285
325.1411
325.1537
325.1663
325.1789
325.1915
325.2041
325.2167
325.2293
325.2418
325.2544
325.267
325.2796
325.2922
325.3049
325.3175
325.3301
325.3427
325.3553
325.3679
325.3805
325.3931
325.4057
325.4184
325.431
325.4436
325.4562
325.4688
325.4815
325.4941
325.5067
325.5194
325.532
325.5446
325.5573
325.5699
325.5826
325.5952
325.6078
325.6205
325.6331
325.6458
325.6584
325.6711
325.6838
325.6964
325.7091
325.7217
325.7344
325.7471
325.7597
325.7724
325.7851
325.7978
325.8104
325.8231
325.8358
325.8485
325.8612
325.8738
325.8865
325.8992
325.9118
325.9244
325.937
325.9495
325.9619
325.9742
325.9863
325.998
326.009
326.0185
)
;
        Tnbr            T;
        thicknessLayers 0();
        kappaLayers     0();
        kappa           solidThermo;
        kappaName       none;
    }
}


// ************************************************************************* //
