/*--------------------------------*- C++ -*----------------------------------*\
| =========                 |                                                 |
| \\      /  F ield         | OpenFOAM: The Open Source CFD Toolbox           |
|  \\    /   O peration     | Version:  2.3.0                                 |
|   \\  /    A nd           | Web:      www.OpenFOAM.org                      |
|    \\/     M anipulation  |                                                 |
\*---------------------------------------------------------------------------*/
FoamFile
{
    version     2.0;
    format      ascii;
    class       volScalarField;
    location    "9800/wall";
    object      T;
}
// * * * * * * * * * * * * * * * * * * * * * * * * * * * * * * * * * * * * * //

dimensions      [0 0 0 1 0 0 0];

internalField   nonuniform List<scalar> 
2000
(
1177.028
1177.145
1177.208
1177.216
1177.217
1177.219
1177.221
1177.221
1177.222
1177.222
1177.223
1177.223
1177.224
1177.224
1177.224
1177.225
1177.225
1177.225
1177.225
1177.226
1177.226
1177.226
1177.226
1177.227
1177.227
1177.227
1177.227
1177.228
1177.228
1177.228
1177.228
1177.229
1177.229
1177.229
1177.229
1177.23
1177.23
1177.23
1177.23
1177.231
1177.231
1177.231
1177.231
1177.232
1177.232
1177.232
1177.232
1177.233
1177.233
1177.233
1177.233
1177.234
1177.234
1177.234
1177.234
1177.234
1177.235
1177.235
1177.235
1177.235
1177.236
1177.236
1177.236
1177.236
1177.237
1177.237
1177.237
1177.237
1177.238
1177.238
1177.238
1177.238
1177.238
1177.239
1177.239
1177.239
1177.239
1177.24
1177.24
1177.24
1177.24
1177.241
1177.241
1177.241
1177.241
1177.241
1177.242
1177.242
1177.242
1177.242
1177.242
1177.243
1177.243
1177.243
1177.243
1177.243
1177.244
1177.244
1177.244
1177.244
1132.133
1132.175
1132.21
1132.226
1132.234
1132.238
1132.241
1132.243
1132.244
1132.245
1132.246
1132.246
1132.247
1132.247
1132.248
1132.248
1132.248
1132.249
1132.249
1132.249
1132.25
1132.25
1132.25
1132.25
1132.251
1132.251
1132.251
1132.251
1132.251
1132.252
1132.252
1132.252
1132.252
1132.253
1132.253
1132.253
1132.253
1132.254
1132.254
1132.254
1132.254
1132.254
1132.255
1132.255
1132.255
1132.255
1132.256
1132.256
1132.256
1132.256
1132.257
1132.257
1132.257
1132.257
1132.257
1132.258
1132.258
1132.258
1132.258
1132.259
1132.259
1132.259
1132.259
1132.259
1132.26
1132.26
1132.26
1132.26
1132.26
1132.261
1132.261
1132.261
1132.261
1132.262
1132.262
1132.262
1132.262
1132.262
1132.263
1132.263
1132.263
1132.263
1132.263
1132.264
1132.264
1132.264
1132.264
1132.264
1132.265
1132.265
1132.265
1132.265
1132.265
1132.265
1132.266
1132.266
1132.266
1132.266
1132.266
1132.266
1087.194
1087.212
1087.231
1087.244
1087.252
1087.257
1087.261
1087.263
1087.265
1087.266
1087.267
1087.268
1087.269
1087.269
1087.27
1087.27
1087.271
1087.271
1087.271
1087.272
1087.272
1087.272
1087.272
1087.273
1087.273
1087.273
1087.273
1087.274
1087.274
1087.274
1087.274
1087.274
1087.275
1087.275
1087.275
1087.275
1087.275
1087.276
1087.276
1087.276
1087.276
1087.277
1087.277
1087.277
1087.277
1087.277
1087.278
1087.278
1087.278
1087.278
1087.278
1087.279
1087.279
1087.279
1087.279
1087.279
1087.28
1087.28
1087.28
1087.28
1087.28
1087.281
1087.281
1087.281
1087.281
1087.281
1087.282
1087.282
1087.282
1087.282
1087.282
1087.283
1087.283
1087.283
1087.283
1087.283
1087.284
1087.284
1087.284
1087.284
1087.284
1087.285
1087.285
1087.285
1087.285
1087.285
1087.286
1087.286
1087.286
1087.286
1087.286
1087.286
1087.286
1087.287
1087.287
1087.287
1087.287
1087.287
1087.286
1087.286
1042.236
1042.245
1042.255
1042.264
1042.271
1042.276
1042.28
1042.283
1042.285
1042.286
1042.288
1042.289
1042.289
1042.29
1042.291
1042.291
1042.291
1042.292
1042.292
1042.292
1042.293
1042.293
1042.293
1042.293
1042.294
1042.294
1042.294
1042.294
1042.295
1042.295
1042.295
1042.295
1042.295
1042.296
1042.296
1042.296
1042.296
1042.296
1042.297
1042.297
1042.297
1042.297
1042.297
1042.298
1042.298
1042.298
1042.298
1042.298
1042.299
1042.299
1042.299
1042.299
1042.299
1042.3
1042.3
1042.3
1042.3
1042.3
1042.3
1042.301
1042.301
1042.301
1042.301
1042.301
1042.302
1042.302
1042.302
1042.302
1042.302
1042.303
1042.303
1042.303
1042.303
1042.303
1042.303
1042.304
1042.304
1042.304
1042.304
1042.304
1042.305
1042.305
1042.305
1042.305
1042.305
1042.305
1042.306
1042.306
1042.306
1042.306
1042.306
1042.306
1042.306
1042.306
1042.306
1042.306
1042.306
1042.306
1042.306
1042.306
997.269
997.2734
997.2797
997.286
997.2915
997.2958
997.2993
997.3019
997.304
997.3056
997.3069
997.3079
997.3088
997.3095
997.3101
997.3106
997.311
997.3114
997.3118
997.3121
997.3124
997.3126
997.3129
997.3131
997.3134
997.3136
997.3138
997.314
997.3142
997.3144
997.3146
997.3148
997.315
997.3152
997.3153
997.3155
997.3157
997.3159
997.3161
997.3163
997.3164
997.3166
997.3168
997.317
997.3172
997.3173
997.3175
997.3177
997.3179
997.3181
997.3182
997.3184
997.3186
997.3188
997.319
997.3191
997.3193
997.3195
997.3197
997.3198
997.32
997.3202
997.3204
997.3205
997.3207
997.3209
997.3211
997.3212
997.3214
997.3216
997.3217
997.3219
997.3221
997.3223
997.3224
997.3226
997.3228
997.3229
997.3231
997.3233
997.3234
997.3236
997.3237
997.3239
997.324
997.3242
997.3243
997.3244
997.3245
997.3246
997.3247
997.3248
997.3249
997.3249
997.3249
997.3249
997.3248
997.3247
997.3245
997.3242
952.2961
952.2988
952.3027
952.3071
952.3112
952.3148
952.3178
952.3202
952.3222
952.3238
952.3251
952.3262
952.327
952.3278
952.3284
952.3289
952.3294
952.3298
952.3302
952.3305
952.3308
952.3311
952.3313
952.3315
952.3318
952.332
952.3322
952.3324
952.3326
952.3327
952.3329
952.3331
952.3333
952.3335
952.3336
952.3338
952.334
952.3341
952.3343
952.3345
952.3346
952.3348
952.335
952.3351
952.3353
952.3355
952.3356
952.3358
952.336
952.3361
952.3363
952.3365
952.3366
952.3368
952.337
952.3371
952.3373
952.3374
952.3376
952.3378
952.3379
952.3381
952.3383
952.3384
952.3386
952.3387
952.3389
952.3391
952.3392
952.3394
952.3395
952.3397
952.3399
952.34
952.3402
952.3403
952.3405
952.3406
952.3408
952.3409
952.3411
952.3412
952.3414
952.3415
952.3416
952.3417
952.3419
952.342
952.3421
952.3422
952.3422
952.3423
952.3423
952.3423
952.3423
952.3423
952.3422
952.342
952.3418
952.3416
907.3196
907.3214
907.324
907.3271
907.3302
907.3331
907.3356
907.3377
907.3395
907.3411
907.3423
907.3434
907.3443
907.345
907.3456
907.3462
907.3466
907.3471
907.3474
907.3477
907.348
907.3483
907.3485
907.3488
907.349
907.3492
907.3494
907.3496
907.3497
907.3499
907.3501
907.3502
907.3504
907.3506
907.3507
907.3509
907.3511
907.3512
907.3514
907.3515
907.3517
907.3518
907.352
907.3521
907.3523
907.3524
907.3526
907.3527
907.3529
907.3531
907.3532
907.3534
907.3535
907.3537
907.3538
907.354
907.3541
907.3543
907.3544
907.3546
907.3547
907.3549
907.355
907.3552
907.3553
907.3555
907.3556
907.3558
907.3559
907.356
907.3562
907.3563
907.3565
907.3566
907.3568
907.3569
907.3571
907.3572
907.3573
907.3575
907.3576
907.3577
907.3579
907.358
907.3581
907.3582
907.3583
907.3584
907.3585
907.3585
907.3586
907.3586
907.3587
907.3587
907.3586
907.3585
907.3584
907.3583
907.3581
907.3578
862.3405
862.3417
862.3435
862.3458
862.3481
862.3504
862.3525
862.3544
862.356
862.3574
862.3586
862.3596
862.3604
862.3612
862.3618
862.3623
862.3628
862.3632
862.3636
862.3639
862.3642
862.3644
862.3647
862.3649
862.3651
862.3653
862.3655
862.3656
862.3658
862.366
862.3661
862.3663
862.3664
862.3666
862.3667
862.3669
862.367
862.3672
862.3673
862.3675
862.3676
862.3677
862.3679
862.368
862.3682
862.3683
862.3684
862.3686
862.3687
862.3689
862.369
862.3691
862.3693
862.3694
862.3696
862.3697
862.3698
862.37
862.3701
862.3703
862.3704
862.3705
862.3707
862.3708
862.3709
862.3711
862.3712
862.3714
862.3715
862.3716
862.3718
862.3719
862.372
862.3722
862.3723
862.3724
862.3726
862.3727
862.3728
862.3729
862.373
862.3732
862.3733
862.3734
862.3735
862.3736
862.3737
862.3738
862.3738
862.3739
862.3739
862.3739
862.3739
862.3739
862.3739
862.3738
862.3737
862.3735
862.3733
862.3731
817.3592
817.3601
817.3614
817.3631
817.365
817.3668
817.3685
817.3701
817.3716
817.3728
817.3739
817.3748
817.3757
817.3764
817.377
817.3775
817.3779
817.3783
817.3787
817.379
817.3793
817.3795
817.3797
817.3799
817.3801
817.3803
817.3805
817.3807
817.3808
817.381
817.3811
817.3813
817.3814
817.3815
817.3817
817.3818
817.382
817.3821
817.3822
817.3823
817.3825
817.3826
817.3827
817.3829
817.383
817.3831
817.3833
817.3834
817.3835
817.3836
817.3838
817.3839
817.384
817.3842
817.3843
817.3844
817.3845
817.3847
817.3848
817.3849
817.3851
817.3852
817.3853
817.3854
817.3856
817.3857
817.3858
817.3859
817.3861
817.3862
817.3863
817.3864
817.3866
817.3867
817.3868
817.3869
817.387
817.3872
817.3873
817.3874
817.3875
817.3876
817.3877
817.3878
817.3879
817.388
817.388
817.3881
817.3882
817.3882
817.3882
817.3883
817.3882
817.3882
817.3882
817.3881
817.388
817.3878
817.3876
817.3874
772.3762
772.3769
772.3779
772.3792
772.3807
772.3822
772.3836
772.385
772.3862
772.3873
772.3883
772.3892
772.3899
772.3906
772.3912
772.3917
772.3921
772.3925
772.3928
772.3931
772.3934
772.3936
772.3938
772.394
772.3942
772.3944
772.3945
772.3947
772.3948
772.395
772.3951
772.3953
772.3954
772.3955
772.3956
772.3958
772.3959
772.396
772.3961
772.3963
772.3964
772.3965
772.3966
772.3967
772.3969
772.397
772.3971
772.3972
772.3973
772.3974
772.3976
772.3977
772.3978
772.3979
772.398
772.3982
772.3983
772.3984
772.3985
772.3986
772.3987
772.3989
772.399
772.3991
772.3992
772.3993
772.3994
772.3995
772.3997
772.3998
772.3999
772.4
772.4001
772.4002
772.4003
772.4004
772.4006
772.4007
772.4008
772.4009
772.401
772.4011
772.4012
772.4012
772.4013
772.4014
772.4015
772.4015
772.4016
772.4016
772.4016
772.4016
772.4016
772.4016
772.4015
772.4014
772.4013
772.4012
772.401
772.4007
727.3916
727.3922
727.393
727.3941
727.3953
727.3965
727.3977
727.3989
727.4
727.401
727.4019
727.4027
727.4034
727.404
727.4045
727.405
727.4054
727.4057
727.406
727.4063
727.4066
727.4068
727.407
727.4072
727.4074
727.4075
727.4077
727.4078
727.4079
727.4081
727.4082
727.4083
727.4084
727.4086
727.4087
727.4088
727.4089
727.409
727.4091
727.4092
727.4094
727.4095
727.4096
727.4097
727.4098
727.4099
727.41
727.4101
727.4102
727.4103
727.4104
727.4105
727.4107
727.4108
727.4109
727.411
727.4111
727.4112
727.4113
727.4114
727.4115
727.4116
727.4117
727.4118
727.4119
727.412
727.4122
727.4123
727.4124
727.4125
727.4126
727.4127
727.4128
727.4129
727.413
727.4131
727.4132
727.4133
727.4134
727.4135
727.4136
727.4136
727.4137
727.4138
727.4139
727.4139
727.414
727.4141
727.4141
727.4141
727.4141
727.4141
727.4141
727.4141
727.414
727.4139
727.4138
727.4137
727.4135
727.4133
682.4058
682.4063
682.407
682.4079
682.4089
682.4099
682.411
682.412
682.4129
682.4138
682.4146
682.4153
682.4159
682.4165
682.417
682.4174
682.4178
682.4181
682.4184
682.4187
682.4189
682.4191
682.4193
682.4195
682.4196
682.4198
682.4199
682.4201
682.4202
682.4203
682.4204
682.4205
682.4206
682.4207
682.4209
682.421
682.4211
682.4212
682.4213
682.4214
682.4215
682.4216
682.4217
682.4218
682.4219
682.422
682.4221
682.4222
682.4223
682.4224
682.4225
682.4226
682.4227
682.4228
682.4229
682.423
682.4231
682.4232
682.4233
682.4234
682.4234
682.4235
682.4236
682.4237
682.4238
682.4239
682.424
682.4241
682.4242
682.4243
682.4244
682.4245
682.4246
682.4247
682.4248
682.4249
682.425
682.4251
682.4252
682.4252
682.4253
682.4254
682.4255
682.4255
682.4256
682.4257
682.4257
682.4258
682.4258
682.4258
682.4258
682.4258
682.4258
682.4258
682.4257
682.4256
682.4255
682.4254
682.4252
682.425
637.4187
637.4192
637.4198
637.4206
637.4215
637.4224
637.4234
637.4243
637.4251
637.4259
637.4266
637.4272
637.4277
637.4282
637.4287
637.4291
637.4294
637.4297
637.43
637.4302
637.4304
637.4306
637.4308
637.431
637.4311
637.4312
637.4314
637.4315
637.4316
637.4317
637.4318
637.4319
637.432
637.4321
637.4322
637.4323
637.4324
637.4325
637.4326
637.4327
637.4328
637.4329
637.433
637.4331
637.4332
637.4332
637.4333
637.4334
637.4335
637.4336
637.4337
637.4338
637.4339
637.434
637.4341
637.4342
637.4342
637.4343
637.4344
637.4345
637.4346
637.4347
637.4348
637.4349
637.435
637.435
637.4351
637.4352
637.4353
637.4354
637.4355
637.4356
637.4357
637.4357
637.4358
637.4359
637.436
637.4361
637.4362
637.4362
637.4363
637.4364
637.4364
637.4365
637.4366
637.4366
637.4367
637.4367
637.4367
637.4368
637.4368
637.4368
637.4367
637.4367
637.4366
637.4366
637.4365
637.4363
637.4362
637.436
592.4306
592.431
592.4317
592.4325
592.4333
592.4341
592.435
592.4358
592.4365
592.4372
592.4378
592.4383
592.4388
592.4393
592.4397
592.44
592.4403
592.4406
592.4408
592.441
592.4412
592.4414
592.4416
592.4417
592.4418
592.442
592.4421
592.4422
592.4423
592.4424
592.4425
592.4426
592.4427
592.4428
592.4429
592.443
592.443
592.4431
592.4432
592.4433
592.4434
592.4435
592.4435
592.4436
592.4437
592.4438
592.4439
592.444
592.444
592.4441
592.4442
592.4443
592.4444
592.4445
592.4445
592.4446
592.4447
592.4448
592.4449
592.4449
592.445
592.4451
592.4452
592.4453
592.4454
592.4454
592.4455
592.4456
592.4457
592.4458
592.4458
592.4459
592.446
592.4461
592.4461
592.4462
592.4463
592.4464
592.4464
592.4465
592.4466
592.4466
592.4467
592.4468
592.4468
592.4469
592.4469
592.4469
592.447
592.447
592.447
592.447
592.447
592.4469
592.4469
592.4468
592.4467
592.4466
592.4465
592.4463
547.4414
547.4419
547.4426
547.4434
547.4443
547.4451
547.4459
547.4466
547.4472
547.4478
547.4484
547.4488
547.4493
547.4496
547.45
547.4503
547.4505
547.4508
547.451
547.4512
547.4514
547.4515
547.4517
547.4518
547.4519
547.452
547.4521
547.4522
547.4523
547.4524
547.4525
547.4526
547.4527
547.4528
547.4528
547.4529
547.453
547.4531
547.4531
547.4532
547.4533
547.4534
547.4534
547.4535
547.4536
547.4537
547.4537
547.4538
547.4539
547.454
547.454
547.4541
547.4542
547.4543
547.4543
547.4544
547.4545
547.4546
547.4546
547.4547
547.4548
547.4549
547.4549
547.455
547.4551
547.4552
547.4552
547.4553
547.4554
547.4555
547.4555
547.4556
547.4557
547.4557
547.4558
547.4559
547.4559
547.456
547.4561
547.4561
547.4562
547.4563
547.4563
547.4564
547.4564
547.4565
547.4565
547.4565
547.4566
547.4566
547.4566
547.4566
547.4566
547.4566
547.4565
547.4565
547.4564
547.4563
547.4561
547.456
502.4511
502.4518
502.4527
502.4537
502.4546
502.4554
502.4562
502.4568
502.4574
502.4579
502.4583
502.4587
502.4591
502.4594
502.4597
502.4599
502.4602
502.4604
502.4606
502.4607
502.4609
502.461
502.4611
502.4613
502.4614
502.4615
502.4615
502.4616
502.4617
502.4618
502.4619
502.462
502.462
502.4621
502.4622
502.4623
502.4623
502.4624
502.4625
502.4625
502.4626
502.4627
502.4627
502.4628
502.4629
502.4629
502.463
502.4631
502.4631
502.4632
502.4633
502.4633
502.4634
502.4635
502.4635
502.4636
502.4637
502.4638
502.4638
502.4639
502.464
502.464
502.4641
502.4642
502.4642
502.4643
502.4644
502.4644
502.4645
502.4646
502.4646
502.4647
502.4647
502.4648
502.4649
502.4649
502.465
502.4651
502.4651
502.4652
502.4652
502.4653
502.4653
502.4654
502.4654
502.4655
502.4655
502.4656
502.4656
502.4656
502.4656
502.4656
502.4656
502.4656
502.4656
502.4655
502.4654
502.4654
502.4652
502.4651
457.4597
457.4608
457.4622
457.4634
457.4644
457.4653
457.4659
457.4665
457.467
457.4674
457.4677
457.4681
457.4684
457.4686
457.4689
457.4691
457.4693
457.4694
457.4696
457.4697
457.4698
457.47
457.4701
457.4702
457.4702
457.4703
457.4704
457.4705
457.4706
457.4706
457.4707
457.4708
457.4708
457.4709
457.471
457.471
457.4711
457.4712
457.4712
457.4713
457.4714
457.4714
457.4715
457.4715
457.4716
457.4717
457.4717
457.4718
457.4718
457.4719
457.472
457.472
457.4721
457.4721
457.4722
457.4723
457.4723
457.4724
457.4724
457.4725
457.4726
457.4726
457.4727
457.4727
457.4728
457.4729
457.4729
457.473
457.473
457.4731
457.4732
457.4732
457.4733
457.4733
457.4734
457.4735
457.4735
457.4736
457.4736
457.4737
457.4737
457.4738
457.4738
457.4739
457.4739
457.474
457.474
457.474
457.4741
457.4741
457.4741
457.4741
457.4741
457.4741
457.4741
457.474
457.474
457.4739
457.4738
457.4737
412.4667
412.4689
412.4712
412.4728
412.4739
412.4747
412.4752
412.4757
412.4761
412.4764
412.4767
412.4769
412.4772
412.4774
412.4775
412.4777
412.4778
412.478
412.4781
412.4782
412.4783
412.4784
412.4785
412.4786
412.4786
412.4787
412.4788
412.4789
412.4789
412.479
412.479
412.4791
412.4792
412.4792
412.4793
412.4793
412.4794
412.4794
412.4795
412.4796
412.4796
412.4797
412.4797
412.4798
412.4798
412.4799
412.4799
412.48
412.48
412.4801
412.4802
412.4802
412.4803
412.4803
412.4804
412.4804
412.4805
412.4805
412.4806
412.4806
412.4807
412.4807
412.4808
412.4809
412.4809
412.481
412.481
412.4811
412.4811
412.4812
412.4812
412.4813
412.4813
412.4814
412.4814
412.4815
412.4815
412.4816
412.4816
412.4817
412.4817
412.4818
412.4818
412.4819
412.4819
412.482
412.482
412.482
412.4821
412.4821
412.4821
412.4821
412.4821
412.4821
412.4821
412.4821
412.4821
412.482
412.482
412.4819
367.4712
367.4762
367.4804
367.4823
367.4832
367.4838
367.4842
367.4845
367.4848
367.485
367.4852
367.4854
367.4855
367.4856
367.4858
367.4859
367.486
367.4861
367.4862
367.4863
367.4863
367.4864
367.4865
367.4865
367.4866
367.4867
367.4867
367.4868
367.4868
367.4869
367.4869
367.487
367.487
367.4871
367.4871
367.4872
367.4872
367.4873
367.4873
367.4874
367.4874
367.4875
367.4875
367.4876
367.4876
367.4877
367.4877
367.4878
367.4878
367.4879
367.4879
367.488
367.488
367.4881
367.4881
367.4881
367.4882
367.4882
367.4883
367.4883
367.4884
367.4884
367.4885
367.4885
367.4886
367.4886
367.4887
367.4887
367.4888
367.4888
367.4889
367.4889
367.489
367.489
367.489
367.4891
367.4891
367.4892
367.4892
367.4893
367.4893
367.4894
367.4894
367.4894
367.4895
367.4895
367.4896
367.4896
367.4896
367.4897
367.4897
367.4897
367.4897
367.4897
367.4898
367.4898
367.4898
367.4897
367.4897
367.4896
322.4703
322.484
322.4913
322.4923
322.4924
322.4927
322.4929
322.493
322.4931
322.4932
322.4933
322.4934
322.4935
322.4936
322.4936
322.4937
322.4937
322.4938
322.4939
322.4939
322.494
322.494
322.4941
322.4941
322.4942
322.4942
322.4943
322.4943
322.4943
322.4944
322.4944
322.4945
322.4945
322.4946
322.4946
322.4946
322.4947
322.4947
322.4948
322.4948
322.4949
322.4949
322.4949
322.495
322.495
322.4951
322.4951
322.4952
322.4952
322.4952
322.4953
322.4953
322.4954
322.4954
322.4954
322.4955
322.4955
322.4956
322.4956
322.4957
322.4957
322.4957
322.4958
322.4958
322.4959
322.4959
322.4959
322.496
322.496
322.4961
322.4961
322.4962
322.4962
322.4962
322.4963
322.4963
322.4964
322.4964
322.4964
322.4965
322.4965
322.4966
322.4966
322.4966
322.4967
322.4967
322.4967
322.4968
322.4968
322.4969
322.4969
322.4969
322.497
322.497
322.497
322.497
322.4971
322.4971
322.4971
322.4971
)
;

boundaryField
{
    leftLet
    {
        type            zeroGradient;
    }
    rightLet
    {
        type            zeroGradient;
    }
    frontAndBack
    {
        type            empty;
    }
    wall_to_bottomAir
    {
        type            compressible::turbulentTemperatureCoupledBaffleMixed;
        refValue        nonuniform List<scalar> 
100
(
1199.442
1199.681
1199.759
1199.74
1199.733
1199.735
1199.736
1199.736
1199.736
1199.736
1199.737
1199.737
1199.737
1199.738
1199.738
1199.738
1199.738
1199.739
1199.739
1199.739
1199.739
1199.74
1199.74
1199.74
1199.74
1199.741
1199.741
1199.741
1199.741
1199.742
1199.742
1199.742
1199.742
1199.743
1199.743
1199.743
1199.743
1199.744
1199.744
1199.744
1199.744
1199.745
1199.745
1199.745
1199.745
1199.746
1199.746
1199.746
1199.746
1199.747
1199.747
1199.747
1199.747
1199.748
1199.748
1199.748
1199.748
1199.749
1199.749
1199.749
1199.749
1199.75
1199.75
1199.75
1199.75
1199.751
1199.751
1199.751
1199.751
1199.752
1199.752
1199.752
1199.752
1199.753
1199.753
1199.753
1199.753
1199.754
1199.754
1199.754
1199.754
1199.754
1199.755
1199.755
1199.755
1199.755
1199.756
1199.756
1199.756
1199.756
1199.757
1199.757
1199.757
1199.757
1199.757
1199.758
1199.758
1199.758
1199.758
1199.758
)
;
        refGradient     uniform 0;
        valueFraction   uniform 0.9988347;
        value           nonuniform List<scalar> 
100
(
1199.416
1199.655
1199.733
1199.714
1199.706
1199.709
1199.71
1199.71
1199.71
1199.71
1199.711
1199.711
1199.711
1199.711
1199.712
1199.712
1199.712
1199.712
1199.713
1199.713
1199.713
1199.713
1199.714
1199.714
1199.714
1199.714
1199.715
1199.715
1199.715
1199.715
1199.716
1199.716
1199.716
1199.716
1199.717
1199.717
1199.717
1199.717
1199.718
1199.718
1199.718
1199.718
1199.719
1199.719
1199.719
1199.719
1199.72
1199.72
1199.72
1199.72
1199.721
1199.721
1199.721
1199.721
1199.722
1199.722
1199.722
1199.722
1199.723
1199.723
1199.723
1199.723
1199.724
1199.724
1199.724
1199.724
1199.725
1199.725
1199.725
1199.725
1199.726
1199.726
1199.726
1199.726
1199.727
1199.727
1199.727
1199.727
1199.728
1199.728
1199.728
1199.728
1199.728
1199.729
1199.729
1199.729
1199.729
1199.73
1199.73
1199.73
1199.73
1199.731
1199.731
1199.731
1199.731
1199.731
1199.732
1199.732
1199.732
1199.732
)
;
        Tnbr            T;
        thicknessLayers 0();
        kappaLayers     0();
        kappa           solidThermo;
        kappaName       none;
    }
    wall_to_topAir
    {
        type            compressible::turbulentTemperatureCoupledBaffleMixed;
        refValue        nonuniform List<scalar> 
100
(
299.9365
299.9644
299.9735
299.9712
299.9704
299.9707
299.9708
299.9708
299.9708
299.9709
299.9709
299.971
299.971
299.971
299.9711
299.9711
299.9712
299.9712
299.9712
299.9713
299.9713
299.9714
299.9714
299.9714
299.9715
299.9715
299.9716
299.9716
299.9716
299.9717
299.9717
299.9718
299.9718
299.9718
299.9719
299.9719
299.972
299.972
299.972
299.9721
299.9721
299.9721
299.9722
299.9722
299.9723
299.9723
299.9723
299.9724
299.9724
299.9725
299.9725
299.9725
299.9726
299.9726
299.9727
299.9727
299.9727
299.9728
299.9728
299.9728
299.9729
299.9729
299.973
299.973
299.973
299.9731
299.9731
299.9732
299.9732
299.9732
299.9733
299.9733
299.9734
299.9734
299.9734
299.9735
299.9735
299.9735
299.9736
299.9736
299.9737
299.9737
299.9737
299.9738
299.9738
299.9738
299.9739
299.9739
299.974
299.974
299.974
299.9741
299.9741
299.9741
299.9742
299.9742
299.9742
299.9743
299.9743
299.9743
)
;
        refGradient     uniform 0;
        valueFraction   nonuniform List<scalar> 
100
(
0.9988347
0.9988347
0.9988347
0.9988347
0.9988347
0.9988347
0.9988347
0.9988347
0.9988347
0.9988347
0.9988347
0.9988347
0.9988347
0.9988347
0.9988347
0.9988347
0.9988347
0.9988347
0.9988347
0.9988347
0.9988347
0.9988347
0.9988347
0.9988347
0.9988347
0.9988347
0.9988347
0.9988347
0.9988347
0.9988347
0.9988347
0.9988347
0.9988347
0.9988347
0.9988347
0.9988347
0.9988347
0.9988347
0.9988347
0.9988347
0.9988347
0.9988347
0.9988347
0.9988347
0.9988347
0.9988347
0.9988347
0.9988347
0.9988347
0.9988347
0.9988347
0.9988347
0.9988347
0.9988347
0.9988347
0.9988347
0.9988347
0.9988347
0.9988347
0.9988347
0.9988347
0.9988347
0.9988347
0.9988347
0.9988347
0.9988347
0.9988347
0.9988347
0.9988347
0.9988347
0.9988347
0.9988347
0.9988347
0.9988347
0.9988347
0.9988347
0.9988347
0.9988347
0.9988347
0.9988347
0.9988347
0.9988347
0.9988347
0.9988347
0.9988347
0.9988347
0.9988347
0.9988347
0.9988347
0.9988347
0.9988347
0.9988347
0.9988347
0.9988347
0.9988347
0.9988347
0.9988347
0.9988347
0.9988347
0.9988347
)
;
        value           nonuniform List<scalar> 
100
(
299.9627
299.9907
299.9997
299.9975
299.9966
299.9969
299.9971
299.9971
299.9971
299.9971
299.9972
299.9972
299.9973
299.9973
299.9973
299.9974
299.9974
299.9975
299.9975
299.9975
299.9976
299.9976
299.9976
299.9977
299.9977
299.9978
299.9978
299.9978
299.9979
299.9979
299.998
299.998
299.998
299.9981
299.9981
299.9982
299.9982
299.9982
299.9983
299.9983
299.9984
299.9984
299.9984
299.9985
299.9985
299.9986
299.9986
299.9986
299.9987
299.9987
299.9987
299.9988
299.9988
299.9989
299.9989
299.9989
299.999
299.999
299.9991
299.9991
299.9991
299.9992
299.9992
299.9993
299.9993
299.9993
299.9994
299.9994
299.9994
299.9995
299.9995
299.9996
299.9996
299.9996
299.9997
299.9997
299.9997
299.9998
299.9998
299.9999
299.9999
299.9999
300
300
300.0001
300.0001
300.0001
300.0002
300.0002
300.0002
300.0003
300.0003
300.0004
300.0004
300.0004
300.0005
300.0005
300.0005
300.0006
300.0006
)
;
        Tnbr            T;
        thicknessLayers 0();
        kappaLayers     0();
        kappa           solidThermo;
        kappaName       none;
    }
}


// ************************************************************************* //
