/*--------------------------------*- C++ -*----------------------------------*\
| =========                 |                                                 |
| \\      /  F ield         | OpenFOAM: The Open Source CFD Toolbox           |
|  \\    /   O peration     | Version:  2.3.0                                 |
|   \\  /    A nd           | Web:      www.OpenFOAM.org                      |
|    \\/     M anipulation  |                                                 |
\*---------------------------------------------------------------------------*/
FoamFile
{
    version     2.0;
    format      ascii;
    class       surfaceScalarField;
    location    "10000/bottomAir";
    object      phi;
}
// * * * * * * * * * * * * * * * * * * * * * * * * * * * * * * * * * * * * * //

dimensions      [1 0 -1 0 0 0 0];

internalField   nonuniform List<scalar> 
7860
(
0.00567772
-1.203762e-06
0.005678066
-3.4506e-07
0.005678149
-8.261044e-08
0.005678254
-1.04207e-07
0.005678328
-7.315126e-08
0.005678372
-4.357278e-08
0.005678406
-3.387732e-08
0.005678435
-2.979423e-08
0.005678462
-2.704399e-08
0.005678488
-2.579178e-08
0.005678514
-2.558089e-08
0.00567854
-2.589247e-08
0.005678566
-2.650143e-08
0.005678593
-2.729641e-08
0.005678621
-2.819973e-08
0.00567865
-2.91586e-08
0.005678681
-3.01403e-08
0.005678712
-3.112304e-08
0.005678744
-3.209208e-08
0.005678777
-3.303746e-08
0.005678811
-3.395231e-08
0.005678845
-3.483226e-08
0.005678881
-3.567427e-08
0.005678917
-3.647678e-08
0.005678955
-3.723879e-08
0.005678992
-3.796021e-08
0.005679031
-3.864115e-08
0.00567907
-3.928234e-08
0.00567911
-3.98845e-08
0.005679151
-4.044875e-08
0.005679191
-4.097614e-08
0.005679233
-4.146799e-08
0.005679275
-4.192548e-08
0.005679317
-4.234993e-08
0.00567936
-4.274258e-08
0.005679403
-4.310469e-08
0.005679446
-4.343743e-08
0.00567949
-4.374193e-08
0.005679534
-4.40193e-08
0.005679578
-4.427049e-08
0.005679623
-4.449646e-08
0.005679667
-4.469801e-08
0.005679712
-4.487595e-08
0.005679757
-4.503088e-08
0.005679802
-4.516343e-08
0.005679848
-4.527401e-08
0.005679893
-4.536308e-08
0.005679938
-4.543086e-08
0.005679984
-4.547761e-08
0.005680029
-4.550335e-08
0.005680075
-4.550816e-08
0.00568012
-4.549185e-08
0.005680166
-4.545431e-08
0.005680211
-4.539515e-08
0.005680256
-4.531407e-08
0.005680302
-4.521046e-08
0.005680347
-4.508384e-08
0.005680392
-4.493339e-08
0.005680436
-4.475842e-08
0.005680481
-4.455793e-08
0.005680525
-4.433101e-08
0.005680569
-4.407646e-08
0.005680613
-4.379319e-08
0.005680656
-4.34798e-08
0.0056807
-4.313501e-08
0.005680742
-4.275723e-08
0.005680785
-4.234503e-08
0.005680827
-4.189664e-08
0.005680868
-4.141047e-08
0.005680909
-4.088465e-08
0.005680949
-4.031745e-08
0.005680989
-3.970691e-08
0.005681028
-3.905125e-08
0.005681066
-3.834848e-08
0.005681104
-3.759681e-08
0.005681141
-3.679431e-08
0.005681177
-3.593927e-08
0.005681212
-3.502988e-08
0.005681246
-3.406467e-08
0.005681279
-3.304208e-08
0.005681311
-3.196094e-08
0.005681341
-3.082009e-08
0.005681371
-2.961883e-08
0.005681399
-2.835653e-08
0.005681426
-2.70331e-08
0.005681452
-2.564862e-08
0.005681476
-2.420374e-08
0.005681499
-2.269937e-08
0.00568152
-2.113707e-08
0.00568154
-1.951871e-08
0.005681557
-1.784686e-08
0.005681574
-1.612452e-08
0.005681588
-1.435547e-08
0.0056816
-1.254416e-08
0.005681611
-1.069632e-08
0.00568162
-8.819545e-09
0.005681627
-6.924913e-09
0.005681632
-5.033988e-09
0.005681635
-3.176558e-09
-1.484648e-09
0.005676747
-6.50299e-07
0.005676748
-3.447963e-07
0.005676804
-1.388327e-07
0.005676815
-1.136301e-07
0.005676833
-9.160306e-08
0.005676858
-6.79122e-08
0.005676881
-5.713158e-08
0.005676905
-5.283515e-08
0.005676928
-5.071596e-08
0.005676953
-5.01573e-08
0.005676978
-5.073054e-08
0.005677004
-5.195995e-08
0.005677031
-5.357092e-08
0.005677059
-5.541352e-08
0.005677088
-5.738554e-08
0.005677118
-5.941656e-08
0.005677149
-6.145924e-08
0.005677182
-6.348139e-08
0.005677215
-6.546077e-08
0.005677249
-6.73819e-08
0.005677284
-6.923442e-08
0.00567732
-7.101131e-08
0.005677357
-7.270836e-08
0.005677395
-7.432304e-08
0.005677434
-7.585451e-08
0.005677473
-7.730276e-08
0.005677513
-7.866878e-08
0.005677554
-7.9954e-08
0.005677595
-8.11604e-08
0.005677637
-8.229017e-08
0.005677679
-8.334578e-08
0.005677722
-8.432976e-08
0.005677765
-8.524474e-08
0.005677809
-8.609335e-08
0.005677853
-8.687816e-08
0.005677897
-8.760171e-08
0.005677942
-8.82664e-08
0.005677987
-8.887457e-08
0.005678033
-8.942835e-08
0.005678078
-8.99298e-08
0.005678124
-9.038074e-08
0.00567817
-9.078291e-08
0.005678217
-9.113778e-08
0.005678263
-9.144674e-08
0.005678309
-9.171089e-08
0.005678356
-9.193124e-08
0.005678403
-9.210852e-08
0.00567845
-9.224336e-08
0.005678496
-9.23361e-08
0.005678543
-9.2387e-08
0.00567859
-9.239597e-08
0.005678637
-9.236291e-08
0.005678684
-9.228733e-08
0.005678731
-9.216872e-08
0.005678777
-9.20062e-08
0.005678824
-9.179886e-08
0.00567887
-9.154541e-08
0.005678917
-9.124455e-08
0.005678963
-9.089458e-08
0.005679009
-9.049379e-08
0.005679054
-9.004008e-08
0.0056791
-8.953135e-08
0.005679145
-8.89651e-08
0.00567919
-8.833883e-08
0.005679234
-8.764969e-08
0.005679278
-8.68948e-08
0.005679322
-8.607095e-08
0.005679365
-8.517494e-08
0.005679408
-8.420327e-08
0.00567945
-8.315247e-08
0.005679492
-8.201879e-08
0.005679533
-8.079859e-08
0.005679574
-7.948799e-08
0.005679613
-7.808327e-08
0.005679652
-7.658056e-08
0.00567969
-7.497624e-08
0.005679728
-7.32666e-08
0.005679764
-7.144829e-08
0.0056798
-6.951801e-08
0.005679834
-6.74729e-08
0.005679867
-6.531032e-08
0.0056799
-6.302819e-08
0.005679931
-6.062478e-08
0.00567996
-5.80991e-08
0.005679989
-5.545063e-08
0.005680016
-5.267977e-08
0.005680041
-4.978752e-08
0.005680065
-4.677595e-08
0.005680088
-4.364784e-08
0.005680109
-4.040718e-08
0.005680128
-3.705879e-08
0.005680146
-3.360875e-08
0.005680161
-3.006411e-08
0.005680175
-2.643326e-08
0.005680187
-2.272577e-08
0.005680197
-1.895273e-08
0.005680205
-1.512678e-08
0.005680212
-1.126268e-08
0.005680216
-7.376385e-09
-3.484688e-09
0.005677019
-3.580727e-07
0.005676914
-2.388947e-07
0.00567691
-1.348735e-07
0.005676913
-1.155964e-07
0.005676925
-1.029084e-07
0.005676945
-8.797929e-08
0.005676967
-7.954966e-08
0.005676991
-7.595943e-08
0.005677015
-7.460564e-08
0.005677039
-7.477942e-08
0.005677064
-7.610013e-08
0.005677091
-7.816572e-08
0.005677118
-8.069536e-08
0.005677146
-8.351116e-08
0.005677175
-8.64889e-08
0.005677205
-8.953925e-08
0.005677236
-9.259937e-08
0.005677268
-9.562496e-08
0.005677301
-9.858468e-08
0.005677335
-1.014566e-07
0.00567737
-1.042255e-07
0.005677406
-1.068812e-07
0.005677442
-1.094175e-07
0.00567748
-1.118308e-07
0.005677518
-1.141196e-07
0.005677557
-1.162841e-07
0.005677597
-1.183255e-07
0.005677637
-1.202462e-07
0.005677678
-1.220491e-07
0.005677719
-1.237374e-07
0.005677761
-1.253148e-07
0.005677803
-1.267852e-07
0.005677846
-1.281524e-07
0.00567789
-1.294204e-07
0.005677933
-1.305931e-07
0.005677977
-1.316742e-07
0.005678022
-1.326674e-07
0.005678066
-1.335761e-07
0.005678111
-1.344036e-07
0.005678157
-1.351529e-07
0.005678202
-1.358268e-07
0.005678248
-1.364278e-07
0.005678293
-1.369582e-07
0.005678339
-1.3742e-07
0.005678385
-1.378149e-07
0.005678432
-1.381443e-07
0.005678478
-1.384095e-07
0.005678524
-1.386113e-07
0.005678571
-1.387502e-07
0.005678617
-1.388266e-07
0.005678663
-1.388405e-07
0.00567871
-1.387914e-07
0.005678756
-1.38679e-07
0.005678803
-1.385022e-07
0.005678849
-1.382599e-07
0.005678895
-1.379505e-07
0.005678941
-1.375723e-07
0.005678987
-1.371232e-07
0.005679032
-1.366008e-07
0.005679078
-1.360022e-07
0.005679123
-1.353247e-07
0.005679168
-1.345648e-07
0.005679213
-1.337189e-07
0.005679257
-1.327831e-07
0.005679302
-1.317533e-07
0.005679345
-1.306251e-07
0.005679389
-1.293936e-07
0.005679431
-1.280541e-07
0.005679474
-1.266012e-07
0.005679516
-1.250297e-07
0.005679557
-1.233341e-07
0.005679598
-1.215086e-07
0.005679638
-1.195476e-07
0.005679677
-1.174454e-07
0.005679716
-1.151961e-07
0.005679754
-1.127942e-07
0.00567979
-1.102341e-07
0.005679827
-1.075107e-07
0.005679862
-1.046191e-07
0.005679896
-1.015546e-07
0.005679929
-9.831349e-08
0.005679961
-9.489234e-08
0.005679991
-9.12886e-08
0.005680021
-8.750056e-08
0.005680049
-8.35275e-08
0.005680075
-7.936977e-08
0.005680101
-7.502894e-08
0.005680124
-7.050788e-08
0.005680146
-6.581086e-08
0.005680167
-6.094362e-08
0.005680186
-5.591349e-08
0.005680203
-5.072936e-08
0.005680218
-4.54018e-08
0.005680232
-3.994307e-08
0.005680243
-3.436716e-08
0.005680253
-2.868977e-08
0.005680261
-2.292811e-08
0.005680267
-1.710046e-08
0.005680271
-1.12236e-08
-5.30722e-09
0.00567711
-2.006637e-07
0.005677047
-1.756165e-07
0.005677045
-1.31706e-07
0.005677049
-1.190283e-07
0.005677057
-1.108251e-07
0.005677071
-1.019393e-07
0.005677089
-9.669133e-08
0.005677108
-9.493097e-08
0.005677128
-9.520944e-08
0.00567715
-9.687225e-08
0.005677174
-9.955667e-08
0.005677198
-1.029281e-07
0.005677224
-1.067302e-07
0.005677252
-1.10787e-07
0.00567728
-1.149726e-07
0.00567731
-1.191955e-07
0.00567734
-1.233897e-07
0.005677372
-1.275079e-07
0.005677405
-1.315167e-07
0.005677439
-1.353922e-07
0.005677474
-1.391184e-07
0.005677509
-1.426846e-07
0.005677546
-1.460846e-07
0.005677583
-1.493152e-07
0.005677622
-1.523756e-07
0.005677661
-1.552671e-07
0.0056777
-1.57992e-07
0.00567774
-1.60554e-07
0.005677781
-1.629574e-07
0.005677823
-1.652069e-07
0.005677865
-1.673077e-07
0.005677907
-1.692652e-07
0.00567795
-1.710847e-07
0.005677993
-1.727717e-07
0.005678037
-1.743314e-07
0.005678081
-1.757691e-07
0.005678126
-1.770896e-07
0.00567817
-1.782975e-07
0.005678215
-1.793974e-07
0.00567826
-1.803932e-07
0.005678306
-1.812887e-07
0.005678351
-1.820874e-07
0.005678397
-1.827922e-07
0.005678443
-1.83406e-07
0.005678489
-1.839309e-07
0.005678536
-1.843689e-07
0.005678582
-1.847216e-07
0.005678628
-1.849901e-07
0.005678675
-1.851753e-07
0.005678721
-1.852775e-07
0.005678767
-1.852968e-07
0.005678814
-1.852327e-07
0.00567886
-1.850844e-07
0.005678907
-1.848508e-07
0.005678953
-1.845302e-07
0.005678999
-1.841207e-07
0.005679045
-1.836199e-07
0.005679091
-1.83025e-07
0.005679137
-1.823327e-07
0.005679182
-1.815396e-07
0.005679227
-1.806414e-07
0.005679273
-1.796339e-07
0.005679317
-1.785122e-07
0.005679362
-1.772712e-07
0.005679406
-1.759051e-07
0.00567945
-1.744082e-07
0.005679493
-1.72774e-07
0.005679536
-1.70996e-07
0.005679578
-1.690673e-07
0.00567962
-1.669806e-07
0.005679662
-1.647285e-07
0.005679703
-1.623035e-07
0.005679743
-1.596979e-07
0.005679782
-1.569038e-07
0.005679821
-1.539136e-07
0.005679859
-1.507196e-07
0.005679896
-1.473143e-07
0.005679932
-1.436907e-07
0.005679967
-1.398421e-07
0.005680001
-1.357623e-07
0.005680035
-1.314459e-07
0.005680067
-1.268884e-07
0.005680097
-1.22086e-07
0.005680127
-1.170364e-07
0.005680155
-1.117384e-07
0.005680182
-1.061923e-07
0.005680207
-1.004001e-07
0.005680231
-9.436542e-08
0.005680253
-8.809381e-08
0.005680274
-8.159285e-08
0.005680293
-7.487214e-08
0.00568031
-6.794345e-08
0.005680326
-6.082068e-08
0.005680339
-5.35199e-08
0.005680351
-4.605926e-08
0.005680361
-3.845888e-08
0.005680368
-3.074049e-08
0.005680374
-2.292744e-08
0.005680378
-1.504212e-08
-7.115098e-09
0.00567718
-1.306419e-07
0.005677138
-1.33312e-07
0.005677124
-1.169402e-07
0.005677119
-1.13673e-07
0.005677121
-1.123587e-07
0.00567713
-1.104466e-07
0.005677143
-1.10091e-07
0.00567716
-1.116382e-07
0.005677179
-1.14489e-07
0.005677201
-1.182615e-07
0.005677224
-1.227264e-07
0.005677249
-1.276689e-07
0.005677275
-1.32907e-07
0.005677302
-1.383031e-07
0.005677331
-1.437534e-07
0.005677361
-1.491789e-07
0.005677392
-1.545201e-07
0.005677424
-1.597333e-07
0.005677457
-1.647865e-07
0.005677492
-1.696571e-07
0.005677527
-1.743295e-07
0.005677563
-1.787938e-07
0.0056776
-1.830443e-07
0.005677637
-1.870787e-07
0.005677676
-1.908974e-07
0.005677715
-1.945026e-07
0.005677755
-1.978982e-07
0.005677795
-2.010892e-07
0.005677836
-2.040812e-07
0.005677878
-2.068806e-07
0.00567792
-2.094941e-07
0.005677963
-2.119286e-07
0.005678006
-2.141909e-07
0.005678049
-2.16288e-07
0.005678093
-2.182265e-07
0.005678137
-2.200129e-07
0.005678182
-2.216535e-07
0.005678227
-2.231542e-07
0.005678272
-2.245204e-07
0.005678317
-2.257572e-07
0.005678363
-2.268695e-07
0.005678409
-2.278615e-07
0.005678454
-2.287369e-07
0.005678501
-2.294992e-07
0.005678547
-2.301512e-07
0.005678593
-2.306954e-07
0.005678639
-2.311338e-07
0.005678686
-2.314677e-07
0.005678732
-2.316982e-07
0.005678779
-2.318257e-07
0.005678825
-2.318503e-07
0.005678872
-2.317715e-07
0.005678918
-2.315883e-07
0.005678965
-2.312991e-07
0.005679011
-2.30902e-07
0.005679057
-2.303946e-07
0.005679104
-2.297738e-07
0.00567915
-2.290361e-07
0.005679195
-2.281775e-07
0.005679241
-2.271935e-07
0.005679286
-2.260791e-07
0.005679332
-2.248287e-07
0.005679377
-2.234363e-07
0.005679421
-2.218954e-07
0.005679465
-2.201989e-07
0.005679509
-2.183395e-07
0.005679553
-2.163092e-07
0.005679596
-2.140996e-07
0.005679639
-2.11702e-07
0.005679681
-2.091075e-07
0.005679722
-2.063065e-07
0.005679763
-2.032896e-07
0.005679804
-2.000469e-07
0.005679843
-1.965686e-07
0.005679882
-1.92845e-07
0.00567992
-1.888661e-07
0.005679958
-1.846227e-07
0.005679994
-1.801054e-07
0.00568003
-1.753059e-07
0.005680064
-1.70216e-07
0.005680097
-1.648289e-07
0.00568013
-1.591384e-07
0.005680161
-1.531397e-07
0.00568019
-1.468295e-07
0.005680219
-1.402062e-07
0.005680246
-1.332697e-07
0.005680272
-1.260223e-07
0.005680296
-1.184683e-07
0.005680318
-1.106145e-07
0.005680339
-1.024701e-07
0.005680358
-9.404705e-08
0.005680376
-8.535992e-08
0.005680391
-7.642601e-08
0.005680405
-6.726533e-08
0.005680417
-5.790045e-08
0.005680427
-4.835638e-08
0.005680435
-3.866006e-08
0.005680441
-2.884055e-08
0.005680444
-1.892567e-08
-8.955349e-09
0.005677186
-8.668928e-08
0.005677158
-1.051158e-07
0.005677149
-1.067291e-07
0.005677147
-1.117263e-07
0.005677152
-1.163139e-07
0.005677161
-1.197642e-07
0.005677175
-1.23501e-07
0.005677191
-1.280718e-07
0.00567721
-1.33362e-07
0.005677231
-1.392103e-07
0.005677254
-1.4549e-07
0.005677278
-1.520668e-07
0.005677304
-1.588119e-07
0.005677331
-1.656174e-07
0.00567736
-1.723966e-07
0.00567739
-1.790809e-07
0.005677421
-1.856171e-07
0.005677453
-1.919652e-07
0.005677486
-1.980957e-07
0.00567752
-2.039876e-07
0.005677556
-2.09627e-07
0.005677592
-2.150052e-07
0.005677629
-2.201182e-07
0.005677667
-2.249651e-07
0.005677705
-2.295479e-07
0.005677744
-2.338705e-07
0.005677784
-2.379385e-07
0.005677825
-2.417585e-07
0.005677866
-2.453382e-07
0.005677908
-2.486857e-07
0.00567795
-2.518092e-07
0.005677993
-2.547175e-07
0.005678036
-2.574192e-07
0.00567808
-2.599226e-07
0.005678124
-2.62236e-07
0.005678168
-2.643674e-07
0.005678213
-2.663243e-07
0.005678258
-2.681139e-07
0.005678303
-2.69743e-07
0.005678348
-2.712176e-07
0.005678394
-2.725437e-07
0.00567844
-2.737262e-07
0.005678486
-2.747698e-07
0.005678532
-2.756786e-07
0.005678578
-2.764562e-07
0.005678625
-2.771053e-07
0.005678671
-2.776284e-07
0.005678718
-2.780273e-07
0.005678764
-2.78303e-07
0.005678811
-2.784563e-07
0.005678857
-2.784871e-07
0.005678904
-2.783949e-07
0.005678951
-2.781784e-07
0.005678997
-2.778359e-07
0.005679044
-2.77365e-07
0.00567909
-2.767628e-07
0.005679136
-2.760256e-07
0.005679182
-2.751493e-07
0.005679228
-2.74129e-07
0.005679274
-2.729594e-07
0.00567932
-2.716343e-07
0.005679365
-2.701472e-07
0.00567941
-2.684907e-07
0.005679455
-2.666571e-07
0.005679499
-2.646378e-07
0.005679543
-2.624239e-07
0.005679587
-2.600058e-07
0.00567963
-2.573734e-07
0.005679673
-2.545163e-07
0.005679715
-2.514233e-07
0.005679757
-2.480831e-07
0.005679798
-2.444841e-07
0.005679839
-2.406143e-07
0.005679879
-2.364618e-07
0.005679918
-2.320145e-07
0.005679956
-2.272605e-07
0.005679994
-2.221881e-07
0.00568003
-2.167859e-07
0.005680066
-2.110435e-07
0.005680101
-2.049508e-07
0.005680135
-1.98499e-07
0.005680167
-1.916804e-07
0.005680198
-1.84489e-07
0.005680228
-1.769202e-07
0.005680257
-1.689715e-07
0.005680285
-1.606427e-07
0.00568031
-1.519359e-07
0.005680335
-1.428562e-07
0.005680358
-1.334111e-07
0.005680379
-1.236117e-07
0.005680398
-1.134721e-07
0.005680416
-1.030095e-07
0.005680432
-9.224484e-08
0.005680446
-8.120202e-08
0.005680458
-6.990824e-08
0.005680468
-5.839367e-08
0.005680476
-4.669094e-08
0.005680482
-3.48356e-08
0.005680486
-2.28621e-08
-1.082189e-08
0.005677195
-6.64965e-08
0.005677181
-9.01555e-08
0.005677174
-9.994175e-08
0.005677174
-1.102947e-07
0.005677177
-1.19529e-07
0.005677185
-1.274905e-07
0.005677197
-1.351271e-07
0.005677212
-1.429315e-07
0.00567723
-1.509758e-07
0.00567725
-1.592194e-07
0.005677272
-1.676062e-07
0.005677296
-1.760642e-07
0.005677321
-1.845139e-07
0.005677348
-1.92882e-07
0.005677377
-2.011063e-07
0.005677407
-2.091357e-07
0.005677438
-2.169293e-07
0.005677471
-2.244562e-07
0.005677504
-2.316936e-07
0.005677539
-2.386256e-07
0.005677574
-2.452425e-07
0.005677611
-2.515391e-07
0.005677648
-2.575142e-07
0.005677686
-2.631697e-07
0.005677725
-2.685103e-07
0.005677765
-2.735421e-07
0.005677805
-2.78273e-07
0.005677846
-2.82712e-07
0.005677888
-2.868686e-07
0.00567793
-2.907531e-07
0.005677972
-2.943758e-07
0.005678015
-2.977472e-07
0.005678059
-3.008776e-07
0.005678102
-3.037772e-07
0.005678147
-3.064559e-07
0.005678191
-3.089231e-07
0.005678236
-3.111878e-07
0.005678281
-3.132585e-07
0.005678326
-3.15143e-07
0.005678372
-3.168488e-07
0.005678418
-3.183825e-07
0.005678464
-3.197502e-07
0.00567851
-3.209573e-07
0.005678556
-3.220085e-07
0.005678603
-3.229081e-07
0.005678649
-3.236593e-07
0.005678696
-3.24265e-07
0.005678742
-3.247272e-07
0.005678789
-3.250473e-07
0.005678836
-3.25226e-07
0.005678883
-3.252634e-07
0.005678929
-3.251587e-07
0.005678976
-3.249106e-07
0.005679023
-3.24517e-07
0.005679069
-3.239751e-07
0.005679116
-3.232816e-07
0.005679162
-3.224321e-07
0.005679209
-3.214219e-07
0.005679255
-3.202453e-07
0.005679301
-3.188959e-07
0.005679346
-3.173667e-07
0.005679392
-3.1565e-07
0.005679437
-3.137372e-07
0.005679482
-3.116191e-07
0.005679527
-3.092859e-07
0.005679571
-3.06727e-07
0.005679615
-3.039311e-07
0.005679658
-3.008864e-07
0.005679701
-2.975804e-07
0.005679744
-2.940002e-07
0.005679786
-2.901323e-07
0.005679827
-2.859629e-07
0.005679868
-2.814779e-07
0.005679909
-2.76663e-07
0.005679948
-2.715038e-07
0.005679987
-2.65986e-07
0.005680025
-2.600956e-07
0.005680062
-2.53819e-07
0.005680098
-2.471432e-07
0.005680133
-2.400562e-07
0.005680167
-2.325472e-07
0.0056802
-2.246065e-07
0.005680232
-2.162264e-07
0.005680262
-2.074011e-07
0.005680291
-1.981271e-07
0.005680319
-1.884035e-07
0.005680345
-1.782322e-07
0.00568037
-1.676186e-07
0.005680393
-1.565713e-07
0.005680415
-1.451026e-07
0.005680434
-1.332287e-07
0.005680452
-1.2097e-07
0.005680468
-1.083504e-07
0.005680483
-9.539827e-08
0.005680495
-8.214556e-08
0.005680505
-6.862788e-08
0.005680513
-5.488391e-08
0.005680519
-4.095584e-08
0.005680523
-2.688473e-08
-1.273139e-08
0.005677188
-5.359664e-08
0.005677179
-8.097242e-08
0.005677176
-9.633721e-08
0.005677178
-1.109297e-07
0.005677183
-1.242924e-07
0.005677192
-1.362594e-07
0.005677204
-1.474514e-07
0.00567722
-1.583138e-07
0.005677238
-1.690125e-07
0.005677258
-1.795901e-07
0.00567728
-1.900511e-07
0.005677305
-2.003748e-07
0.005677331
-2.10523e-07
0.005677358
-2.204526e-07
0.005677387
-2.301232e-07
0.005677417
-2.394991e-07
0.005677449
-2.485514e-07
0.005677482
-2.572572e-07
0.005677516
-2.656003e-07
0.00567755
-2.7357e-07
0.005677586
-2.811603e-07
0.005677623
-2.883699e-07
0.005677661
-2.952007e-07
0.005677699
-3.016575e-07
0.005677738
-3.077475e-07
0.005677778
-3.134795e-07
0.005677819
-3.18864e-07
0.00567786
-3.23912e-07
0.005677902
-3.286357e-07
0.005677944
-3.330472e-07
0.005677987
-3.37159e-07
0.00567803
-3.409837e-07
0.005678073
-3.445333e-07
0.005678117
-3.478199e-07
0.005678162
-3.50855e-07
0.005678206
-3.536496e-07
0.005678251
-3.562141e-07
0.005678297
-3.585584e-07
0.005678342
-3.606916e-07
0.005678388
-3.626221e-07
0.005678434
-3.643577e-07
0.00567848
-3.659054e-07
0.005678526
-3.672715e-07
0.005678573
-3.684613e-07
0.005678619
-3.694796e-07
0.005678666
-3.703303e-07
0.005678713
-3.710167e-07
0.00567876
-3.715409e-07
0.005678806
-3.719048e-07
0.005678853
-3.72109e-07
0.0056789
-3.721536e-07
0.005678947
-3.720379e-07
0.005678994
-3.717603e-07
0.005679041
-3.713184e-07
0.005679087
-3.707091e-07
0.005679134
-3.699285e-07
0.00567918
-3.689717e-07
0.005679227
-3.678332e-07
0.005679273
-3.665066e-07
0.005679319
-3.649846e-07
0.005679365
-3.632592e-07
0.005679411
-3.613214e-07
0.005679456
-3.591616e-07
0.005679501
-3.567691e-07
0.005679546
-3.541327e-07
0.005679591
-3.5124e-07
0.005679635
-3.480783e-07
0.005679678
-3.446338e-07
0.005679722
-3.408921e-07
0.005679765
-3.368383e-07
0.005679807
-3.324567e-07
0.005679849
-3.277312e-07
0.00567989
-3.226455e-07
0.00567993
-3.171827e-07
0.00567997
-3.11326e-07
0.005680009
-3.050586e-07
0.005680047
-2.98364e-07
0.005680085
-2.91226e-07
0.005680121
-2.836292e-07
0.005680157
-2.755591e-07
0.005680191
-2.670024e-07
0.005680225
-2.579476e-07
0.005680257
-2.483849e-07
0.005680288
-2.383069e-07
0.005680317
-2.277087e-07
0.005680345
-2.165884e-07
0.005680372
-2.049478e-07
0.005680397
-1.927919e-07
0.005680421
-1.801303e-07
0.005680443
-1.669765e-07
0.005680463
-1.533487e-07
0.005680481
-1.392699e-07
0.005680498
-1.247679e-07
0.005680512
-1.09875e-07
0.005680525
-9.462847e-08
0.005680535
-7.906967e-08
0.005680543
-6.324387e-08
0.00568055
-4.720079e-08
0.005680554
-3.0989e-08
-1.468154e-08
0.005677182
-4.791782e-08
0.005677179
-7.739659e-08
0.005677179
-9.604274e-08
0.005677183
-1.137177e-07
0.005677189
-1.30355e-07
0.005677199
-1.456145e-07
0.005677211
-1.598927e-07
0.005677227
-1.73572e-07
0.005677245
-1.86832e-07
0.005677265
-1.997393e-07
0.005677287
-2.123223e-07
0.005677311
-2.245851e-07
0.005677337
-2.365132e-07
0.005677365
-2.480834e-07
0.005677394
-2.592714e-07
0.005677424
-2.700552e-07
0.005677456
-2.804162e-07
0.005677489
-2.903407e-07
0.005677523
-2.998197e-07
0.005677558
-3.088487e-07
0.005677595
-3.174272e-07
0.005677632
-3.255584e-07
0.00567767
-3.332486e-07
0.005677708
-3.405063e-07
0.005677748
-3.473422e-07
0.005677788
-3.537686e-07
0.005677829
-3.597988e-07
0.005677871
-3.654468e-07
0.005677913
-3.707274e-07
0.005677955
-3.756552e-07
0.005677998
-3.802452e-07
0.005678042
-3.845119e-07
0.005678086
-3.884697e-07
0.00567813
-3.921326e-07
0.005678175
-3.955136e-07
0.00567822
-3.986256e-07
0.005678265
-4.014806e-07
0.00567831
-4.040897e-07
0.005678356
-4.064633e-07
0.005678402
-4.086112e-07
0.005678448
-4.10542e-07
0.005678494
-4.122637e-07
0.005678541
-4.137834e-07
0.005678588
-4.151073e-07
0.005678634
-4.162406e-07
0.005678681
-4.171879e-07
0.005678728
-4.179526e-07
0.005678775
-4.185375e-07
0.005678822
-4.189444e-07
0.005678869
-4.191742e-07
0.005678916
-4.19227e-07
0.005678963
-4.191018e-07
0.00567901
-4.187971e-07
0.005679057
-4.183101e-07
0.005679104
-4.176374e-07
0.005679151
-4.167744e-07
0.005679198
-4.157159e-07
0.005679244
-4.144555e-07
0.005679291
-4.129861e-07
0.005679337
-4.112996e-07
0.005679383
-4.093867e-07
0.005679429
-4.072376e-07
0.005679475
-4.048411e-07
0.00567952
-4.021855e-07
0.005679565
-3.992578e-07
0.00567961
-3.960442e-07
0.005679654
-3.925301e-07
0.005679699
-3.887e-07
0.005679742
-3.845374e-07
0.005679785
-3.800252e-07
0.005679828
-3.751456e-07
0.00567987
-3.698802e-07
0.005679912
-3.642101e-07
0.005679953
-3.581159e-07
0.005679993
-3.515782e-07
0.005680032
-3.445775e-07
0.005680071
-3.370943e-07
0.005680109
-3.291099e-07
0.005680146
-3.20606e-07
0.005680182
-3.115655e-07
0.005680217
-3.019724e-07
0.005680251
-2.918127e-07
0.005680283
-2.810743e-07
0.005680315
-2.697479e-07
0.005680345
-2.578267e-07
0.005680374
-2.453079e-07
0.005680401
-2.32192e-07
0.005680427
-2.184842e-07
0.005680451
-2.041941e-07
0.005680473
-1.893365e-07
0.005680494
-1.739316e-07
0.005680512
-1.580048e-07
0.005680529
-1.415876e-07
0.005680544
-1.247168e-07
0.005680557
-1.074348e-07
0.005680568
-8.978928e-08
0.005680576
-7.183245e-08
0.005680583
-5.362177e-08
0.005680587
-3.521352e-08
-1.669163e-08
0.005677171
-4.484675e-08
0.005677171
-7.64887e-08
0.005677173
-9.779969e-08
0.005677178
-1.180615e-07
0.005677186
-1.376118e-07
0.005677197
-1.558816e-07
0.00567721
-1.730557e-07
0.005677226
-1.89447e-07
0.005677244
-2.05217e-07
0.005677265
-2.204322e-07
0.005677288
-2.351316e-07
0.005677312
-2.493356e-07
0.005677339
-2.630477e-07
0.005677367
-2.762613e-07
0.005677397
-2.889672e-07
0.005677428
-3.011559e-07
0.00567746
-3.128197e-07
0.005677493
-3.23954e-07
0.005677528
-3.345574e-07
0.005677564
-3.446321e-07
0.005677601
-3.541834e-07
0.005677638
-3.632196e-07
0.005677677
-3.717515e-07
0.005677716
-3.797918e-07
0.005677756
-3.87355e-07
0.005677796
-3.944568e-07
0.005677838
-4.011138e-07
0.00567788
-4.073431e-07
0.005677922
-4.131622e-07
0.005677965
-4.185885e-07
0.005678008
-4.236394e-07
0.005678052
-4.283316e-07
0.005678096
-4.326818e-07
0.005678141
-4.367058e-07
0.005678186
-4.404186e-07
0.005678231
-4.438347e-07
0.005678276
-4.469676e-07
0.005678322
-4.4983e-07
0.005678368
-4.524335e-07
0.005678414
-4.54789e-07
0.00567846
-4.569063e-07
0.005678507
-4.587942e-07
0.005678553
-4.604607e-07
0.0056786
-4.619127e-07
0.005678647
-4.63156e-07
0.005678694
-4.641957e-07
0.005678741
-4.650357e-07
0.005678788
-4.65679e-07
0.005678835
-4.661277e-07
0.005678883
-4.663827e-07
0.00567893
-4.664441e-07
0.005678977
-4.663111e-07
0.005679024
-4.659817e-07
0.005679071
-4.65453e-07
0.005679118
-4.647211e-07
0.005679165
-4.637811e-07
0.005679212
-4.62627e-07
0.005679259
-4.61252e-07
0.005679306
-4.59648e-07
0.005679352
-4.578059e-07
0.005679399
-4.557158e-07
0.005679445
-4.533663e-07
0.005679491
-4.507453e-07
0.005679536
-4.478395e-07
0.005679582
-4.446345e-07
0.005679627
-4.411149e-07
0.005679671
-4.372642e-07
0.005679716
-4.33065e-07
0.00567976
-4.284988e-07
0.005679803
-4.235464e-07
0.005679846
-4.181876e-07
0.005679889
-4.124015e-07
0.005679931
-4.061665e-07
0.005679972
-3.994608e-07
0.005680013
-3.922618e-07
0.005680053
-3.845473e-07
0.005680092
-3.762949e-07
0.00568013
-3.674825e-07
0.005680168
-3.58089e-07
0.005680204
-3.480942e-07
0.00568024
-3.374791e-07
0.005680274
-3.262268e-07
0.005680307
-3.143225e-07
0.005680339
-3.017544e-07
0.00568037
-2.885138e-07
0.005680399
-2.745958e-07
0.005680427
-2.600001e-07
0.005680453
-2.447309e-07
0.005680478
-2.287981e-07
0.005680501
-2.122172e-07
0.005680522
-1.950099e-07
0.005680541
-1.772045e-07
0.005680558
-1.588359e-07
0.005680574
-1.399455e-07
0.005680587
-1.205813e-07
0.005680598
-1.007978e-07
0.005680606
-8.065475e-08
0.005680613
-6.021843e-08
0.005680617
-3.955396e-08
-1.875947e-08
0.00567716
-4.433657e-08
0.005677163
-7.805326e-08
0.005677167
-1.015674e-07
0.005677174
-1.241293e-07
0.005677183
-1.462832e-07
0.005677194
-1.672485e-07
0.005677209
-1.870567e-07
0.005677225
-2.059677e-07
0.005677244
-2.241175e-07
0.005677265
-2.4156e-07
0.005677288
-2.583324e-07
0.005677313
-2.744607e-07
0.00567734
-2.899568e-07
0.005677369
-3.048239e-07
0.005677399
-3.190622e-07
0.00567743
-3.326715e-07
0.005677463
-3.456525e-07
0.005677497
-3.580083e-07
0.005677532
-3.697446e-07
0.005677568
-3.8087e-07
0.005677605
-3.913956e-07
0.005677644
-4.013351e-07
0.005677682
-4.107041e-07
0.005677722
-4.195201e-07
0.005677763
-4.278017e-07
0.005677804
-4.355684e-07
0.005677845
-4.428406e-07
0.005677888
-4.496387e-07
0.00567793
-4.559833e-07
0.005677974
-4.618947e-07
0.005678017
-4.67393e-07
0.005678061
-4.724975e-07
0.005678106
-4.77227e-07
0.005678151
-4.815995e-07
0.005678196
-4.856321e-07
0.005678241
-4.893408e-07
0.005678287
-4.927409e-07
0.005678333
-4.958465e-07
0.005678379
-4.986707e-07
0.005678426
-5.012253e-07
0.005678472
-5.035215e-07
0.005678519
-5.055689e-07
0.005678566
-5.073763e-07
0.005678613
-5.089513e-07
0.00567866
-5.103006e-07
0.005678707
-5.114295e-07
0.005678755
-5.123424e-07
0.005678802
-5.130427e-07
0.005678849
-5.135325e-07
0.005678897
-5.138131e-07
0.005678944
-5.138846e-07
0.005678992
-5.137459e-07
0.005679039
-5.133949e-07
0.005679086
-5.128286e-07
0.005679134
-5.120426e-07
0.005679181
-5.110315e-07
0.005679228
-5.097889e-07
0.005679275
-5.083072e-07
0.005679322
-5.065775e-07
0.005679369
-5.0459e-07
0.005679415
-5.023336e-07
0.005679462
-4.997958e-07
0.005679508
-4.969634e-07
0.005679554
-4.938215e-07
0.0056796
-4.903543e-07
0.005679645
-4.865447e-07
0.00567969
-4.823745e-07
0.005679735
-4.778242e-07
0.005679779
-4.728734e-07
0.005679823
-4.675005e-07
0.005679867
-4.616828e-07
0.00567991
-4.553969e-07
0.005679952
-4.486186e-07
0.005679994
-4.41323e-07
0.005680035
-4.334846e-07
0.005680076
-4.25078e-07
0.005680116
-4.160775e-07
0.005680154
-4.064579e-07
0.005680193
-3.961943e-07
0.00568023
-3.852632e-07
0.005680266
-3.736424e-07
0.005680301
-3.613114e-07
0.005680335
-3.482524e-07
0.005680368
-3.344505e-07
0.005680399
-3.198944e-07
0.005680429
-3.045771e-07
0.005680457
-2.884963e-07
0.005680484
-2.716554e-07
0.00568051
-2.540636e-07
0.005680533
-2.357369e-07
0.005680555
-2.166986e-07
0.005680575
-1.969793e-07
0.005680592
-1.766173e-07
0.005680608
-1.556589e-07
0.005680622
-1.341581e-07
0.005680633
-1.121763e-07
0.005680642
-8.978137e-08
0.005680649
-6.704899e-08
0.005680653
-4.405359e-08
-2.090664e-08
0.005677148
-4.49835e-08
0.005677151
-8.102849e-08
0.005677157
-1.066755e-07
0.005677165
-1.314184e-07
0.005677175
-1.560308e-07
0.005677188
-1.795527e-07
0.005677203
-2.018865e-07
0.00567722
-2.232449e-07
0.00567724
-2.437328e-07
0.005677261
-2.633825e-07
0.005677285
-2.82222e-07
0.005677311
-3.002763e-07
0.005677339
-3.175608e-07
0.005677368
-3.340851e-07
0.005677398
-3.498569e-07
0.005677431
-3.648842e-07
0.005677464
-3.791758e-07
0.005677499
-3.927427e-07
0.005677535
-4.055978e-07
0.005677571
-4.177566e-07
0.005677609
-4.292366e-07
0.005677648
-4.400575e-07
0.005677687
-4.502403e-07
0.005677728
-4.598074e-07
0.005677768
-4.687821e-07
0.00567781
-4.771883e-07
0.005677852
-4.850502e-07
0.005677895
-4.923919e-07
0.005677938
-4.992373e-07
0.005677982
-5.056099e-07
0.005678026
-5.115325e-07
0.00567807
-5.170271e-07
0.005678115
-5.221148e-07
0.00567816
-5.268159e-07
0.005678206
-5.311493e-07
0.005678252