/*--------------------------------*- C++ -*----------------------------------*\
| =========                 |                                                 |
| \\      /  F ield         | OpenFOAM: The Open Source CFD Toolbox           |
|  \\    /   O peration     | Version:  2.3.0                                 |
|   \\  /    A nd           | Web:      www.OpenFOAM.org                      |
|    \\/     M anipulation  |                                                 |
\*---------------------------------------------------------------------------*/
FoamFile
{
    version     2.0;
    format      ascii;
    class       volScalarField;
    location    "0.1";
    object      alphat;
}
// * * * * * * * * * * * * * * * * * * * * * * * * * * * * * * * * * * * * * //

dimensions      [1 -1 -1 0 0 0 0];

internalField   nonuniform List<scalar> 
26600
(
3.21062e-05
6.11232e-05
8.62738e-05
0.000106034
0.000121275
0.000132952
0.000142019
0.000149083
0.000154832
0.000159921
0.000165096
0.000170511
0.000176029
0.000181372
0.000186681
0.000192009
0.000197392
0.000202441
0.000207348
0.000211865
0.000216043
0.000220024
0.000223525
0.000226821
0.000229958
0.000232675
0.00023494
0.000236944
0.000238873
0.000240712
0.000242434
0.000244054
0.00024573
0.000247469
0.000249169
0.00025132
0.000253038
0.000255184
0.000256626
0.000264241
0.00028961
9.64956e-05
6.10813e-05
5.65212e-05
6.45309e-05
8.15823e-05
0.000113569
0.000168947
0.000267627
0.000419056
0.000581335
0.000697436
0.000779326
0.000842644
0.000880381
0.000896674
0.000898095
0.000879997
0.000860159
0.000838862
0.00081306
0.000792089
0.000760197
0.000731488
0.000700132
0.000677239
0.000652333
0.000621526
0.000604707
0.000587541
0.000566768
0.000546752
0.000529318
0.000508785
0.000493002
0.000472983
0.000459964
0.000437412
0.000432909
0.000411221
0.0011277
0.000958887
0.000854983
0.000965963
0.0011154
0.0013429
0.00173314
0.00212076
0.00243107
0.00265582
0.00278737
0.00281359
0.00278256
0.0027175
0.00261573
0.0024946
0.00235824
0.00221481
0.00209072
0.00196321
0.00184031
0.00174167
0.00161063
0.00153444
0.00146382
0.00140195
0.00133213
0.00126394
0.00120794
0.00113579
0.00107337
0.00100559
0.000947162
0.000889761
0.000840636
0.000792164
0.000745747
0.000703233
0.000675976
0.000585935
0.00106251
0.00116197
0.0015279
0.00184915
0.00251376
0.00314623
0.00368067
0.00397463
0.00414193
0.0042311
0.00422976
0.00412807
0.00399725
0.00382715
0.00361066
0.00338608
0.00316695
0.0029457
0.00276316
0.00250823
0.0023864
0.0022494
0.00209272
0.00195481
0.00181582
0.00168976
0.00154842
0.00144507
0.00133098
0.00121726
0.00114588
0.00106302
0.000980754
0.000900983
0.000837982
0.000753441
0.000697348
0.000661098
0.000619717
0.000554296
0.00101668
0.00122122
0.00181953
0.00231021
0.00343198
0.00406697
0.00448155
0.00466269
0.00475348
0.00473364
0.00461633
0.00445415
0.00427837
0.00405868
0.00376649
0.00353643
0.00320306
0.00298391
0.00281814
0.00254655
0.00234787
0.00215243
0.0019414
0.00173869
0.00163195
0.00150217
0.00131523
0.00121483
0.0010555
0.000938216
0.000832866
0.000706888
0.000626875
0.000550039
0.000481461
0.000422654
0.000375852
0.00034363
0.000306173
0.00035542
0.000831858
0.00141662
0.00194585
0.00260045
0.00389193
0.00444486
0.00474585
0.00484403
0.00478419
0.00464336
0.0044793
0.00424118
0.00401046
0.00371534
0.0033582
0.00312095
0.00288848
0.0025722
0.00228565
0.00209259
0.0018902
0.0016764
0.00140622
0.00124769
0.00108434
0.000947514
0.000803041
0.000672563
0.000568134
0.000474995
0.000391677
0.000292806
0.000269586
0.000237256
0.000207936
0.000192628
0.000180403
0.00017866
0.000171664
0.000190098
0.000845928
0.00153366
0.00195159
0.00302255
0.00411109
0.00454964
0.00475149
0.00468881
0.0045618
0.00431427
0.00399419
0.00364407
0.00339825
0.00298616
0.00280262
0.00244575
0.00217042
0.00190274
0.00154933
0.0013201
0.0011071
0.000904671
0.000746382
0.000625927
0.000519214
0.000439896
0.000356554
0.000279826
0.000236732
0.000199638
0.00017685
0.00016215
0.000152567
0.000159874
0.000172841
0.000200768
0.00022326
0.000253677
0.00027649
0.000289235
0.00094557
0.00137936
0.00228978
0.00366424
0.00422873
0.00451691
0.00452662
0.00444269
0.00413155
0.00368369
0.00324761
0.00284504
0.00261369
0.0022419
0.00195806
0.00160089
0.00125716
0.00101311
0.000787668
0.000630413
0.000491486
0.000370608
0.000294655
0.000225295
0.0001836
0.000169731
0.000154199
0.000138324
0.000143406
0.000161058
0.000182522
0.000208999
0.000230293
0.000259137
0.000297377
0.000329887
0.000349254
0.000382806
0.00040435
0.000432053
0.000851318
0.00171161
0.00338965
0.00411826
0.00432634
0.00432064
0.00428478
0.00395505
0.00343503
0.00289797
0.00244984
0.0020636
0.00176607
0.00133538
0.0010209
0.0007435
0.000561432
0.000413523
0.000294645
0.000207472
0.000147098
0.000122413
0.000105695
0.000106144
0.000117344
0.000135924
0.000159575
0.000179183
0.000209935
0.000237749
0.000260996
0.000290514
0.000322756
0.000360481
0.000397027
0.000416947
0.000438563
0.000455015
0.000482962
0.000505481
0.000961784
0.00301148
0.00431466
0.00446826
0.00426337
0.00412499
0.00376672
0.00323923
0.00259805
0.00217229
0.00159423
0.00123353
0.000730014
0.000528089
0.00036096
0.00023866
0.000161196
0.000113236
8.37895e-05
7.00808e-05
8.25577e-05
9.7354e-05
0.000115555
0.000142984
0.000165956
0.000186803
0.000213402
0.000240562
0.00026769
0.000292954
0.00031211
0.000328395
0.000344761
0.000359526
0.000375864
0.000388578
0.000404311
0.000419361
0.000442399
0.00045533
0.00145235
0.00426918
0.00473858
0.00445369
0.00412498
0.00361856
0.00304982
0.00233584
0.00183393
0.00137089
0.000678349
0.000388746
0.000204557
0.000127128
8.09916e-05
5.38894e-05
4.93957e-05
4.97125e-05
7.12977e-05
9.34795e-05
0.000116035
0.000131111
0.000162283
0.000178354
0.000196524
0.000200407
0.00020917
0.000197277
0.000196812
0.000207153
0.000222911
0.00023997
0.00025785
0.000276669
0.000298071
0.000317458
0.000337341
0.000356813
0.000368966
0.000383118
0.00310497
0.00451981
0.00448834
0.00426286
0.00360986
0.00294917
0.00208597
0.00152444
0.00088292
0.000395476
0.00015659
7.65313e-05
4.43614e-05
2.8584e-05
2.75023e-05
3.78285e-05
6.01329e-05
7.50087e-05
0.000104382
0.00011775
0.000126256
0.00013014
0.000124005
0.000116715
0.000118074
0.000130159
0.000157303
0.000189181
0.000219483
0.000250393
0.000284223
0.000311115
0.000338391
0.000362626
0.000384214
0.000402983
0.000419172
0.000431823
0.00042935
0.000430679
0.00343609
0.00384576
0.00409234
0.0035864
0.00291872
0.00198366
0.00125628
0.000460184
0.000151454
6.00576e-05
3.16359e-05
1.7806e-05
1.81069e-05
3.09918e-05
4.28203e-05
6.84308e-05
7.9176e-05
9.53647e-05
8.09788e-05
7.06891e-05
7.55786e-05
9.42272e-05
0.000126023
0.000167446
0.000213168
0.000257038
0.000305885
0.000353018
0.000398158
0.000436378
0.00046893
0.000495919
0.000515955
0.000533937
0.000549332
0.000562026
0.000571665
0.000576877
0.00057343
0.000570472
0.00277975
0.00322003
0.00315163
0.00266752
0.00189811
0.00100089
0.000240896
5.90825e-05
2.62892e-05
1.29073e-05
1.13392e-05
1.98394e-05
3.3741e-05
5.55409e-05
6.34049e-05
6.08186e-05
5.05672e-05
5.3442e-05
7.76467e-05
0.000120589
0.000170243
0.000219739
0.00026936
0.000328989
0.000400573
0.000466024
0.000523136
0.000569562
0.000602437
0.000628906
0.000649112
0.000665276
0.000679369
0.000691333
0.000701175
0.000708961
0.000714395
0.000716672
0.000717048
0.000724889
0.00202662
0.00218944
0.00195086
0.00147022
0.000734936
0.000147584
2.98153e-05
1.20029e-05
7.19702e-06
9.77251e-06
2.3721e-05
4.11031e-05
4.63721e-05
4.5693e-05
3.80667e-05
3.95534e-05
6.83208e-05
0.00011778
0.000174821
0.000242778
0.000341157
0.00044177
0.000522038
0.000576144
0.000615359
0.000650121
0.000682694
0.000711907
0.000736177
0.000756566
0.000772848
0.00078569
0.000795476
0.00080369
0.000811701
0.000818979
0.000824842
0.000830611
0.000836832
0.000849467
0.00135547
0.000961975
0.000677801
0.000303156
6.63975e-05
1.52865e-05
5.99109e-06
5.16953e-06
1.3941e-05
2.08814e-05
3.58896e-05
4.09171e-05
2.91976e-05
3.12759e-05
4.92169e-05
8.70439e-05
0.000138234
0.000240235
0.00038195
0.000482219
0.000553729
0.000603457
0.000638648
0.000673009
0.000705821
0.000736894
0.000765313
0.000790585
0.000812756
0.000831876
0.000847188
0.00086034
0.000871511
0.000881357
0.000890214
0.000899267
0.000908377
0.000919178
0.000925321
0.000941295
0.000523282
0.00014403
6.52895e-05
2.05612e-05
6.89651e-06
3.25074e-06
4.8457e-06
1.41751e-05
2.52927e-05
2.95831e-05
2.81608e-05
2.52027e-05
2.96753e-05
5.5897e-05
9.37886e-05
0.000166231
0.000325993
0.000460789
0.000544626
0.000609087
0.000651631
0.000684335
0.000712547
0.000741479
0.000770461
0.000798451
0.000823726
0.000845928
0.000866549
0.000884606
0.000900079
0.000913588
0.000925604
0.000936923
0.000948722
0.000961989
0.000969297
0.000979376
0.00098443
0.00100072
0.000105776
2.43711e-05
9.68915e-06
3.33709e-06
2.32241e-06
5.06034e-06
1.61679e-05
2.67448e-05
2.9792e-05
2.07988e-05
1.86861e-05
3.05223e-05
5.87957e-05
9.76582e-05
0.000195952
0.000394259
0.00050534
0.000594005
0.000650848
0.000690365
0.000719308
0.000743502
0.000766939
0.000794404
0.000821865
0.000847616
0.000870907
0.000891569
0.000910086
0.000926614
0.000941074
0.000954025
0.000966994
0.000980319
0.000991858
0.00100343
0.00100924
0.00102021
0.00102857
0.00107849
1.52711e-05
3.78845e-06
2.07127e-06
2.17373e-06
5.52999e-06
1.55982e-05
2.72001e-05
2.97586e-05
1.78233e-05
1.60842e-05
3.26297e-05
5.95533e-05
0.000101078
0.000221283
0.000433727
0.000542977
0.000631416
0.000691919
0.000716025
0.000744186
0.000767609
0.000789536
0.00081311
0.000841826
0.000867414
0.000889519
0.000909005
0.00092639
0.000942306
0.000957225
0.000971894
0.000985629
0.000998733
0.00101159
0.00102038
0.00102926
0.00103805
0.00107283
0.00111248
0.00116028
1.45314e-05
4.06592e-06
4.01432e-06
6.62681e-06
1.73214e-05
2.49697e-05
3.27948e-05
1.76923e-05
1.60306e-05
3.46102e-05
6.03953e-05
0.0001084
0.000246028
0.000466721
0.000568278
0.000660789
0.000719999
0.000748262
0.000757784
0.000787087
0.000813633
0.000832171
0.00085197
0.00088148
0.000902705
0.000919624
0.000936117
0.000951536
0.000966696
0.000982127
0.000996933
0.00100783
0.00101894
0.00102757
0.00103872
0.0010585
0.00110202
0.00114534
0.00118812
0.00123155
1.27591e-05
1.46045e-05
1.59055e-05
2.97937e-05
3.05602e-05
2.94118e-05
1.90693e-05
2.08806e-05
3.87669e-05
6.81055e-05
0.000127501
0.000270575
0.000487725
0.00058798
0.000677022
0.000741517
0.000783992
0.000784415
0.000790394
0.000825854
0.000851933
0.000863486
0.000881943
0.000910381
0.000927341
0.000941812
0.00095642
0.000971787
0.000985828
0.000999215
0.00100987
0.00101816
0.00102958
0.00103878
0.00108384
0.00112532
0.00116907
0.00121139
0.00125178
0.00129041
2.49691e-05
1.01871e-05
8.32619e-06
1.03603e-05
1.31793e-05
1.84576e-05
3.12497e-05
6.27066e-05
0.00010205
0.000190704
0.000324291
0.000501108
0.000597598
0.000691813
0.000763654
0.000805752
0.000821102
0.000802787
0.00083346
0.000849194
0.000870067
0.00088547
0.000910891
0.000930765
0.000944694
0.000958587
0.00097218
0.000984973
0.000994695
0.00100342
0.00101437
0.00102393
0.00106282
0.00110001
0.0011442
0.00118715
0.00122881
0.00126819
0.00130491
0.00133877
0.00040443
9.28619e-05
3.84099e-05
3.36756e-05
4.2082e-05
6.92566e-05
0.00011369
0.000189271
0.000306788
0.000390603
0.000499299
0.000592521
0.000702458
0.000784597
0.000806335
0.000821639
0.00083818
0.000830421
0.000849777
0.000871001
0.000891061
0.000908362
0.000930608
0.000944989
0.000959221
0.000969256
0.000978634
0.00098743
0.000996017
0.00100568
0.00103836
0.00107566
0.00111779
0.00115897
0.00120099
0.00124151
0.00127983
0.0013153
0.00134753
0.00137638
0.00071614
0.00049094
0.000255972
0.000201374
0.000234785
0.000266646
0.000304075
0.000356408
0.000429288
0.000501161
0.0005836
0.00070463
0.00079189
0.000814059
0.000823961
0.000832039
0.00083662
0.000849126
0.000871802
0.000893474
0.00091029
0.000928297
0.000944105
0.000956125
0.000964988
0.000972293
0.000978742
0.000987315
0.00100503
0.00104623
0.00108783
0.00112922
0.0011708
0.00121104
0.00125005
0.00128698
0.00132133
0.00135249
0.00138014
0.00140419
0.000678449
0.000641077
0.000545191
0.000513513
0.000527581
0.000437758
0.000370882
0.000398708
0.000509312
0.000593121
0.000705533
0.000791276
0.000813923
0.000827039
0.000841974
0.000840641
0.000854642
0.000874235
0.000896515
0.000914988
0.000929062
0.000943831
0.000955046
0.000960563
0.000965076
0.000969793
0.000976768
0.00101388
0.00105236
0.00109478
0.00113696
0.001178
0.00121765
0.00125529
0.00129075
0.00132366
0.00135376
0.00138055
0.00140379
0.00142351
0.000705398
0.000619829
0.000466073
0.000468069
0.000514005
0.000445261
0.000412891
0.000498013
0.000603465
0.000693198
0.000774121
0.000812121
0.000831736
0.000856765
0.000863153
0.000867779
0.000889209
0.000906456
0.000922664
0.000936227
0.000947743
0.000954576
0.000957814
0.000959582
0.000962871
0.000976016
0.00101481
0.00105699
0.00109868
0.00114039
0.00118127
0.00122039
0.00125733
0.00129168
0.00132331
0.00135214
0.00137795
0.00140048
0.0014197
0.00143579
0.000569109
0.000347545
0.000263461
0.000457207
0.000589438
0.000548103
0.000519716
0.000598027
0.000678366
0.00073774
0.000790952
0.000819221
0.000853744
0.000861233
0.000867703
0.000890035
0.000915455
0.000936947
0.000948727
0.000955907
0.000957885
0.000958024
0.000956557
0.000957816
0.000981629
0.0010172
0.00105851
0.00110035
0.00114131
0.00118115
0.00121969
0.00125603
0.00128968
0.00132051
0.0013483
0.00137304
0.00139471
0.0014133
0.00142891
0.00144174
0.000472994
0.000206867
0.000360153
0.00062013
0.000675254
0.00059221
0.000576861
0.000643428
0.000701817
0.000752171
0.00079285
0.000842595
0.000866088
0.000875905
0.00089515
0.000922739
0.000944954
0.000959521
0.000966309
0.000967141
0.000963733
0.000958318
0.000955835
0.000980877
0.00101823
0.00105863
0.0010999
0.00114036
0.00117942
0.0012167
0.00125212
0.00128505
0.0013153
0.00134242
0.00136637
0.00138718
0.001405
0.00142002
0.00143246
0.00144194
0.000116762
0.000212993
0.000529198
0.000672034
0.000661963
0.000598438
0.000582531
0.000644422
0.00068239
0.000742538
0.000815884
0.000866846
0.00089242
0.000908979
0.00093599
0.000959133
0.000974187
0.000981186
0.000980982
0.000975261
0.000966289
0.000958846
0.000978786
0.00101587
0.00105633
0.00109753
0.00113747
0.00117591
0.00121245
0.00124666
0.00127858
0.00130817
0.00133477
0.0013582
0.00137842
0.00139555
0.00140986
0.0014217
0.00143146
0.00143792
9.73097e-05
0.000263024
0.000554562
0.000607467
0.00054953
0.000507827
0.000541358
0.000593163
0.000668077
0.000767277
0.000858471
0.000912381
0.000936301
0.000958009
0.000980106
0.000993973
0.00100077
0.00100012
0.000992397
0.000980659
0.000967758
0.000975222
0.00101142
0.00105171
0.00109275
0.00113291
0.00117081
0.00120673
0.00124019
0.00127104
0.00129976
0.00132583
0.00134888
0.00136877
0.00138548
0.0013992
0.00141034
0.00141946
0.00142669
0.00143105
0.000179221
0.000242245
0.000417973
0.000412937
0.000378596
0.000408874
0.00047176
0.000571013
0.000707911
0.000836852
0.000932683
0.000978177
0.000996336
0.00100965
0.00101899
0.00102436
0.00102357
0.00101535
0.00100101
0.000984379
0.000970865
0.0010047
0.00104495
0.00108583
0.00112627
0.00116444
0.00119987
0.00123284
0.0012629
0.00129062
0.0013161
0.00133878
0.00135849
0.00137508
0.00138854
0.00139915
0.00140743
0.00141405
0.00141881
0.00142165
0.000384082
0.000233069
0.000261742
0.000257591
0.000274229
0.000336204
0.000463769
0.000639462
0.000816028
0.000952291
0.00103149
0.00105416
0.00105398
0.0010518
0.00105158
0.00104967
0.00104235
0.00102681
0.00100681
0.000988099
0.000998556
0.00103609
0.00107692
0.00111722
0.00115632
0.00119204
0.00122475
0.00125444
0.0012812
0.00130601
0.0013283
0.00134785
0.00136448
0.00137806
0.00138857
0.00139633
0.00140163
0.0014055
0.00140879
0.00141016
0.000555283
0.000383365
0.000334032
0.000326902
0.000335146
0.000444243
0.000624409
0.000814307
0.000975582
0.00108412
0.00112961
0.00112217
0.00110035
0.0010857
0.00107777
0.00107013
0.0010568
0.00103532
0.0010117
0.000992453
0.00102552
0.0010656
0.00110615
0.00114534
0.00118263
0.00121571
0.00124556
0.001272
0.00129583
0.00131776
0.00133711
0.00135382
0.0013677
0.00137861
0.00138655
0.00139136
0.0013932
0.00139426
0.00139784
0.00140129
0.000568099
0.000529178
0.000507107
0.000525397
0.000544149
0.000689626
0.000855465
0.00100891
0.00113171
0.00120221
0.00121101
0.0011745
0.00113562
0.00111182
0.0010982
0.00108618
0.00106715
0.00104112
0.00101601
0.00101556
0.00105187
0.00109236
0.00113211
0.00116991
0.00120517
0.00123567
0.00126261
0.00128607
0.00130732
0.00132653
0.00134325
0.00135747
0.00136902
0.00137763
0.00138318
0.00138491
0.00138335
0.00137993
0.00138709
0.0013933
0.000561866
0.000564328
0.000597499
0.000689592
0.000738665
0.000931505
0.00106655
0.00117711
0.00125997
0.00129488
0.00127306
0.00121443
0.0011624
0.00113161
0.0011138
0.00109878
0.00107499
0.00104503
0.00101932
0.00103735
0.00107508
0.00111553
0.00115445
0.00119079
0.00122404
0.00125214
0.00127635
0.0012972
0.00131612
0.00133293
0.0013474
0.00135956
0.00136914
0.00137592
0.00137928
0.00137896
0.0013731
0.0013547
0.00137812
0.00138856
0.000554858
0.000565242
0.00062581
0.000772757
0.000864586
0.00110371
0.00122425
0.00130789
0.0013614
0.0013682
0.00132175
0.00124531
0.00118289
0.00114692
0.00112583
0.0011086
0.00108081
0.00104861
0.00102151
0.00105327
0.00109377
0.00113446
0.00117289
0.00120797
0.00123937
0.00126535
0.0012872
0.00130581
0.00132272
0.0013375
0.00135014
0.00136068
0.00136873
0.00137394
0.00137606
0.00137604
0.00137455
0.00137158
0.00138096
0.00138863
0.000551081
0.000562107
0.000631303
0.000794989
0.000936386
0.00121446
0.00133354
0.00140321
0.00143739
0.00142387
0.00135896
0.00126893
0.00119881
0.00115859
0.00113501
0.0011152
0.0010846
0.00105129
0.00102401
0.00106427
0.00110772
0.00114871
0.00118725
0.00122144
0.00125133
0.00127558
0.00129548
0.00131228
0.00132751
0.0013407
0.00135196
0.00136123
0.00136811
0.00137184
0.00137284
0.00137163
0.00137514
0.00137801
0.0013842
0.00138992
0.000549578
0.000559893
0.00062993
0.000791255
0.000973384
0.00128254
0.00140576
0.0014687
0.00149093
0.00146368
0.00138591
0.0012863
0.00121026
0.00116692
0.0011415
0.00111972
0.00108755
0.00105301
0.00102507
0.00107175
0.0011175
0.00115855
0.00119763
0.00123131
0.00126006
0.00128301
0.00130145
0.00131688
0.00133083
0.00134284
0.0013531
0.00136149
0.00136742
0.00137017
0.00136884
0.00135781
0.00137381
0.00138062
0.00138648
0.00139122
0.00054912
0.000558697
0.000627219
0.000780647
0.000991045
0.00132117
0.00144909
0.00150962
0.00152501
0.00148943
0.00140356
0.00129758
0.00121767
0.00117229
0.00114562
0.00112253
0.00108936
0.00105396
0.00102553
0.00107645
0.00112419
0.00116617
0.00120483
0.00123784
0.00126574
0.00128782
0.00130528
0.0013198
0.00133291
0.00134417
0.00135379
0.00136163
0.00136708
0.00136992
0.00137014
0.00136873
0.00137628
0.00138257
0.00138804
0.00139223
0.000549156
0.000558568
0.000626478
0.000776306
0.00100015
0.00133822
0.00146906
0.00152876
0.00154119
0.00150181
0.00141219
0.00130324
0.00122145
0.00117502
0.00114769
0.00112394
0.00109029
0.00105444
0.00102579
0.00107861
0.00112739
0.00117002
0.00120826
0.00124084
0.00126833
0.00129
0.00130701
0.00132112
0.00133386
0.00134479
0.00135412
0.00136173
0.00136704
0.00137007
0.00137119
0.00137213
0.00137778
0.00138365
0.00138889
0.00139283
0.000133764
0.000915395
0.00169471
0.00236926
0.00296904
0.00350908
0.0040001
0.00444675
0.00485363
0.0052248
0.00556398
0.00587423
0.00615911
0.00642123
0.00666308
0.00688677
0.00709464
0.00728813
0.00746871
0.00763759
0.00779577
0.00794412
0.00808317
0.00821372
0.00833604
0.00845045
0.00855723
0.00865644
0.00874824
0.00883263
0.00890963
0.00897922
0.00904133
0.0090959
0.00914286
0.00918215
0.00921368
0.0092374
0.00925324
0.00926087
0.000134183
0.000914269
0.00169562
0.00237151
0.00297276
0.00351422
0.00400545
0.00445181
0.00485865
0.00522954
0.0055682
0.00587842
0.0061628
0.00642469
0.00666644
0.00688988
0.0070977
0.0072911
0.00747167
0.00764055
0.00779878
0.00794715
0.00808637
0.00821697
0.00833939
0.00845389
0.00856077
0.00866007
0.00875196
0.00883645
0.00891355
0.00898322
0.00904541
0.00910005
0.00914707
0.00918641
0.00921798
0.00924173
0.0092576
0.00926517
0.000134686
0.000913256
0.00169839
0.00237838
0.00298235
0.00352517
0.00401704
0.00446361
0.00487015
0.00524038
0.00557859
0.00588837
0.00617222
0.00643371
0.00667514
0.00689852
0.00710609
0.00729947
0.00748
0.00764892
0.0078072
0.00795569
0.00809505
0.00822577
0.00834834
0.00846301
0.00857003
0.00866949
0.00876152
0.00884615
0.00892338
0.00899318
0.00905546
0.0091102
0.0091573
0.0091967
0.00922833
0.00925211
0.00926799
0.00927561
0.000135381
0.000916046
0.00170686
0.00239173
0.00299892
0.00354384
0.00403658
0.00448296
0.00488931
0.00525905
0.00559675
0.00590583
0.00618931
0.00645049
0.00669133
0.00691469
0.00712217
0.0073155
0.00749601
0.00766502
0.00782338
0.00797204
0.00811155
0.00824248
0.00836524
0.00848013
0.00858726
0.00868691
0.00877912
0.00886388
0.00894126
0.00901117
0.00907359
0.00912843
0.00917563
0.0092151
0.00924679
0.00927062
0.0092865
0.00929412
0.000136381
0.000922494
0.00172103
0.00241223
0.00302331
0.00357031
0.00406403
0.004511
0.00491706
0.00528635
0.00562351
0.00593197
0.00621517
0.0064759
0.00671655
0.00693981
0.00714722
0.00734058
0.00752108
0.00769026
0.00784887
0.00799766
0.00813738
0.00826847
0.00839147
0.00850648
0.00861383
0.00871364
0.00880599
0.00889093
0.00896842
0.00903846
0.00910098
0.00915592
0.0092032
0.00924274
0.00927447
0.00929833
0.00931424
0.00932186
0.000137483
0.000932018
0.00174041
0.00243896
0.00305442
0.00360429
0.00409931
0.00454691
0.00495293
0.00532204
0.00565882
0.00596702
0.00624991
0.00651045
0.00675101
0.00697422
0.00718161
0.00737502
0.0075558
0.00772511
0.00788389
0.00803292
0.00817284
0.00830419
0.00842733
0.00854255
0.00865006
0.00875003
0.00884252
0.00892759
0.00900521
0.00907534
0.00913794
0.00919295
0.00924029
0.00927988
0.00931165
0.00933552
0.00935144
0.00935906
0.000138718
0.00094346
0.00176385
0.00247065
0.00309145
0.00364453
0.00414126
0.00458973
0.00499609
0.00536529
0.00570203
0.00601011
0.0062929
0.00655337
0.00679411
0.00701739
0.00722491
0.0074185
0.00759951
0.00776908
0.0079281
0.00807736
0.00821752
0.0083491
0.00847241
0.00858778
0.00869547
0.00879558
0.00888819
0.00897335
0.00905105
0.00912125
0.00918395
0.00923902
0.00928637
0.00932599
0.0093578
0.00938169
0.0093976
0.00940522
0.000140073
0.000956327
0.0017901
0.00250622
0.00313308
0.00368956
0.00418859
0.00463835
0.00504529
0.00541511
0.00575185
0.00606009
0.00634311
0.00660381
0.00684475
0.00706823
0.0072761
0.00747
0.00765131
0.00782114
0.00798047
0.00812997
0.00827047
0.00840224
0.00852573
0.00864129
0.00874912
0.00884934
0.00894205
0.00902729
0.00910506
0.00917534
0.00923808
0.00929314
0.00934054
0.00938018
0.00941199
0.0094359
0.00945183
0.00945945
0.000141431
0.000970277
0.00181834
0.00254449
0.00317777
0.00373857
0.00424011
0.00469133
0.00509947
0.00546994
0.00580732
0.00611594
0.00639933
0.00666044
0.00690179
0.0071257
0.00733398
0.00752816
0.00770993
0.00788013
0.00803975
0.00818964
0.00833038
0.00846233
0.00858604
0.00870175
0.00880975
0.00891012
0.00900291
0.00908823
0.00916605
0.00923634
0.00929906
0.0093542
0.00940161
0.00944125
0.00947308
0.00949697
0.00951289
0.00952052
0.000142977
0.000984801
0.00184791
0.00258467
0.00322495
0.00379027
0.00429459
0.00474789
0.00515731
0.00552875
0.00586705
0.00617637
0.00646036
0.00672202
0.00696393
0.00718834
0.00739719
0.00759187
0.00777407
0.00794468
0.00810471
0.00825495
0.00839589
0.00852812
0.00865208
0.008768
0.00887609
0.00897654
0.00906947
0.00915485
0.0092327
0.00930302
0.00936576
0.00942087
0.00946831
0.00950795
0.00953973
0.00956365
0.00957957
0.0095872
0.000144482
0.000999843
0.00187837
0.00262619
0.00327367
0.00384378
0.00435148
0.00480698
0.00521795
0.00559067
0.00593001
0.00624027
0.00652501
0.00678742
0.00703006
0.00725512
0.00746449
0.00765986
0.00784247
0.00801357
0.00817409
0.00832463
0.00846586
0.00859841
0.00872249
0.00883859
0.00894689
0.00904744
0.00914043
0.00922586
0.00930377
0.00937415
0.00943692
0.00949203
0.00953944
0.00957908
0.00961088
0.00963477
0.00965069
0.0096583
0.000146159
0.00101515
0.00190938
0.00266837
0.00332347
0.0038987
0.00440992
0.00486777
0.0052807
0.00565487
0.00599543
0.00630675
0.00659248
0.00685576
0.00709916
0.00732506
0.00753503
0.00773109
0.00791427
0.00808588
0.00824681
0.00839769
0.0085393
0.00867206
0.0087964
0.00891269
0.00902106
0.0091218
0.00921489
0.00930034
0.0093783
0.0094487
0.00951145
0.0095666
0.00961399
0.00965362
0.00968541
0.00970929
0.0097252
0.00973282
0.000147759
0.00103053
0.00194058
0.00271109
0.00337382
0.00395434
0.00446929
0.00492989
0.0053449
0.00572063
0.0060626
0.00637511
0.00666193
0.00692616
0.00717051
0.00739716
0.00760796
0.00780461
0.00798848
0.00816066
0.00832194
0.00847322
0.00861516
0.00874817
0.00887279
0.00898928
0.00909779
0.00919856
0.00929173
0.00937733
0.00945531
0.0095257
0.0095885
0.0096436
0.009691
0.00973061
0.00976242
0.00978628
0.00980216
0.00980976
0.00014948
0.00104569
0.00197176
0.00275375
0.00342449
0.00401048
0.00452934
0.00499268
0.00540995
0.00578751
0.00613099
0.00644489
0.00673279
0.00699803
0.00724343
0.00747081
0.00768248
0.00787987
0.0080643
0.00823699
0.00839878
0.00855047
0.00869268
0.00882607
0.0089509
0.00906755
0.00917626
0.00927715
0.00937036
0.00945603
0.00953407
0.00960449
0.00966729
0.00972239
0.00976978
0.0098094
0.0098411
0.00986499
0.00988093
0.00988852
0.000151198
0.00106086
0.00200259
0.00279614
0.00347515
0.00406661
0.00458947
0.00505602
0.00547559
0.00585498
0.00620016
0.00651536
0.00680462
0.00707089
0.00731729
0.00754561
0.0077581
0.00795616
0.00814132
0.00831448
0.00847668
0.00862884
0.00877142
0.00890505
0.00903014
0.00914699
0.00925583
0.00935686
0.00945019
0.00953586
0.00961398
0.0096844
0.00974723
0.00980235
0.00984972
0.00988923
0.009921
0.00994487
0.00996072
0.00996834
0.000152956
0.00107589
0.002033
0.0028383
0.00352538
0.00412271
0.0046497
0.00511931
0.00554149
0.00592261
0.00626966
0.00658621
0.00687684
0.00714439
0.00739172
0.00762103
0.0078343
0.00803311
0.00821895
0.00839261
0.0085553
0.00870775
0.00885065
0.00898462
0.00911002
0.00922708
0.00933605
0.00943721
0.00953061
0.00961631
0.00969437
0.00976489
0.00982762
0.00988273
0.00993014
0.00996975
0.0100015
0.0100254
0.0100413
0.0100488
0.000154701
0.0010902
0.00206307
0.00287993
0.0035751
0.00417832
0.00470961
0.00518236
0.00560707
0.00599054
0.00633931
0.00665726
0.00694932
0.007218
0.00746637
0.00769662
0.00791068
0.00811034
0.00829662
0.00847085
0.00863402
0.00878692
0.00893026
0.00906444
0.00919002
0.00930724
0.00941643
0.00951763
0.00961113
0.00969693
0.00977508
0.00984553
0.00990838
0.00996348
0.0100109
0.0100505
0.0100822
0.0101061
0.0101219
0.0101295
0.000156416
0.00110474
0.00209257
0.00292078
0.0036242
0.00423352
0.00476882
0.00524521
0.00567247
0.00605806
0.00640856
0.00672829
0.00702164
0.00729154
0.00754092
0.0077721
0.00798697
0.0081874
0.00837424
0.00854906
0.00871266
0.008866
0.00900956
0.00914408
0.0092699
0.00938737
0.00949664
0.00959799
0.00969156
0.00977744
0.0098556
0.00992612
0.00998899
0.0100441
0.0100915
0.0101311
0.0101628
0.0101866
0.0102025
0.0102101
0.000158155
0.00111879
0.00212147
0.00296087
0.00367261
0.00428773
0.00482769
0.00530742
0.0057373
0.00612524
0.00647748
0.00679892
0.0070936
0.00736472
0.00761513
0.00784722
0.00806296
0.00826399
0.00845153
0.00862685
0.00879087
0.00894461
0.00908851
0.00922327
0.0093493
0.00946694
0.00957642
0.00967789
0.00977159
0.00985747
0.00993573
0.0100063
0.0100691
0.0101243
0.0101717
0.0102112
0.010243
0.0102668
0.0102827
0.0102903
0.000159891
0.00113237
0.0021495
0.00300001
0.00372019
0.00434143
0.00488557
0.00536889
0.00580154
0.00619175
0.00654587
0.00686892
0.00716491
0.0074373
0.00768874
0.00792173
0.00813839
0.00833995
0.00852804
0.00870381
0.00886837
0.00902249
0.00916673
0.00930185
0.00942806
0.00954581
0.00965554
0.00975711
0.00985083
0.00993684
0.0100151
0.0100857
0.0101486
0.0102038
0.0102512
0.0102908
0.0103225
0.0103463
0.0103622
0.0103698
0.000161595
0.00114572
0.002177
0.00303859
0.00376682
0.00439405
0.00494281
0.00542966
0.00586491
0.00625745
0.00661361
0.00693807
0.0072355
0.00750919
0.00776147
0.00799554
0.00821288
0.00841511
0.00860377
0.00878009
0.00894506
0.00909949
0.00924409
0.00937937
0.00950594
0.00962394
0.00973363
0.0098354
0.00992925
0.0100153
0.0100937
0.0101643
0.0102272
0.0102825
0.0103298
0.0103694
0.0104011
0.010425
0.0104408
0.0104484
0.000163299
0.00115878
0.00220374
0.00307621
0.00381257
0.00444551
0.00499914
0.00548936
0.00592763
0.0063222
0.00668031
0.00700636
0.00730525
0.0075799
0.00783338
0.00806832
0.00828635
0.00848925
0.00867849
0.00885532
0.00902072
0.00917558
0.00932038
0.00945597
0.00958259
0.00970077
0.00981071
0.0099127
0.0100066
0.0100928
0.0101712
0.0102418
0.0103048
0.0103599
0.0104075
0.010447
0.0104788
0.0105027
0.0105185
0.0105261
0.000165067
0.00117126
0.00222974
0.00311309
0.00385718
0.00449624
0.00505441
0.00554808
0.0059892
0.00638605
0.00674591
0.00707373
0.00737381
0.0076497
0.00790423
0.00814004
0.00835874
0.00856227
0.00875203
0.00892931
0.00909514
0.00925018
0.00939538
0.00953118
0.00965817
0.00977648
0.00988664
0.00998854
0.0100827
0.010169
0.0102474
0.0103182
0.0103812
0.0104364
0.0104838
0.0105235
0.0105552
0.010579
0.010595
0.0106025
0.000166628
0.00118349
0.00225517
0.00314868
0.00390082
0.00454597
0.00510853
0.00560577
0.00604969
0.00644874
0.00681053
0.00713996
0.0074413
0.00771834
0.00797387
0.00821057
0.00842984
0.00863388
0.00882421
0.00900198
0.0091681
0.00932364
0.00946909
0.00960514
0.00973226
0.00985082
0.00996101
0.0100632
0.0101573
0.0102437
0.0103223
0.0103931
0.0104562
0.0105115
0.0105589
0.0105986
0.0106304
0.0106542
0.01067
0.0106776
0.000168286
0.00119571
0.00227986
0.00318356
0.00394359
0.00459446
0.00516167
0.00566222
0.00610891
0.00651045
0.00687399
0.00720499
0.00750758
0.00778574
0.00804216
0.00827958
0.00849955
0.00870417
0.00889495
0.0090731
0.00923964
0.00939551
0.00954127
0.00967756
0.00980489
0.0099236
0.010034
0.0101363
0.0102307
0.0103171
0.0103958
0.0104667
0.0105297
0.010585
0.0106325
0.0106722
0.0107039
0.0107278
0.0107437