/*--------------------------------*- C++ -*----------------------------------*\
| =========                 |                                                 |
| \\      /  F ield         | OpenFOAM: The Open Source CFD Toolbox           |
|  \\    /   O peration     | Version:  2.3.0                                 |
|   \\  /    A nd           | Web:      www.OpenFOAM.org                      |
|    \\/     M anipulation  |                                                 |
\*---------------------------------------------------------------------------*/
FoamFile
{
    version     2.0;
    format      ascii;
    class       volScalarField;
    location    "0.1";
    object      CO2;
}
// * * * * * * * * * * * * * * * * * * * * * * * * * * * * * * * * * * * * * //

dimensions      [0 0 0 0 0 0 0];

internalField   nonuniform List<scalar> 
26600
(
6.74444e-16
2.8247e-13
9.60362e-12
1.52875e-10
1.50338e-09
1.39088e-08
8.47392e-08
3.29947e-07
1.03503e-06
2.74351e-06
6.57678e-06
1.42945e-05
2.94114e-05
5.36826e-05
8.70001e-05
0.000130126
0.000184113
0.000235125
0.000297395
0.00036704
0.000448794
0.00053617
0.00063328
0.000732831
0.000837914
0.000946591
0.00106887
0.00120516
0.00134232
0.00148187
0.00162928
0.00178244
0.00193944
0.0020942
0.00225362
0.00241226
0.00258838
0.00278682
0.00299315
0.0032837
9.86167e-14
6.15998e-12
1.60547e-10
2.3342e-09
2.07625e-08
1.68886e-07
8.6332e-07
2.82019e-06
7.42811e-06
1.60624e-05
3.45838e-05
6.91026e-05
0.000139809
0.000238976
0.000367421
0.000516012
0.000697968
0.000906671
0.00117009
0.001389
0.00173572
0.002002
0.00239472
0.00275918
0.00320457
0.00350398
0.00398278
0.00460874
0.00487682
0.00513835
0.00552429
0.00587795
0.00616155
0.00652662
0.00682962
0.00723657
0.00760642
0.00804466
0.00865787
0.00611726
1.76081e-12
8.78145e-11
1.95485e-09
2.4304e-08
1.89745e-07
9.98825e-07
3.62707e-06
1.09465e-05
2.8272e-05
6.71992e-05
0.000140177
0.000260208
0.000475721
0.000699392
0.00104397
0.00138008
0.00181648
0.00236832
0.00282393
0.00342592
0.00415595
0.00471684
0.00584274
0.0064209
0.00692902
0.00745828
0.00815062
0.00895009
0.00951869
0.0105595
0.0113736
0.0125447
0.0134584
0.0146148
0.0154557
0.0167064
0.0176514
0.0188666
0.0196564
0.0212036
9.6281e-12
5.32107e-10
1.09726e-08
1.19696e-07
7.96981e-07
3.63324e-06
1.2532e-05
3.45371e-05
8.27863e-05
0.000186606
0.00034864
0.000631893
0.00102882
0.00145002
0.00213461
0.00271878
0.00366075
0.00464461
0.00540751
0.00690634
0.00757961
0.00855334
0.00969726
0.0107774
0.0121504
0.0135842
0.0154789
0.0169533
0.0186597
0.020703
0.0218077
0.0233961
0.0248829
0.0268241
0.0282208
0.0312127
0.033125
0.0349599
0.0367312
0.038626
4.33287e-11
2.42739e-09
4.20165e-08
4.1617e-07
2.6631e-06
1.07923e-05
3.34972e-05
8.68768e-05
0.000200457
0.000435232
0.000772323
0.00135019
0.00200302
0.00278339
0.00405651
0.00505092
0.00702845
0.00839199
0.00927556
0.011027
0.0128141
0.0148592
0.0171709
0.0198133
0.0215037
0.0233002
0.0271498
0.0288649
0.0331362
0.0364894
0.0411639
0.046703
0.0519728
0.0570914
0.0622806
0.0682152
0.0736846
0.0780472
0.0850672
0.0744176
1.9174e-10
1.03471e-08
1.57488e-07
1.42713e-06
7.60411e-06
2.78547e-05
8.13312e-05
0.000202756
0.000458412
0.000952711
0.00163637
0.00272687
0.00373047
0.00526144
0.0075945
0.00927039
0.0110174
0.0136257
0.0168973
0.0190233
0.0219594
0.0248508
0.030322
0.0341446
0.0391323
0.0449115
0.0521026
0.0595167
0.0669442
0.0739746
0.0817996
0.0986724
0.101494
0.107667
0.113139
0.11925
0.125271
0.128909
0.140039
0.14517
9.2101e-10
4.31297e-08
6.06747e-07
4.49647e-06
2.00616e-05
6.72699e-05
0.00018667
0.000451795
0.00100977
0.00199848
0.00336595
0.00529701
0.00680918
0.0101825
0.0117156
0.0154717
0.0193587
0.0232561
0.0295598
0.0352982
0.0423685
0.0502874
0.0589472
0.0673021
0.0736838
0.0811704
0.0883839
0.100584
0.10963
0.116738
0.123342
0.1275
0.142734
0.141856
0.139528
0.136357
0.132971
0.130869
0.127433
0.130391
4.71554e-09
2.05616e-07
2.33339e-06
1.31e-05
5.01437e-05
0.000155493
0.000413352
0.000973419
0.00214394
0.00408823
0.00680698
0.0099831
0.0120737
0.0161917
0.0208102
0.028179
0.0373543
0.0467561
0.0571926
0.0645997
0.0750966
0.0835069
0.0965496
0.111323
0.115596
0.120808
0.124883
0.140958
0.139364
0.135639
0.13009
0.125206
0.121733
0.118915
0.11368
0.110678
0.108156
0.106293
0.102583
0.105112
2.53558e-08
9.84258e-07
7.77072e-06
3.47317e-05
0.000119651
0.000349399
0.000892619
0.00205295
0.00447663
0.00834396
0.011954
0.0160769
0.0205457
0.0301974
0.0410119
0.0540147
0.0685976
0.0782213
0.0925526
0.102853
0.114651
0.120093
0.138081
0.136979
0.133335
0.129799
0.123734
0.120537
0.111794
0.106229
0.10124
0.0966709
0.0898789
0.0844796
0.0801462
0.0764619
0.0738981
0.0715451
0.0698555
0.0698862
1.43189e-07
3.51203e-06
2.10561e-05
8.45887e-05
0.000275368
0.000768714
0.00190243
0.00434324
0.00945192
0.0129099
0.0207458
0.0274902
0.0447717
0.0581882
0.0691833
0.0886471
0.104698
0.115506
0.127419
0.135232
0.132002
0.124874
0.121534
0.113602
0.108013
0.10184
0.0941124
0.081367
0.0696964
0.0611155
0.0556672
0.0526654
0.0502406
0.0495672
0.0491233
0.0489904
0.0493065
0.0498979
0.0509377
0.0533026
5.51647e-07
9.09852e-06
4.9763e-05
0.000195059
0.00061807
0.00167762
0.00409445
0.00952327
0.0139841
0.0218802
0.0392274
0.0568092
0.0710856
0.0951077
0.110778
0.126529
0.132376
0.128925
0.12459
0.113056
0.104918
0.0977607
0.0847851
0.0716348
0.0583531
0.0499136
0.0413714
0.0381987
0.0361069
0.0339309
0.0326869
0.0328644
0.0333514
0.0343338
0.0355352
0.0370547
0.0390161
0.04139
0.0438086
0.047048
1.4003e-06
2.00261e-05
0.000112167
0.000439653
0.00138041
0.00371871
0.00918968
0.0144148
0.0257552
0.047172
0.0651354
0.0935356
0.111411
0.133842
0.1304
0.126354
0.115024
0.106452
0.0890614
0.0687247
0.051662
0.0443795
0.0352997
0.031622
0.0292519
0.0258976
0.0227184
0.0213192
0.0213252
0.0217925
0.0228232
0.024636
0.0267357
0.0291511
0.0318581
0.0349029
0.0383062
0.0420278
0.0461996
0.0508366
2.65511e-06
4.34475e-05
0.000253998
0.000997935
0.00315094
0.00866669
0.0139889
0.0291818
0.0552418
0.0794978
0.101354
0.132727
0.129056
0.123879
0.112084
0.0988308
0.0775
0.0542516
0.0359152
0.0313507
0.0272804
0.0221339
0.0176566
0.01527
0.0128769
0.012945
0.0135704
0.0148942
0.0168137
0.0191106
0.0217387
0.0246806
0.028022
0.0316979
0.0356848
0.0399889
0.0446192
0.0495991
0.0551041
0.0617474
4.70667e-06
0.000100397
0.000603036
0.00237322
0.00763985
0.0135045
0.0288932
0.0581371
0.0909471
0.112326
0.127379
0.124091
0.111912
0.0975642
0.0750196
0.0498313
0.0324098
0.0283726
0.0201108
0.0151737
0.0100407
0.00792019
0.00781092
0.00832562
0.00925365
0.0108299
0.0129172
0.0154393
0.0185455
0.0219884
0.0256844
0.0295953
0.0337471
0.0381684
0.0428926
0.0479433
0.0533463
0.0591809
0.0656104
0.0728819
8.12379e-06
0.000264519
0.00161725
0.00626566
0.0123433
0.0275916
0.0599089
0.09305
0.121139
0.122966
0.116106
0.101723
0.0825551
0.0543101
0.0325292
0.0262877
0.020374
0.0102435
0.00632045
0.00499099
0.00497813
0.00542293
0.00634271
0.0079578
0.0101881
0.0129936
0.0162342
0.0197914
0.0236443
0.027745
0.032061
0.0365799
0.0413198
0.0463115
0.0515926
0.0571854
0.0631289
0.0692653
0.075887
0.0834563
1.13647e-05
0.000906309
0.00540762
0.0104822
0.026372
0.0604213
0.0906757
0.131016
0.124935
0.108522
0.0883272
0.0604963
0.0396159
0.0247321
0.0201595
0.0102536
0.00545854
0.00358818
0.0031731
0.00347653
0.00419045
0.00560194
0.00788658
0.0107549
0.0140933
0.0178247
0.0218653
0.0261319
0.0305832
0.0352029
0.039995
0.0449736
0.0501625
0.0555741
0.0612505
0.0670741
0.0730266
0.0789173
0.0860222
0.0930775
9.49679e-06
0.00440993
0.0103488
0.0246522
0.0592373
0.0900279
0.128155
0.123423
0.104431
0.076327
0.0456542
0.0280995
0.0228299
0.0153784
0.00644236
0.00317016
0.0021798
0.00222009
0.00259979
0.00355376
0.0055218
0.00832586
0.0118104
0.0157493
0.0199998
0.024494
0.0291735
0.0339855
0.0389018
0.0439241
0.0490801
0.0543972
0.059904
0.0655704
0.0712009
0.0766486
0.0829696
0.08907
0.0961802
0.102369
5.11908e-05
0.00983461
0.0254154
0.0592854
0.0867052
0.125597
0.116085
0.0929058
0.0634398
0.0328008
0.0267479
0.018877
0.00805421
0.0034993
0.00177985
0.00138123
0.0015614
0.00200558
0.00324529
0.00559574
0.00882954
0.0128533
0.0175015
0.0223645
0.0273595
0.0324767
0.0376694
0.0429064
0.048177
0.0534958
0.0589106
0.0644546
0.0699787
0.0754393
0.0811169
0.0867502
0.0931416
0.0987771
0.104739
0.10044
7.637e-05
0.0339512
0.0625967
0.0872185
0.120004
0.110228
0.0803136
0.047853
0.0264285
0.0212014
0.0101313
0.00445201
0.00187492
0.000946246
0.000853036
0.00107708
0.00157762
0.00292359
0.00557055
0.00921287
0.0136239
0.0188649
0.0246191
0.0301554
0.0357159
0.0413492
0.0469525
0.0525152
0.0580438
0.0635501
0.0689625
0.0743949
0.0798455
0.0852579
0.091106
0.0967406
0.10219
0.100896
0.0974422
0.0924581
0.000113486
0.0561419
0.0772646
0.111385
0.0894784
0.0643964
0.0284181
0.0218239
0.0147633
0.00572327
0.00228126
0.000937178
0.000471082
0.00048042
0.000716035
0.00124584
0.00255769
0.00522139
0.0093803
0.0141559
0.0196197
0.0260703
0.0329068
0.0386608
0.0446635
0.0507947
0.056719
0.0625103
0.068085
0.0734131
0.0786518
0.0842687
0.0897551
0.0953963
0.100383
0.10241
0.0983378
0.0936729
0.0888414
0.083742
5.08476e-05
0.0152646
0.0165737
0.0175033
0.0170498
0.0143616
0.010847
0.00472805
0.00204687
0.000854515
0.00036832
0.000208046
0.000241473
0.00041769
0.000944797
0.00223745
0.00448332
0.00875766
0.0145944
0.0201023
0.0264267
0.0342344
0.0416793
0.047655
0.0541887
0.0606147
0.0666809
0.0722932
0.0777689
0.0831045
0.0885889
0.0941872
0.0990925
0.103965
0.0993944
0.0950196
0.0900837
0.0851164
0.0802223
0.0753864
6.92672e-06
0.00118085
0.00224243
0.00221345
0.00189756
0.00135094
0.000825217
0.000449347
0.000232713
0.000120651
8.04573e-05
0.000112384
0.000223546
0.000658228
0.00181144
0.00399726
0.00726778
0.0136275
0.0192972
0.0270916
0.0350206
0.0434114
0.0503605
0.0571818
0.0640218
0.070324
0.0761821
0.08178
0.0874649
0.0930278
0.0979914
0.102804
0.0997105
0.0964285
0.0914932
0.0864457
0.0814667
0.0766633
0.0720377
0.0675993
2.37725e-06
7.57003e-05
0.000211964
0.000211214
0.000191203
0.000146317
0.000104932
7.44839e-05
4.67693e-05
3.3765e-05
4.64771e-05
0.000117037
0.000391482
0.00125868
0.00343135
0.00649131
0.0108527
0.0183628
0.0264363
0.0351275
0.0438767
0.0524035
0.0595749
0.0667808
0.0732316
0.0796503
0.0857421
0.0915086
0.0968661
0.101709
0.100124
0.09686
0.092301
0.0877503
0.082876
0.0779509
0.0732032
0.0687155
0.0644748
0.0604776
8.12513e-07
8.03104e-06
2.56211e-05
3.09571e-05
3.13233e-05
2.94372e-05
2.4196e-05
1.84605e-05
1.45554e-05
2.0465e-05
5.03472e-05
0.000210335
0.000786041
0.00239471
0.00483292
0.0094286
0.0163471
0.0249483
0.0341562
0.0435714
0.0529153
0.0611799
0.0687232
0.0758351
0.082641
0.0890267
0.0950171
0.100147
0.102069
0.0979377
0.0933256
0.0886835
0.0838928
0.0792257
0.0745873
0.0699585
0.0655552
0.061448
0.0576201
0.0540544
2.52553e-07
1.30086e-06
4.08925e-06
7.02373e-06
8.49777e-06
8.12914e-06
6.96089e-06
5.91405e-06
8.43641e-06
2.26784e-05
0.000101751
0.000439829
0.00153921
0.00338682
0.00734279
0.0138059
0.0222574
0.0320652
0.0421336
0.0520564
0.0614573
0.0697172
0.0773967
0.0848914
0.0917311
0.0978165
0.102971
0.099514
0.095297
0.0903267
0.0852869
0.0804125
0.0756895
0.0711731
0.0668187
0.0625839
0.0585968
0.0548996
0.0514771
0.0483093
7.45149e-08
2.49957e-07
7.15421e-07
1.6999e-06
2.44682e-06
2.3395e-06
2.11561e-06
3.09332e-06
9.66427e-06
4.74388e-05
0.000217977
0.000885972
0.0022051
0.0051476
0.0107432
0.0186498
0.0282769
0.039099
0.0498957
0.060074
0.0693992
0.0781374
0.0861976
0.0935292
0.0997451
0.102423
0.0982346
0.0928053
0.0875596
0.0824149
0.0773651
0.0725844
0.0680638
0.0637978
0.0597604
0.0559293
0.0523565
0.0490548
0.0460069
0.0431903
2.03574e-08
4.78294e-08
1.18721e-07
3.77539e-07
6.53757e-07
6.76909e-07
9.90508e-07
3.69255e-06
1.83331e-05
0.000103962
0.000445607
0.00127694
0.0034914
0.00847718
0.0158685
0.0251329
0.0355442
0.046254
0.0572219
0.0677009
0.0775634
0.0864392
0.0944074
0.100912
0.100393
0.096161
0.0908225
0.0852213
0.0798961
0.0748763
0.0699652
0.0653977
0.0611443
0.0571743
0.0534672
0.0500102
0.0468134
0.0438688
0.0411513
0.0386322
6.08422e-09
1.15158e-08
2.66362e-08
9.67211e-08
1.79813e-07
2.86273e-07
9.83202e-07
5.43473e-06
4.22677e-05
0.000185352
0.000661831
0.00210587
0.00581495
0.0122902
0.0210507
0.0313826
0.042517
0.0538046
0.0649433
0.0755104
0.0853
0.0941037
0.101234
0.09996
0.0947855
0.0891199
0.0834123
0.0778633
0.0726541
0.0677958
0.0631827
0.0589083
0.0549518
0.0512885
0.047902
0.0447805
0.0419148
0.0392816
0.0368448
0.0345673
3.01373e-09
4.72645e-09
1.03293e-08
2.95285e-08
7.39078e-08
2.84661e-07
1.55454e-06
1.00648e-05
6.51862e-05
0.000303276
0.00112162
0.00351704
0.00851449
0.0161953
0.0260428
0.0372336
0.0490022
0.0607474
0.0720947
0.0827305
0.0924366
0.100504
0.100173
0.0945442
0.0883065
0.0822555
0.0764888
0.0710796
0.0660637
0.0614241
0.0571096
0.0531298
0.0494646
0.0460935
0.0430021
0.0401769
0.037599
0.0352321
0.0330247
0.0309352
8.2623e-10
1.79795e-09
4.65239e-09
1.36429e-08
6.19892e-08
5.40306e-07
2.96282e-06
1.99155e-05
0.000117308
0.000516802
0.00187079
0.00515233
0.011194
0.0198882
0.030632
0.0425677
0.0549088
0.067054
0.0786129
0.0892992
0.0986209
0.101271
0.0953422
0.0885569
0.0819957
0.0758944
0.0702046
0.0649774
0.0601844
0.0557867
0.0517448
0.0480376
0.0446409
0.0415349
0.0387052
0.0361386
0.0338108
0.0316706
0.02966
0.0277351
2.30963e-10
6.23186e-10
2.0164e-09
1.14061e-08
9.7177e-08
9.75845e-07
5.86511e-06
3.85536e-05
0.000201564
0.000849869
0.00268375
0.00673842
0.0136229
0.0231753
0.0347157
0.0473325
0.0602004
0.0727155
0.0844744
0.0950741
0.103477
0.097532
0.0900107
0.0828011
0.0761622
0.070117
0.0645925
0.0595723
0.0550059
0.0508458
0.0470515
0.0435897
0.0404323
0.0375586
0.0349562
0.0326144
0.0305096
0.0285938
0.0267683
0.0249757
7.02175e-11
2.07819e-10
1.35996e-09
2.00447e-08
2.51244e-07
1.75731e-06
1.10839e-05
6.58332e-05
0.000323116
0.00118648
0.00342763
0.008103
0.0156875
0.0259999
0.0382708
0.0515157
0.0648735
0.0777393
0.0897206
0.0997884
0.100451
0.0927925
0.0848539
0.0775347
0.0709369
0.065008
0.059665
0.0548484
0.0504967
0.0465572
0.0429846
0.0397393
0.0367899
0.034116
0.0317089
0.0295734
0.0277068
0.0260343
0.024376
0.0226778
4.80623e-11
2.83245e-10
3.63372e-09
5.06954e-08
5.3796e-07
3.10363e-06
1.85623e-05
0.000102143
0.000436937
0.00147463
0.00403746
0.00919731
0.0173797
0.0283705
0.041304
0.0551258
0.0689401
0.0821182
0.0941163
0.103459
0.0967405
0.0882564
0.0801718
0.0728637
0.0663588
0.0605702
0.0554017
0.0507739
0.0466179
0.0428763
0.0394984
0.0364401
0.0336681
0.0311638
0.0289382
0.0270209
0.0254274
0.0240445
0.0224383
0.0203846
7.93902e-11
7.35723e-10
9.66009e-09
9.88685e-08
9.26212e-07
4.94223e-06
2.77899e-05
0.000134724
0.000530869
0.00170107
0.00450948
0.010042
0.0187326
0.0303162
0.0438393
0.0581869
0.072432
0.0859342
0.0976097
0.101037
0.092936
0.0841786
0.076071
0.0688224
0.0624269
0.0567788
0.0517703
0.0473116
0.0433288
0.0397597
0.0365486
0.0336479
0.0310234
0.0286738
0.0266293
0.0249367
0.0236847
0.0227842
0.0208288
0.0183319
1.4218e-10
1.4493e-09
1.87203e-08
1.72978e-07
1.3095e-06
7.03895e-06
3.61608e-05
0.00016201
0.000604645
0.00187178
0.00486089
0.0106808
0.0197886
0.0318753
0.0459054
0.0606854
0.0752901
0.089147
0.10047
0.0983588
0.0895997
0.0806891
0.0725815
0.0654089
0.0591229
0.0536039
0.0487363
0.0444244
0.0405902
0.037167
0.0340944
0.031321
0.0288229
0.0266146
0.0247243
0.0232061
0.0223516
0.022914
0.0187388
0.0161425
2.1554e-10
2.18725e-09
2.7568e-08
2.4283e-07
1.6743e-06
8.903e-06
4.33202e-05
0.00018412
0.000661316
0.00199763
0.00511566
0.0111519
0.0205912
0.0330907
0.0475382
0.062656
0.077572
0.0916328
0.102795
0.0965484
0.0869454
0.077864
0.0697264
0.0626149
0.056424
0.0510156
0.0462668
0.0420778
0.0383666
0.0350623
0.0320998
0.0294268
0.0270352
0.0249343
0.0231398
0.0215955
0.0201311
0.0186858
0.0162242
0.0141401
2.81397e-10
2.7747e-09
3.43172e-08
2.99498e-07
2.00282e-06
1.04685e-05
4.91082e-05
0.000201291
0.0007035
0.00208794
0.00529523
0.0114888
0.0211809
0.0340047
0.0487892
0.0642333
0.0793859
0.0935384
0.104477
0.0951572
0.0849491
0.0757794
0.0675141
0.0604246
0.0543061
0.0489864
0.044333
0.0402419
0.0366279
0.0334155
0.0305336
0.0279434
0.0256304
0.0235986
0.0218786
0.0203812
0.0183644
0.0164009
0.0143706
0.0125968
3.31261e-10
3.17703e-09
3.87686e-08
3.40428e-07
2.25383e-06
1.16647e-05
5.34354e-05
0.00021378
0.00073326
0.00214985
0.00541648
0.0117187
0.021592
0.0346554
0.0496932
0.0653734
0.0806869
0.0949265
0.10576
0.0943265
0.0835899
0.0744684
0.0659276
0.0588169
0.0527473
0.0474933
0.0429113
0.038893
0.0353505
0.0322046
0.029382
0.0268527
0.0245909
0.0225946
0.0210958
0.0205564
0.0171766
0.01499
0.0131173
0.0115102
3.63586e-10
3.41894e-09
4.13929e-08
3.65994e-07
2.41915e-06
1.24549e-05
5.62646e-05
0.000221822
0.000752081
0.00218834
0.00549109
0.0118612
0.0218507
0.035071
0.0502782
0.0661102
0.0815382
0.095832
0.106593
0.0938386
0.0826213
0.0732015
0.0648176
0.0577606
0.0517312
0.0465213
0.0419863
0.0380157
0.0345192
0.0314143
0.0286327
0.0261409
0.023899
0.0218832
0.0201139
0.0185023
0.0161402
0.014104
0.0123422
0.0108227
3.77237e-10
3.51861e-09
4.24721e-08
3.7698e-07
2.49332e-06
1.28104e-05
5.75372e-05
0.000225419
0.000760438
0.00220534
0.00552405
0.0119245
0.0219663
0.0352576
0.0505431
0.0664428
0.081924
0.0962418
0.106959
0.0936292
0.0821757
0.0726037
0.0643074
0.0572823
0.0512724
0.0460827
0.041569
0.03762
0.0341443
0.0310575
0.0282949
0.025819
0.0235812
0.021538
0.0196535
0.017807
0.0156678
0.013713
0.0120022
0.0105181
2.84955e-197
1.14712e-196
2.62483e-196
4.90251e-196
8.22178e-196
1.29045e-195
1.9086e-195
2.71022e-195
3.72119e-195
4.96314e-195
6.45694e-195
8.22791e-195
1.02803e-194
1.26174e-194
1.52556e-194
1.81874e-194
2.13738e-194
2.48171e-194
2.84624e-194
3.22914e-194
3.62951e-194
4.03727e-194
4.45595e-194
4.87705e-194
5.29402e-194
5.7047e-194
6.10135e-194
6.47692e-194
6.83083e-194
7.1705e-194
7.47723e-194
7.75658e-194
8.01189e-194
8.23887e-194
8.42433e-194
8.58412e-194
8.70337e-194
8.78919e-194
8.84604e-194
8.86201e-194
3.19303e-197
1.2925e-196
2.94524e-196
5.5162e-196
9.24075e-196
1.44359e-195
2.13585e-195
3.03671e-195
4.16273e-195
5.55395e-195
7.22801e-195
9.19505e-195
1.1497e-194
1.41209e-194
1.70627e-194
2.03647e-194
2.39285e-194
2.77711e-194
3.18946e-194
3.62115e-194
4.06469e-194
4.52108e-194
4.985e-194
5.45877e-194
5.92422e-194
6.37356e-194
6.82364e-194
7.25394e-194
7.65082e-194
8.02352e-194
8.36514e-194
8.67061e-194
8.94793e-194
9.20465e-194
9.419e-194
9.57914e-194
9.71392e-194
9.80741e-194
9.87071e-194
9.90637e-194
3.92775e-197
1.59799e-196
3.62172e-196
6.76325e-196
1.13002e-195
1.76256e-195
2.60415e-195
3.69595e-195
5.06654e-195
6.75566e-195
8.78398e-195
1.11797e-194
1.39678e-194
1.71556e-194
2.07237e-194
2.47106e-194
2.90742e-194
3.37493e-194
3.87388e-194
4.39587e-194
4.93495e-194
5.49328e-194
6.05803e-194
6.62532e-194
7.18792e-194
7.74209e-194
8.26994e-194
8.78188e-194
9.26175e-194
9.7072e-194
1.01145e-193
1.04782e-193
1.08454e-193
1.1141e-193
1.14043e-193
1.16147e-193
1.17719e-193
1.18969e-193
1.19551e-193
1.19619e-193
5.04293e-197
2.08014e-196
4.69822e-196
8.72941e-196
1.45548e-195
2.26256e-195
3.33593e-195
4.73739e-195
6.48511e-195
8.65102e-195
1.12401e-194
1.43029e-194
1.7886e-194
2.19158e-194
2.65186e-194
3.16014e-194
3.71069e-194
4.30241e-194
4.94247e-194
5.60648e-194
6.29807e-194
7.00606e-194
7.7217e-194
8.44001e-194
9.14568e-194
9.84101e-194
1.052e-193
1.11623e-193
1.17468e-193
1.23318e-193
1.28449e-193
1.33436e-193
1.37642e-193
1.4136e-193
1.44491e-193
1.47254e-193
1.49159e-193
1.50451e-193
1.51408e-193
1.51926e-193
6.88198e-197
2.77561e-196
6.2552e-196
1.15635e-195
1.9228e-195
2.98566e-195
4.3956e-195
6.22107e-195
8.5111e-195
1.13481e-194
1.475e-194
1.87567e-194
2.34257e-194
2.87687e-194
3.4791e-194
4.13514e-194
4.85896e-194
5.64232e-194
6.46765e-194
7.33077e-194
8.20893e-194
9.14184e-194
1.00814e-193
1.10241e-193
1.19433e-193
1.28549e-193
1.37414e-193
1.45725e-193
1.53601e-193
1.60893e-193
1.67848e-193
1.73822e-193
1.79385e-193
1.84118e-193
1.88086e-193
1.91122e-193
1.94091e-193
1.96116e-193
1.97014e-193
1.97597e-193
9.33521e-197
3.75324e-196
8.42653e-196
1.55029e-195
2.57303e-195
3.98316e-195
5.85546e-195
8.27334e-195
1.13158e-194
1.50683e-194
1.95809e-194
2.49099e-194
3.10257e-194
3.81141e-194
4.60748e-194
5.48257e-194
6.44063e-194
7.47189e-194
8.55614e-194
9.70874e-194
1.09085e-193
1.20839e-193
1.33425e-193
1.45823e-193
1.58014e-193
1.69698e-193
1.81343e-193
1.92259e-193
2.02771e-193
2.11938e-193
2.20823e-193
2.28629e-193
2.36049e-193
2.42026e-193
2.46894e-193
2.51253e-193
2.54874e-193
2.57581e-193
2.59075e-193
2.59847e-193
1.28748e-196
5.12255e-196
1.13906e-195
2.09197e-195
3.46068e-195
5.34166e-195
7.8425e-195
1.10712e-194
1.51293e-194
2.01219e-194
2.61149e-194
3.3198e-194
4.14938e-194
5.07859e-194
6.13483e-194
7.29473e-194
8.58214e-194
9.9537e-194
1.14115e-193
1.29124e-193
1.4498e-193
1.60911e-193
1.77229e-193
1.935e-193
2.09452e-193
2.2551e-193
2.40336e-193
2.54724e-193
2.68765e-193
2.81418e-193
2.9311e-193
3.03942e-193
3.12156e-193
3.19672e-193
3.27388e-193
3.33281e-193
3.3673e-193
3.4013e-193
3.43003e-193
3.43936e-193
1.72558e-196
7.01262e-196
1.55322e-195
2.82498e-195
4.65458e-195
7.18009e-195
1.05185e-194
1.48246e-194
2.02445e-194
2.68856e-194
3.49407e-194
4.44314e-194
5.5356e-194
6.78626e-194
8.18768e-194
9.74972e-194
1.14428e-193
1.32622e-193
1.52008e-193
1.724e-193
1.9294e-193
2.14757e-193
2.35707e-193
2.57059e-193
2.78478e-193
2.98861e-193
3.1885e-193
3.37931e-193
3.56219e-193
3.73341e-193
3.88592e-193
4.01684e-193
4.12087e-193
4.24612e-193
4.33487e-193
4.40679e-193
4.46107e-193
4.5009e-193
4.52544e-193
4.53907e-193
2.53577e-196
9.5139e-196
2.10651e-195
3.82564e-195
6.27372e-195
9.63746e-195
1.40984e-194
1.98566e-194
2.70719e-194
3.5906e-194
4.65826e-194
5.922e-194
7.38058e-194
9.04187e-194
1.09245e-193
1.29767e-193
1.5239e-193
1.76767e-193
2.01991e-193
2.29078e-193
2.57005e-193
2.84881e-193
3.12739e-193
3.41384e-193
3.69894e-193
3.9708e-193
4.23061e-193
4.46912e-193
4.71456e-193
4.93231e-193
5.13668e-193
5.3229e-193
5.49512e-193
5.60592e-193
5.72521e-193
5.82226e-193
5.88384e-193
5.94931e-193
5.98316e-193
5.99545e-193
3.38092e-196
1.32738e-195
2.86416e-195
5.16655e-195
8.44025e-195
1.29174e-194
1.88835e-194
2.65407e-194
3.61685e-194
4.79745e-194
6.21754e-194
7.89229e-194
9.83096e-194
1.20472e-193
1.45394e-193
1.72925e-193
2.02488e-193
2.34996e-193
2.68668e-193
3.04274e-193
3.41175e-193
3.78297e-193
4.16116e-193
4.53918e-193
4.89761e-193
5.25066e-193
5.60561e-193
5.92994e-193
6.23088e-193
6.51489e-193
6.78506e-193
7.02754e-193
7.24186e-193
7.4279e-193
7.562e-193
7.68851e-193
7.79502e-193
7.8483e-193
7.89347e-193
7.90678e-193
4.92589e-196
1.807e-195
3.89001e-195
6.95793e-195
1.13212e-194
1.73276e-194
2.52271e-194
3.54236e-194
4.82405e-194
6.39608e-194
8.28593e-194
1.05112e-193
1.30978e-193
1.6027e-193
1.93037e-193
2.29685e-193
2.69624e-193
3.12041e-193
3.5771e-193
4.04358e-193
4.52655e-193
5.02253e-193
5.52171e-193
6.00155e-193
6.5117e-193
6.99029e-193
7.41101e-193
7.85896e-193
8.25446e-193
8.63365e-193
8.98185e-193
9.27458e-193
9.53502e-193
9.7732e-193
9.97541e-193
1.01229e-192
1.02596e-192
1.03501e-192
1.03941e-192
1.04232e-192
6.52281e-196
2.46361e-195
5.26116e-195
9.3776e-195
1.52236e-194
2.31575e-194
3.36683e-194
4.72064e-194
6.41566e-194
8.49583e-194
1.10061e-193
1.39549e-193
1.73785e-193
2.12657e-193
2.56564e-193
3.04116e-193
3.56687e-193
4.12584e-193
4.72375e-193
5.34346e-193
5.98646e-193
6.63837e-193
7.27765e-193
7.94194e-193
8.58942e-193
9.21208e-193
9.81928e-193
1.03394e-192
1.08515e-192
1.13806e-192
1.18171e-192
1.21925e-192
1.25597e-192
1.28341e-192
1.31078e-192
1.33036e-192
1.34608e-192
1.35887e-192
1.36543e-192
1.36771e-192
9.3947e-196
3.34026e-195
7.0996e-195
1.25713e-194
2.03448e-194
3.08933e-194
4.48424e-194
6.27678e-194
8.52185e-194
1.12844e-193
1.4588e-193
1.85053e-193
2.30224e-193
2.8202e-193
3.39411e-193
4.02556e-193
4.72515e-193
5.4672e-193
6.23341e-193
7.05029e-193
7.90413e-193
8.7551e-193
9.60452e-193
1.04959e-192
1.13176e-192
1.21234e-192
1.29264e-192
1.36912e-192
1.43586e-192
1.49525e-192
1.55397e-192
1.60754e-192
1.65103e-192
1.69152e-192
1.72569e-192
1.75302e-192
1.76824e-192
1.78513e-192
1.79645e-192
1.80111e-192
1.27541e-195
4.55158e-195
9.54836e-195
1.68219e-194
2.71745e-194
4.11976e-194
5.95814e-194
8.33261e-194
1.12945e-193
1.4937e-193
1.93085e-193
2.44579e-193
3.04482e-193
3.72588e-193
4.48401e-193
5.33055e-193
6.23892e-193
7.20893e-193
8.24787e-193
9.32152e-193
1.04108e-192
1.15348e-192
1.26923e-192
1.3793e-192
1.49092e-192
1.59911e-192
1.6981e-192
1.79544e-192
1.88719e-192
1.9645e-192
2.03677e-192
2.10553e-192
2.16165e-192
2.21621e-192
2.25776e-192
2.28975e-192
2.32874e-192
2.34296e-192
2.34238e-192
2.35362e-192
1.76221e-195
6.20182e-195
1.28663e-194
2.26372e-194
3.62201e-194
5.4754e-194
7.91416e-194
1.10364e-193
1.49395e-193
1.97485e-193
2.5491e-193
3.23021e-193
4.01345e-193
4.91719e-193
5.91788e-193
7.02893e-193
8.2148e-193
9.49224e-193
1.08498e-192
1.22701e-192
1.37299e-192
1.51848e-192
1.66366e-192
1.81306e-192
1.95691e-192
2.09549e-192
2.22942e-192
2.3509e-192
2.46772e-192
2.57458e-192
2.65959e-192
2.75325e-192
2.82275e-192
2.88584e-192
2.94203e-192
3.00536e-192
3.03668e-192
3.05901e-192
3.08175e-192
3.08536e-192
2.37543e-195
8.30053e-195
1.729e-194
3.01369e-194
4.81102e-194
7.26341e-194
1.0477e-193
1.46031e-193
1.97452e-193
2.61081e-193
3.36642e-193
4.26042e-193
5.29516e-193
6.47305e-193
7.78954e-193
9.23615e-193
1.07997e-192
1.24795e-192
1.42316e-192
1.60813e-192
1.79859e-192
1.99549e-192
2.19334e-192
2.37995e-192
2.55766e-192
2.73685e-192
2.91313e-192
3.07132e-192
3.22292e-192
3.36566e-192
3.49954e-192
3.59947e-192
3.71938e-192
3.8039e-192
3.86611e-192
3.91985e-192
3.96347e-192
3.98813e-192
4.00122e-192
4.01922e-192
3.30887e-195
1.13794e-194
2.31458e-194
4.01028e-194
6.40842e-194
9.61961e-194
1.38448e-193
1.92728e-193
2.60336e-193
3.43495e-193
4.42279e-193
5.59953e-193
6.95421e-193
8.50115e-193
1.02251e-192
1.21279e-192
1.41888e-192
1.63588e-192
1.87273e-192
2.11417e-192
2.3622e-192
2.61264e-192
2.85658e-192
3.11018e-192
3.35283e-192
3.58534e-192
3.80362e-192
4.02411e-192
4.21856e-192
4.3998e-192
4.56026e-192
4.71228e-192
4.83327e-192
4.94918e-192
5.03826e-192
5.09908e-192
5.15803e-192
5.19874e-192
5.22957e-192
5.23597e-192
4.52578e-195
1.51638e-194
3.09037e-194
5.3306e-194
8.46974e-194
1.26829e-193
1.82762e-193
2.53723e-193
3.42492e-193
4.5172e-193
5.81641e-193
7.35934e-193
9.13084e-193
1.11477e-192
1.34048e-192
1.58839e-192
1.85872e-192
2.14619e-192
2.44809e-192
2.76186e-192
3.08473e-192
3.41033e-192
3.74097e-192
4.06031e-192
4.3727e-192
4.6629e-192
4.96322e-192
5.24241e-192
5.49457e-192
5.72386e-192
5.9371e-192
6.12211e-192
6.27779e-192
6.4237e-192
6.54721e-192
6.63315e-192
6.70454e-192
6.75591e-192
6.7979e-192
6.80931e-192
6.13088e-195
2.03173e-194
4.09248e-194
7.07594e-194
1.12011e-193
1.67695e-193
2.40494e-193
3.33607e-193
4.49858e-193
5.92215e-193
7.626e-193
9.63167e-193
1.1942e-192
1.45785e-192
1.75225e-192
2.07556e-192
2.42855e-192
2.8048e-192
3.1913e-192
3.59801e-192
4.0283e-192
4.44697e-192
4.87546e-192
5.29759e-192
5.70227e-192
6.07509e-192
6.45509e-192
6.81383e-192
7.1341e-192
7.45008e-192
7.70446e-192
7.94716e-192
8.16452e-192
8.32379e-192
8.47987e-192
8.5945e-192
8.67708e-192
8.75706e-192
8.79039e-192
8.81406e-192
8.35458e-195
2.73294e-194
5.49047e-194
9.38183e-194
1.47594e-193
2.20354e-193
3.16008e-193
4.37407e-193
5.89283e-193
7.75203e-193
9.97816e-193
1.25814e-192
1.56147e-192
1.90358e-192
2.2873e-192
2.70989e-192
3.1669e-192
3.65675e-192
4.17487e-192
4.71268e-192
5.24972e-192
5.79741e-192
6.35699e-192
6.87316e-192
7.40909e-192
7.92886e-192
8.36352e-192
8.845e-192
9.27402e-192
9.65841e-192
1.00266e-191
1.03171e-191
1.05842e-191
1.08078e-191
1.0972e-191
1.10855e-191
1.12552e-191
1.13384e-191
1.13982e-191
1.13998e-191
1.13215e-194
3.64803e-194
7.25147e-194
1.23509e-193
1.94471e-193
2.88952e-193
4.13897e-193
5.72224e-193
7.70534e-193
1.01237e-192
1.30136e-192
1.64296e-192
2.03514e-192
2.4798e-192
2.98017e-192
3.52297e-192
4.11947e-192
4.75876e-192
5.4239e-192
6.10906e-192
6.81352e-192
7.53396e-192
8.24358e-192
8.95444e-192
9.59296e-192
1.02365e-191
1.08987e-191
1.14645e-191
1.20184e-191
1.25011e-191
1.29395e-191
1.32928e-191
1.36619e-191
1.39089e-191
1.41634e-191
1.44127e-191
1.45141e-191
1.461e-191
1.46814e-191
1.4698e-191
1.52496e-194
4.84282e-194
9.56506e-194
1.62941e-193
2.55118e-193
3.79507e-193
5.41109e-193
7.47516e-193
1.00449e-192
1.31995e-192
1.69531e-192
2.14047e-192
2.64831e-192
3.22906e-192
3.87787e-192
4.58757e-192
5.36603e-192
6.17474e-192
7.03026e-192
7.91883e-192
8.82463e-192
9.71763e-192
1.06599e-191
1.15605e-191
1.24813e-191
1.33093e-191
1.40915e-191
1.47623e-191
1.54867e-191
1.60958e-191
1.66702e-191
1.72386e-191
1.76376e-191
1.80258e-191
1.82427e-191
1.8498e-191
1.8645e-191
1.87257e-191
1.88598e-191
1.88628e-191
1.98568e-194
6.40822e-194
1.26399e-193
2.1275e-193
3.33682e-193
4.95642e-193
7.05211e-193
9.73978e-193
1.3078e-192
1.71794e-192
2.20666e-192
2.77963e-192
3.44363e-192
4.19261e-192
5.02735e-192
5.95586e-192
6.94427e-192
7.98851e-192
9.09991e-192
1.02464e-191
1.14061e-191
1.26429e-191
1.38242e-191
1.5001e-191
1.60834e-191
1.71889e-191
1.81363e-191
1.91892e-191
1.99479e-191
2.07434e-191
2.15115e-191
2.20758e-191
2.26578e-191
2.31232e-191
2.35387e-191
2.37457e-191
2.3992e-191
2.42176e-191
2.42e-191
2.43706e-191
2.77559e-194
8.50333e-194
1.65952e-193
2.79982e-193
4.36868e-193
6.44936e-193
9.19964e-193
1.26693e-192
1.69865e-192
2.22955e-192
2.86117e-192
3.60299e-192
4.46e-192
5.42691e-192
6.50525e-192
7.69494e-192
8.98112e-192
1.03595e-191
1.17799e-191
1.32336e-191
1.47815e-191
1.62789e-191
1.78113e-191
1.93246e-191
2.07685e-191
2.21374e-191
2.34779e-191
2.46665e-191
2.58238e-191
2.68612e-191
2.76877e-191
2.84801e-191
2.90612e-191
2.96741e-191
3.01839e-191
3.05329e-191
3.06653e-191
3.10297e-191
3.12678e-191
3.12475e-191
3.63118e-194
1.11449e-193
2.18337e-193
3.67126e-193
5.70073e-193
8.41989e-193
1.1942e-192
1.64435e-192
2.20332e-192
2.88584e-192
3.703e-192
4.66065e-192
5.76894e-192
7.02008e-192
8.42695e-192