/*--------------------------------*- C++ -*----------------------------------*\
| =========                 |                                                 |
| \\      /  F ield         | OpenFOAM: The Open Source CFD Toolbox           |
|  \\    /   O peration     | Version:  2.3.0                                 |
|   \\  /    A nd           | Web:      www.OpenFOAM.org                      |
|    \\/     M anipulation  |                                                 |
\*---------------------------------------------------------------------------*/
FoamFile
{
    version     2.0;
    format      ascii;
    class       volScalarField;
    location    "0.1";
    object      epsilon;
}
// * * * * * * * * * * * * * * * * * * * * * * * * * * * * * * * * * * * * * //

dimensions      [0 2 -3 0 0 0 0];

internalField   nonuniform List<scalar> 
26600
(
19.4397
123.909
321.342
550.218
760.127
924.56
1039.8
1109.32
1146.42
1166.13
1185.73
1208.56
1233.03
1254.06
1274.8
1297.53
1322.46
1341.41
1358.69
1368.76
1374.29
1376.53
1371.39
1363.45
1353.59
1337.01
1315.88
1293.67
1271.46
1249.12
1227
1205.49
1186.47
1168.98
1152.65
1143.95
1130.97
1128.07
1115.66
1197.73
0.548954
2.56874
6.76688
13.2719
21.577
30.5952
40.3308
51.6741
65.6588
84.1465
107.167
134.613
158.859
180.199
198.188
213.641
227.242
238.592
247.844
253.696
257.491
259.72
260.211
260.613
259.601
257.507
253.106
247.183
242.581
237.041
231.383
225.68
221.177
216.69
214.196
210.488
210.281
206.791
209.927
222.446
0.287526
0.629375
1.27881
2.59421
4.72039
7.8195
12.8608
20.6244
30.9986
43.1144
56.3606
68.8457
80.4211
91.0594
99.6196
107.013
112.291
116.598
120.189
122
123.528
124.221
123.676
123.713
123.077
122.257
119.799
117.298
114.639
111.261
108.001
104.854
101.875
99.4722
97.8516
96.2255
95.3026
95.5104
96.0688
92.411
0.227273
0.466181
0.914294
1.81713
3.55771
6.97393
12.5091
20.7313
30.9095
41.9207
52.5701
61.1269
68.6554
74.6241
78.978
82.3315
84.0077
86.0234
86.8631
87.0324
87.4821
87.5819
86.9746
85.7449
84.6595
83.6439
82.0267
81.0809
79.5481
78.1353
77.427
76.9658
75.8378
75.3218
74.7173
74.2442
74.6515
75.679
79.1871
77.4276
0.244072
0.566195
1.20827
2.39892
4.91851
9.96572
17.5267
27.6019
38.2502
48.409
56.3357
61.5244
66.2649
69.1626
70.9529
72.0852
72.337
73.1245
73.0782
72.3076
71.9692
71.1475
69.7782
69.2631
69.6481
69.7504
70.0142
70.5362
70.4511
70.9413
72.3006
72.9195
75.7562
76.9763
79.6923
83.0295
89.3319
94.985
108.518
90.2796
0.237074
0.636052
1.41907
3.11816
6.87182
13.97
23.7723
35.2205
45.4883
53.4518
58.1726
61.404
63.7344
64.5539
64.6851
65.1616
65.0104
64.2372
62.9907
62.6891
62.8523
63.2129
63.306
63.9532
65.501
67.515
71.0766
77.2268
82.5677
92.3391
101.791
118.719
134.062
153.021
177.271
205.414
250.738
287.493
341.576
207.81
0.252101
0.750208
1.83884
4.41707
10.0584
19.3657
30.8309
42.0572
49.5756
54.8972
57.1448
58.7874
59.1773
59.0219
58.6198
57.7695
57.5096
57.1712
57.0162
57.6532
59.3893
63.2218
67.6704
73.6642
85.1843
97.7737
121.527
149.56
181.781
233.82
312.764
384.054
449.98
559.505
678.868
849.405
975.103
1109.13
1187.35
1239.9
0.272236
0.936726
2.73291
6.87307
14.9953
26.0297
37.457
45.3259
50.273
52.6979
53.1124
53.2323
52.937
51.7579
49.9157
50.0498
51.3792
54.4372
57.9494
64.2532
76.0622
98.0298
116.67
149.91
205.535
275.322
381.637
494.734
687.157
931.91
1159.59
1323.75
1449.32
1616.21
1760.97
1868.82
1888.62
1926.02
1895.64
1952.39
0.296974
1.49009
4.76437
11.2438
21.3211
32.4687
40.5205
45.507
47.51
47.3519
46.8344
45.6409
43.4031
42.6316
43.7072
46.307
54.8139
68.5503
88.7182
126.996
195.914
281.57
369.245
557.622
794.502
1031.83
1294.97
1508.17
1690.51
1829.9
1884.47
1911.89
1938.49
1966.09
1949.91
1908.93
1816.42
1740.4
1584.56
1658.16
0.423971
2.85156
8.30149
16.708
27.0889
35.3038
40.4535
42.0504
41.8071
40.4601
37.5058
36.0112
36.4009
38.7515
44.9177
59.7055
94.3391
169.236
272.874
480.455
738.789
983.961
1193.8
1443.25
1615.62
1771.3
1821.53
1774.08
1652.28
1486.65
1332.05
1203.73
1097.92
1009.8
926.454
853.801
787.735
751.003
704.719
757.014
0.743281
5.03082
12.4426
21.336
29.3941
34.934
36.1209
35.6053
34.2216
31.1798
30.0997
31.8899
36.6138
50.5596
87.0307
167.976
355.492
591.613
914.725
1167.05
1357.15
1478.97
1469.12
1395.68
1216.41
966.707
698.702
517.627
413.885
356.605
321.869
300.646
285.597
274.327
264.103
255.567
249.471
249.337
249.286
272.396
1.28432
7.79163
16.2361
23.2336
28.763
30.0816
28.9346
26.6929
24.6712
25.9034
29.3017
41.069
73.4289
151.221
319.538
654.933
899.098
1107.26
1160.75
1046.96
786.017
529.728
363.732
254.284
190.285
148.226
118.189
98.587
87.5735
82.4952
81.084
81.5732
82.9471
84.7229
86.8039
89.1344
91.8593
95.4651
98.0841
106.287
1.81088
10.8199
18.0913
22.8802
24.3066
23.0645
19.8379
19.1907
20.8617
28.5593
52.7175
115.866
258.091
578.649
780.207
989.468
878.934
595.302
293.411
159.251
102.203
73.014
55.5268
45.0706
39.2227
36.4117
36.0064
36.4604
37.3412
38.8588
40.7533
42.6537
44.5819
46.5374
48.4948
50.4699
52.4726
54.5567
55.9439
58.8464
2.42782
12.6432
18.1587
19.3394
18.337
15.3404
15.594
17.5494
29.5483
71.2393
171.932
422.754
596.846
837.937
715.901
344.69
144.037
74.5302
42.767
30.4381
25.4458
23.6447
23.7644
24.1604
24.9426
26.3436
28.2709
30.1607
31.9046
33.6055
35.1756
36.5056
37.5822
38.578
39.5583
40.5455
41.527
42.4669
43.1603
44.4909
3.07793
12.4822
14.811
14.0617
11.726
12.2177
15.5277
31.8151
90.6984
249.513
438.323
676.083
593.279
291.514
114.463
48.9013
27.6286
20.8947
19.3356
19.4852
20.308
22.0033
23.9751
26.0863
28.1201
30.0233
31.7849
33.2331
34.3525
35.241
35.9188
36.4073
36.8078
37.1775
37.5123
37.8472
38.2014
38.5432
38.8771
39.6558
3.03946
7.9317
8.22444
8.23505
9.14789
14.3778
37.6207
108.887
345.452
481.737
489.821
305.802
115.544
47.2222
24.91
18.1325
16.6637
17.5532
20.0042
23.8975
27.5623
30.3386
32.3249
33.9328
35.2599
36.3364
37.1959
37.7456
37.9929
38.0409
37.9677
37.7712
37.5513
37.3755
37.2654
37.2037
37.1888
37.2065
37.325
37.7967
1.52114
3.99218
5.06411
6.79376
13.4007
42.2313
140.976
402.997
546.129
424.867
161.052
61.8094
28.0109
17.8702
15.3347
15.7607
18.5007
24.6393
30.7984
35.0722
37.812
39.5238
40.5606
41.2353
41.5988
41.6903
41.6097
41.3266
40.8066
40.1868
39.5234
38.8594
38.2572
37.7558
37.3648
37.0489
36.8089
36.6498
36.6295
36.8549
1.48461
3.99045
6.98048
14.2352
46.4756
174.215
470.16
571.884
385.299
115.9
41.4122
20.5134
14.6812
13.6691
15.2777
20.8105
30.5926
38.4274
43.3142
45.8372
47.0363
47.2447
47.0518
46.6434
45.9832
45.1422
44.2323
43.2499
42.2061
41.1649
40.1755
39.272
38.4807
37.8127
37.259
36.794
36.4197
36.1326
35.9836
36.0041
8.70497
13.9681
23.2798
54.1756
213.028
526.23
585.729
345.383
97.8222
33.0557
16.451
11.6757
12.0708
15.3165
24.1434
36.9449
46.8587
52.0702
54.2017
54.2782
53.6962
52.3493
50.9432
49.5753
48.0989
46.6039
45.1888
43.8159
42.4799
41.2179
40.055
39.02
38.1264
37.3725
36.7308
36.1606
35.6932
35.3291
35.0912
35.005
64.6607
64.1055
98.167
258.747
609.092
572.736
289.023
87.1668
29.3407
13.3282
9.49741
10.1547
14.7271
26.9283
43.1798
55.4232
61.4975
62.4484
61.2094
59.1724
56.9139
54.5688
52.4712
50.546
48.5778
46.6949
44.9499
43.3183
41.8002
40.4182
39.1841
38.1079
37.1827
36.3798
35.668
35.0322
34.5672
34.2169
33.9923
33.8815
87.76
177.349
311.486
572.967
453.307
193.274
70.6479
26.0355
11.3414
7.95277
8.72566
14.0231
28.6264
49.0128
64.2201
71.1864
70.6428
67.6437
63.8694
60.8639
57.8466
54.9999
52.4916
50.1074
47.7678
45.6244
43.6918
41.9327
40.3399
38.9316
37.693
36.6094
35.6612
34.8429
34.1449
33.5958
33.2047
32.9237
32.7463
32.6525
4.11093
27.202
41.9639
42.204
35.2969
21.876
11.7033
6.6183
6.20778
7.51437
13.6029
29.5964
54.2338
73.2248
80.2834
78.9481
74.144
68.702
64.2346
60.5625
57.1447
53.9747
51.1286
48.4626
45.9497
43.6901
41.6795
39.8907
38.2909
36.8872
35.6534
34.5863
33.6895
32.9665
32.4132
32.0042
31.7197
31.5291
31.4082
31.346
0.490638
2.19798
5.2421
6.25313
6.0224
4.58761
3.87184
4.35233
6.67166
13.8917
31.0042
58.9
82.0939
89.4325
87.0195
81
73.678
67.0736
62.381
58.5473
55.0176
51.7337
48.7623
45.9882
43.4311
41.1503
39.1384
37.3563
35.7575
34.3775
33.2201
32.2913
31.5758
31.0396
30.6545
30.3768
30.1975
30.09
30.0266
29.9978
0.25695
0.547963
1.09496
1.67512
2.11619
2.48695
3.3799
6.41343
14.8372
33.3693
64.1784
90.2819
98.1213
95.3779
87.5668
77.6502
69.5432
63.3772
58.9801
55.3362
51.9442
48.7306
45.7592
42.9904
40.4627
38.1974
36.1949
34.4219
32.8761
31.6822
30.7447
30.0401
29.5273
29.1696
28.9352
28.7701
28.6809
28.6418
28.6283
28.6289
0.23549
0.31207
0.55539
1.33108
2.27251
3.79304
7.36531
16.8308
37.736
70.3551
96.7472
105.285
102.921
93.7065
80.6533
70.6064
63.5247
58.5039
54.7981
51.5413
48.3729
45.3072
42.4109
39.6912
37.1939
34.9408
32.9843
31.3523
30.0797
29.1354
28.4305
27.9348
27.5998
27.3886
27.2684
27.2043
27.19
27.2035
27.2263
27.2458
0.216424
0.350388
0.867955
3.05888
6.51786
11.5763
22.377
46.0237
78.0946
101.568
110.011
108.366
98.3835
82.4175
70.1835
62.2355
57.1016
53.4212
50.4439
47.5843
44.6643
41.7478
38.8937
36.1992
33.7247
31.5486
29.8355
28.5064
27.5203
26.8167
26.3249
26.0066
25.8171
25.7222
25.6917
25.7012
25.7383
25.7851
25.8291
25.8573
0.221084
0.764849
3.77668
13.8995
23.7481
36.1138
60.8285
86.6381
103.717
112.075
110.556
99.9141
81.7689
67.8396
59.2057
54.2519
51.1191
48.6294
46.2602
43.7204
40.9734
38.122
35.2982
32.6308
30.297
28.4369
27.0341
25.992
25.2534
24.7582
24.4361
24.2591
24.1827
24.1727
24.2064
24.2637
24.33
24.3934
24.4462
24.4747
0.766795
5.85907
27.8386
49.8602
61.7977
76.6001
91.6533
102.597
109.089
106.633
95.6917
77.6549
63.1228
54.2264
49.6779
47.4413
45.9242
44.336
42.4028
40.0631
37.3936
34.5528
31.7419
29.2362
27.2309
25.7118
24.5981
23.8045
23.2694
22.9348
22.7528
22.6831
22.6841
22.7333
22.8082
22.8908
22.9689
23.0359
23.0871
23.1086
3.97344
41.2888
77.902
83.427
85.3894
90.3416
96.1648
97.0687
93.5625
83.2575
68.5207
55.6752
47.517
43.6711
42.4364
42.1509
41.6976
40.6479
38.9432
36.6708
33.9855
31.1192
28.4443
26.2675
24.6065
23.3829
22.5118
21.9186
21.5437
21.338
21.2571
21.2568
21.312
21.398
21.4941
21.5844
21.6602
21.7203
21.7613
21.7698
2.67375
33.491
57.8933
64.2141
66.3338
68.8658
69.0676
67.2406
61.4968
53.3694
45.3025
39.4433
36.6713
36.433
37.3219
38.2312
38.3674
37.5644
35.9048
33.5751
30.8091
27.9904
25.6055
23.7643
22.397
21.4151
20.737
20.2989
20.0476
19.9372
19.9206
19.9691
20.0574
20.162
20.2635
20.3479
20.4103
20.4549
20.481
20.4706
0.684832
10.6184
21.4478
25.1292
29.27
32.9858
34.2362
34.3636
33.9787
32.5899
30.5821
29.4806
29.9742
31.7809
33.9322
35.4307
35.8035
35.0251
33.2693
30.7932
27.954
25.3202
23.2422
21.6842
20.5522
19.7588
19.2319
18.9114
18.752
18.7038
18.7307
18.8091
18.914
19.0231
19.1181
19.1866
19.2277
19.2507
19.2607
19.2264
0.287664
1.87702
4.10389
5.93218
9.01933
11.6392
14.2279
17.348
20.2146
21.8949
22.7472
23.9308
26.1156
29.0245
31.761
33.4858
33.8646
32.9618
31.0075
28.341
25.5122
23.1231
21.3044
19.9697
19.0206
18.3728
17.9586
17.7267
17.6308
17.6215
17.6758
17.7691
17.878
17.9814
18.062
18.1086
18.1248
18.1235
18.117
18.0572
0.214706
0.462906
0.876143
1.60381
2.82942
4.4106
7.05851
10.6776
14.2592
16.907
18.8437
21.0197
24.0053
27.4527
30.4429
32.1781
32.4275
31.3038
29.0906
26.254
23.5195
21.3459
19.7304
18.5664
17.7561
17.2177
16.8871
16.7189
16.663
16.6787
16.7472
16.8443
16.9483
17.0394
17.1002
17.1249
17.1187
17.0918
17.0731
16.9897
0.223464
0.272981
0.43184
0.804349
1.42589
2.60375
4.90568
8.24815
11.7577
14.6115
16.9369
19.5494
22.9333
26.6446
29.7058
31.3365
31.3862
29.9904
27.4949
24.5431
21.9307
19.9257
18.4632
17.427
16.7201
16.2618
15.993
15.8678
15.8359
15.866
15.9391
16.0328
16.1264
16.2009
16.241
16.2504
16.226
16.1755
16.1494
16.032
0.22912
0.244891
0.35307
0.613862
1.09866
2.14012
4.23556
7.32623
10.677
13.5473
16.0267
18.8572
22.4587
26.3048
29.3542
30.8311
30.6502
28.9702
26.214
23.1979
20.6837
18.8028
17.4531
16.5125
15.8815
15.4809
15.2559
15.1588
15.1405
15.1771
15.249
15.3353
15.4166
15.4724
15.4954
15.489
15.4372
15.3359
15.2847
15.2162
0.231887
0.240698
0.333985
0.555082
1.00997
2.01903
4.02026
6.9603
10.1972
13.0563
15.6135
18.5717
22.3088
26.2274
29.2384
30.5573
30.148
28.2014
25.2223
22.1611
19.72
17.9295
16.6634
15.7925
15.2158
14.8561
14.6609
14.5812
14.5701
14.6082
14.6759
14.7541
14.8237
14.8631
14.8719
14.8477
14.7825
14.6819
14.6308
14.575
0.23328
0.239934
0.327339
0.535846
0.984073
1.99546
3.95924
6.81663
9.98557
12.839
15.4472
18.4908
22.3161
26.2846
29.2504
30.4327
29.8208
27.6446
24.4838
21.3871
18.996
17.2692
16.0643
15.2435
14.7048
14.3731
14.1972
14.1278
14.12
14.157
14.22
14.291
14.3499
14.3758
14.3671
14.3189
14.2526
14.1743
14.127
14.0715
0.234077
0.239581
0.323362
0.526343
0.975881
1.99948
3.95186
6.76667
9.89833
12.7536
15.3988
18.4999
22.3922
26.3942
29.3204
30.3922
29.6184
27.263
23.964
20.837
18.4786
16.8027
15.6329
14.8478
14.3347
14.0212
13.8574
13.7937
13.787
13.8219
13.8807
13.946
13.9956
14.0112
13.9837
13.9096
13.8612
13.8089
13.7635
13.7001
0.234786
0.239498
0.320099
0.519423
0.97284
2.01294
3.96824
6.7636
9.87893
12.741
15.4135
18.5551
22.4899
26.5106
29.4046
30.3965
29.5104
27.0302
23.6363
20.4878
18.1503
16.4969
15.3591
14.5937
14.0964
13.794
13.6372
13.5765
13.57
13.6034
13.6591
13.7204
13.7633
13.7719
13.737
13.6714
13.6233
13.5783
13.5309
13.4599
0.235673
0.240501
0.32172
0.525612
0.993125
2.06109
4.03853
6.84634
9.97294
12.8523
15.5456
18.7075
22.6568
26.6734
29.5334
30.4679
29.511
26.9594
23.5123
20.3467
18.014
16.3707
15.2417
14.4835
13.9925
13.6949
13.5411
13.4818
13.4757
13.5086
13.5636
13.6238
13.6648
13.6717
13.636
13.5744
13.5277
13.486
13.4384
13.3653
1513.58
821.356
724.007
702.424
700.76
706.772
716.549
728.329
741.179
754.517
767.901
780.998
793.573
805.409
816.373
826.348
835.289
843.166
849.986
855.778
860.594
864.502
867.573
869.901
871.57
872.671
873.291
873.519
873.439
873.123
872.644
872.066
871.45
870.85
870.314
869.89
869.625
869.568
869.791
870.441
1520.66
827.304
729.665
707.94
706.418
712.693
722.73
734.745
747.844
761.401
774.976
788.251
800.959
812.905
823.951
833.976
842.947
850.83
857.635
863.393
868.16
872.004
875.005
877.252
878.835
879.847
880.376
880.517
880.348
879.948
879.39
878.739
878.056
877.396
876.809
876.342
876.043
875.962
876.169
876.817
1527.1
836.606
739.582
718.187
717.048
723.758
734.276
746.765
760.3
774.237
788.147
801.703
814.627
826.735
837.885
847.97
856.946
864.791
871.521
877.169
881.799
885.483
888.307
890.364
891.75
892.559
892.888
892.831
892.471
891.888
891.158
890.349
889.523
888.735
888.038
887.477
887.103
886.962
887.121
887.737
1546.42
850.527
753.135
732.121
731.573
738.991
750.211
763.35
777.487
791.953
806.313
820.23
833.436
845.751
857.017
867.159
876.122
883.896
890.5
895.981
900.405
903.856
906.425
908.212
909.317
909.842
909.891
909.557
908.931
908.095
907.127
906.1
905.076
904.112
903.262
902.575
902.097
901.877
901.978
902.566
1578.96
868.016
769.269
748.721
749.008
757.375
769.507
783.51
798.404
813.522
828.424
842.775
856.318
868.858
880.256
890.448
899.376
907.044
913.48
918.744
922.911
926.067
928.319
929.77
930.529
930.709
930.415
929.746
928.796
927.654
926.4
925.109
923.846
922.671
921.637
920.796
920.194
919.88
919.919
920.483
1620.37
888.265
787.432
767.31
768.6
778.135
791.384
806.41
822.194
838.072
853.601
868.449
882.354
895.14
906.675
916.9
925.765
933.298
939.528
944.53
948.386
951.199
953.08
954.141
954.504
954.288
953.601
952.548
951.23
949.741
948.162
946.573
945.04
943.625
942.386
941.371
940.63
940.212
940.184
940.725
1668.84
910.99
807.374
787.558
789.95
800.775
815.276
831.449
848.228
864.949
881.164
896.541
910.833
923.871
935.538
945.774
954.557
961.915
967.903
972.599
976.102
978.524
979.984
980.611
980.537
979.88
978.758
977.284
975.565
973.694
971.762
969.847
968.022
966.349
964.884
963.682
962.791
962.262
962.163
962.681
1724.61
936.271
829.043
809.343
812.844
824.986
840.832
858.23
876.065
893.691
910.62
926.547
941.234
954.518
966.295
976.521
985.19
992.34
998.045
1002.39
1005.5
1007.49
1008.49
1008.64
1008.09
1006.95
1005.36
1003.44
1001.29
999.01
996.7
994.44
992.303
990.354
988.652
987.251
986.202
985.556
985.385
985.88
1786.12
963.927
852.431
832.609
837.137
850.636
867.841
886.489
905.432
923.971
941.633
958.119
973.189
986.702
998.566
1008.75
1017.27
1024.17
1029.55
1033.51
1036.17
1037.68
1038.19
1037.83
1036.76
1035.12
1033.03
1030.62
1028.02
1025.31
1022.6
1019.98
1017.51
1015.28
1013.33
1011.72
1010.51
1009.74
1009.49
1009.96
1854.23
994.047
877.55
857.372
862.817
877.619
896.172
916.084
936.127
955.583
973.982
991.006
1006.44
1020.16
1032.08
1042.18
1050.5
1057.12
1062.13
1065.66
1067.84
1068.82
1068.79
1067.89
1066.28
1064.09
1061.47
1058.56
1055.47
1052.32
1049.19
1046.19
1043.38
1040.85
1038.64
1036.82
1035.43
1034.54
1034.22
1034.66
1927.49
1026.55
904.412
883.623
889.845
905.884
925.757
946.91
968.035
988.398
1007.51
1025.05
1040.82
1054.7
1066.63
1076.62
1084.7
1090.98
1095.58
1098.63
1100.27
1100.71
1100.1
1098.62
1096.41
1093.65
1090.48
1087.03
1083.44
1079.82
1076.26
1072.87
1069.71
1066.87
1064.39
1062.35
1060.79
1059.77
1059.36
1059.78
2007.02
1061.47
933.029
911.344
918.217
935.409
956.547
978.891
1001.08
1022.32
1042.11
1060.13
1076.2
1090.21
1102.11
1111.93
1119.73
1125.63
1129.76
1132.28
1133.35
1133.19
1131.97
1129.86
1127.03
1123.66
1119.9
1115.9
1111.79
1107.67
1103.67
1099.87
1096.35
1093.18
1090.43
1088.16
1086.42
1085.27
1084.78
1085.17
2091.45
1098.8
963.374
940.546
947.9
966.147
988.493
1011.99
1035.19
1057.27
1077.7
1096.17
1112.5
1126.59
1138.41
1148.01
1155.48
1160.95
1164.57
1166.5
1166.97
1166.16
1164.27
1161.5
1158.01
1154.01
1149.64
1145.05
1140.39
1135.77
1131.3
1127.07
1123.18
1119.68
1116.65
1114.15
1112.22
1110.93
1110.36
1110.72
2181.89
1138.39
995.419
971.163
978.881
998.091
1021.56
1046.15
1070.33
1093.2
1114.23
1133.11
1149.64
1163.76
1175.46
1184.8
1191.89
1196.87
1199.91
1201.22
1201.03
1199.53
1196.94
1193.46
1189.29
1184.61
1179.6
1174.4
1169.17
1164.02
1159.07
1154.41
1150.12
1146.29
1142.96
1140.22
1138.1
1136.67
1136.01
1136.35
2276.85
1180.14
1029.07
1003.18
1011.12
1031.18
1055.71
1081.35
1106.44
1130.06
1151.65
1170.88
1187.58
1201.68
1213.21
1222.23
1228.88
1233.32
1235.74
1236.39
1235.48
1233.25
1229.9
1225.68
1220.78
1215.39
1209.71
1203.88
1198.05
1192.35
1186.9
1181.79
1177.1
1172.91
1169.29
1166.3
1163.99
1162.42
1161.67
1161.97
2376.21
1223.94
1064.28
1036.57
1044.56
1065.4
1090.91
1117.54
1143.51
1167.81
1189.92
1209.45
1226.27
1240.31
1251.61
1260.26
1266.42
1270.26
1272.01
1271.94
1270.27
1267.24
1263.11
1258.1
1252.43
1246.31
1239.92
1233.43
1226.98
1220.71
1214.74
1209.15
1204.05
1199.51
1195.58
1192.33
1189.82
1188.11
1187.26
1187.53
2479.96
1269.71
1101.04
1071.25
1079.19
1100.7
1127.12
1154.67
1181.45
1206.42
1228.98
1248.78
1265.67
1279.6
1290.62
1298.85
1304.46
1307.64
1308.68
1307.83
1305.34
1301.48
1296.51
1290.67
1284.2
1277.3
1270.18
1262.99
1255.9
1249.04
1242.53
1236.47
1230.94
1226.02
1221.78
1218.27
1215.55
1213.68
1212.75
1212.98
2587.67
1317.41
1139.25
1107.21
1114.94
1137.04
1164.29
1192.72
1220.27
1245.85
1268.82
1288.83
1305.74
1319.51
1330.2
1337.94
1342.95
1345.43
1345.7
1344.02
1340.67
1335.92
1330.07
1323.36
1316.04
1308.34
1300.44
1292.53
1284.78
1277.31
1270.24
1263.68
1257.71
1252.41
1247.84
1244.06
1241.14
1239.11
1238.08
1238.28
2699.54
1366.85
1178.84
1144.34
1151.77
1174.37
1202.41
1231.65
1259.92
1286.06
1309.4
1329.58
1346.46
1360.01
1370.31
1377.53
1381.87
1383.6
1383.04
1380.48
1376.2
1370.53
1363.74
1356.12
1347.92
1339.36
1330.67
1322.02
1313.57
1305.46
1297.82
1290.74
1284.31
1278.62
1273.72
1269.67
1266.53
1264.34
1263.21
1263.37
2815.02
1418.04
1219.71
1182.58
1189.63
1212.68
1241.41
1271.42
1300.37
1327.02
1350.68
1370.99
1387.8
1401.08
1410.94
1417.58
1421.19
1422.12
1420.68
1417.17
1411.93
1405.27
1397.51
1388.93
1379.8
1370.36
1360.83
1351.4
1342.23
1333.47
1325.23
1317.62
1310.73
1304.63
1299.39
1295.05
1291.68
1289.34
1288.1
1288.23
2933.77
1470.69
1261.8
1221.94
1228.47
1251.87
1281.28
1312.01
1341.58
1368.71
1392.66
1413.03
1429.71
1442.68
1452.05
1458.04
1460.88
1460.96
1458.57
1454.07
1447.8
1440.11
1431.32
1421.74
1411.65
1401.29
1390.89
1380.65
1370.74
1361.29
1352.44
1344.28
1336.91
1330.4
1324.8
1320.17
1316.58
1314.07
1312.72
1312.81
3055.91
1524.9
1305.03
1262.29
1268.24
1291.91
1321.97
1353.37
1383.53
1411.08
1435.28
1455.69
1472.2
1484.8
1493.63
1498.91
1500.93
1500.09
1496.7
1491.15
1483.81
1475.03
1465.16
1454.53
1443.43
1432.11
1420.82
1409.74
1399.05
1388.91
1379.42
1370.7
1362.83
1355.88
1349.93
1345.01
1341.18
1338.49
1337.04
1337.1
3181.94
1580.53
1349.34
1303.61
1308.87
1332.8
1363.44
1395.47
1426.19
1454.13
1478.53
1498.95
1515.23
1527.41
1535.65
1540.16
1541.32
1539.49
1535.05
1528.39
1519.91
1509.99
1499
1487.28
1475.13
1462.81
1450.58
1438.63
1427.15
1416.28
1406.13
1396.84
1388.46
1381.07
1374.74
1369.51
1365.45
1362.59
1361.03
1361.04
3310.18
1637.34
1394.64
1345.78
1350.33
1374.48
1405.66
1438.29
1469.53
1497.84
1522.4
1542.76
1558.78
1570.5
1578.09
1581.78
1582.01
1579.15
1573.58
1565.75
1556.08
1544.97
1532.81
1519.95
1506.7
1493.36
1480.15
1467.31
1454.99
1443.37
1432.56
1422.66
1413.76
1405.92
1399.21
1393.67
1389.36
1386.32
1384.65
1384.62
3440.84
1695.4
1440.88
1388.8
1392.59
1416.89
1448.6
1481.8
1513.53
1542.18
1566.87
1587.14
1602.85
1614.06
1620.92
1623.75
1623
1619.03
1612.28
1603.23
1592.31
1579.96
1566.57
1552.52
1538.14
1523.72
1509.51
1495.73
1482.57
1470.17
1458.67
1448.15
1438.71
1430.41
1423.31
1417.46
1412.89
1409.67
1407.88
1407.81
3574.57
1754.51
1487.95
1432.62
1435.59
1460.04
1492.23
1525.97
1558.18
1587.13
1611.91
1632.05
1647.41
1658.05
1664.13
1666.07
1664.25
1659.11
1651.14
1640.8
1628.58
1614.92
1600.25
1584.97
1569.41
1553.87
1538.62
1523.88
1509.84
1496.65
1484.43
1473.28
1463.29
1454.52
1447.02
1440.83
1436.01
1432.61
1430.71
1430.59
3709.95
1814.61
1535.83
1477.19
1479.3
1503.87
1536.52
1570.81
1603.46
1632.69
1657.51
1677.49
1692.46
1702.47
1707.73
1708.7
1705.76
1699.41
1690.13
1678.44
1664.85
1649.83
1633.84
1617.27
1600.48
1583.79
1567.47
1551.74
1536.79
1522.77
1509.82
1498.02
1487.47
1478.21
1470.3
1463.79
1458.71
1455.11
1453.09
1452.93
3848.08
1875.77
1584.52
1522.46
1523.7
1548.36
1581.48
1616.27
1649.33
1678.82
1703.69
1723.46
1737.98
1747.31
1751.69
1751.64
1747.53
1739.88
1729.24
1716.14
1701.12
1684.69
1667.31
1649.41
1631.35
1613.46
1596.02
1579.26
1563.38
1548.53
1534.82
1522.36
1511.23
1501.47
1493.15
1486.29
1480.94
1477.15
1475.01
1474.82
3989.15
1937.94
1633.98
1568.41
1568.75
1593.48
1627.06
1662.34
1695.81
1725.53
1750.41
1769.93
1783.95
1792.55
1796.02
1794.87
1789.51
1780.52
1768.44
1753.86
1737.36
1719.46
1700.64
1681.35
1661.97
1642.85
1624.27
1606.46
1589.61
1573.89
1559.41
1546.27
1534.54
1524.28
1515.52
1508.32
1502.71
1498.72
1496.46
1496.22
4131.11
2000.7
1684.04
1614.95
1614.4
1639.24
1673.24
1709.01
1742.9
1772.82
1797.66
1816.9
1830.39
1838.19
1840.71
1838.39
1831.72
1821.3
1807.72
1791.61
1773.56
1754.12
1733.8
1713.07
1692.34
1671.94
1652.17
1633.27
1615.44
1598.83
1583.56
1569.72
1557.38
1546.61
1537.42
1529.86
1523.97
1519.79
1517.4
1517.12
4275.29
2064.42
1734.79
1662.12
1660.66
1685.57
1720.01
1756.29
1790.56
1820.68
1845.45
1864.36
1877.28
1884.23
1885.73
1882.17
1874.13
1862.22
1847.07
1829.35
1809.68
1788.65
1766.78
1744.56
1722.42
1700.7
1679.71
1659.69
1640.85
1623.33
1607.25
1592.7
1579.75
1568.44
1558.81
1550.9
1544.73
1540.34
1537.83
1537.5
4422.36
2128.92
1786.13
1709.86
1707.46
1732.49
1767.37
1804.16
1838.8
1869.09
1893.78
1912.33
1924.61
1930.66
1931.07
1926.23
1916.73
1903.25
1886.47
1867.07
1845.72
1823.02
1799.55
1775.79
1752.19
1729.13
1706.88
1685.71
1665.83
1647.37
1630.46
1615.19
1601.61
1589.76
1579.68
1571.4
1564.95
1560.36
1557.72
1557.35
4568.66
2194
1838.03
1758.11
1754.88
1779.99
1815.32
1852.63
1887.61
1918.05
1942.62
1960.79
1972.36
1977.49
1976.73
1970.53
1959.52
1944.4
1925.9
1904.75
1881.65
1857.23
1832.09
1806.75
1781.65
1757.17
1733.63
1711.3
1690.35
1670.94
1653.18
1637.17
1622.94
1610.55
1600.02
1591.37
1584.62
1579.83
1577.05
1576.65
4720.22
2259.98
1890.47
1806.97
1802.83
1828.05
1863.84
1901.64
1937.01
1967.58
1992
2009.73
2020.54
2024.7
2022.72
2015.08
2002.46
1985.63
1965.35
1942.38
1917.45
1891.25
1864.38
1837.39
1810.74
1784.83
1759.97
1736.42
1714.37
1694
1675.38
1658.61
1643.74
1630.79
1619.79
1610.77
1603.74
1598.73
1595.83
1595.38
4869.05
2326.34
1943.49
1856.35
1851.32
1876.67
1912.94
1951.25
1986.98
2017.65
2041.91
2059.15
2069.16
2072.29
2069
2059.84
2045.56
2026.93
2004.79
1979.92
1953.1
1925.05
1896.4
1867.71
1839.47
1812.07
1785.86
1761.07
1737.91
1716.54
1697.04
1679.51
1663.97
1650.47
1639
1629.6
1622.27
1617.05
1614.03
1613.53
5023.86
2393.67
1997.07
1906.19
1900.32
1925.83
1962.6
2001.44
2037.52
2068.29
2092.34
2109.06
2118.21
2120.24
2115.58
2104.83
2088.8
2068.3
2044.2
2017.37
1988.59
1958.62
1928.13
1897.69
1867.81
1838.89
1811.27
1785.22
1760.93
1738.54
1718.16
1699.84
1683.64
1669.56
1657.63
1647.85
1640.23
1634.79
1631.64
1631.1
5179.73
2461.39
2051.12
1956.59
1949.88
1975.55
2012.85
2052.2
2088.64
2119.48
2143.28
2159.45
2167.68
2168.56
2162.44
2150.03
2132.16
2109.7
2083.58
2054.69
2023.88
1991.93
1959.53
1927.29
1895.72
1865.24
1836.2
1808.85
1783.4
1759.99
1738.7
1719.6
1702.72
1688.07
1675.66
1665.49
1657.58
1651.93
1648.65
1648.08
5333.04
2529.61
2105.65
2007.48
1999.98
2025.8
2063.65
2103.53
2140.32
2171.21
2194.78
2210.3
2217.59
2217.22
2209.58
2195.42
2175.62
2151.12
2122.9
2091.87
2058.95
2024.95
1990.59
1956.48
1923.17
1891.11
1860.61
1831.95
1805.32
1780.87
1758.66
1738.76
1721.2
1705.97
1693.09
1682.54
1674.32
1668.47
1665.05
1664.43
5492.61
2598.79
2160.74
2058.85
2050.51
2076.63
2115.03
2155.45
2192.58
2223.52
2246.78
2261.62
2267.92
2266.23
2256.98
2240.99
2219.17
2192.55
2162.13
2128.89
2093.78
2057.66
2021.26
1985.25
1950.17
1916.47
1884.49
1854.49
1826.67
1801.15
1778.01
1757.32
1739.06
1723.26
1709.89
1698.96
1690.45
1684.38
1680.84
1680.19
5652.4
2668.44
2216.24
2110.73
2101.63
2128
2166.98
2207.92
2245.41
2276.37
2299.31
2313.41
2318.67
2315.57
2304.63
2286.71
2262.8
2233.95
2201.23
2165.71
2128.34
2090.03
2051.54
2013.57
1976.68
1941.31
1907.81
1876.45
1847.41
1820.82
1796.76
1775.25
1756.31
1739.93
1726.08
1714.76
1705.96
1699.68
1696.01
1695.32
5810.8
2738.57
2272.29
2163.15
2153.26
2179.91
2219.48
2261
2298.82
2329.8
2352.37
2365.67
2369.81
2365.23
2352.52
2332.58
2306.47
2275.3
2240.22
2202.31
2162.6
2122.02
2081.4
2041.42
2002.66
1965.59
1930.54
1897.8
1867.54
1839.87
1814.87
1792.55
1772.92
1755.96
1741.64
1729.94
1720.84
1714.35
1710.55
1709.83
5975.61
2809.54
2328.89
2216
2205.41
2232.39
2272.58
2314.65
2352.8
2383.79
2405.95
2418.38
2421.35
2415.21
2400.63
2378.57
2350.15
2316.57
2279.02
2238.64
2196.52
2153.62
2110.8
2068.76
2028.1
1989.29
1952.68
1918.54
1887.04
1858.29
1832.35
1809.22
1788.89
1771.36
1756.56
1744.47
1735.08
1728.39
1724.47
1723.71
6139.74
2880.84
2385.9
2269.37
2258.09
2285.38
2326.23
2368.91
2407.38
2438.33
2460.03
2471.54
2473.26
2465.47
2448.93
2424.64
2393.84
2357.75
2317.64
2274.7
2230.09
2184.79
2139.7
2095.56
2052.96
2012.38
1974.19
1938.64
1905.9
1876.06
1849.16
1825.23
1804.22
1786.1
1770.84
1758.38
1748.7
1741.8
1737.77
1736.98
6305.16
2952.77
2443.39
2323.23
2311.29
2338.95
2380.48
2423.75
2462.54
2493.41
2514.61
2525.15
2525.55
2516.02
2497.4
2470.8
2437.5
2398.79
2356.01
2310.44
2263.25
2215.49
2168.08
2121.78
2077.21
2034.85
1995.06
1958.09
1924.09
1893.15
1865.32
1840.58
1818.89
1800.21
1784.47
1771.64
1761.69
1754.59
1750.44
1749.61
6473.27
3025.44
2501.45
2377.59
2364.99
2393.1
2435.3
2479.16
2518.28
2549.05
2569.66
2579.21
2578.18
2566.81
2546.03
2517.01
2481.08
2439.66
2394.12
2345.82
2295.98
2245.69
2195.91
2147.41
2100.84
2056.67
2015.25
1976.86
1941.6
1909.58
1880.81
1855.26
1832.9
1813.65
1797.46
1784.27
1774.04
1766.76
1762.49
1761.64
6642
3098.46
2559.9
2432.42
2419.25
2447.77
2490.7
2535.17
2574.59
2605.23
2625.2
2633.72
2631.14
2617.84
2594.79
2563.22
2524.57
2480.32
2431.93
2380.8
2328.23
2275.35
2223.14
2172.42
2123.81
2077.8
2034.76
1994.92
1958.42
1925.31
1895.61
1869.28
1846.25
1826.46
1809.82
1796.27
1785.77
1778.29
1773.92
1773.04
6812.06
3172.18
2618.96
2487.72
2474.02
2503.01
2546.67
2591.78
2631.44
2661.94
2681.22
2688.61
2684.42
2669.06
2643.62
2609.41
2567.92
2520.73
2469.38
2415.35
2359.96
2304.43
2249.75
2196.74
2146.07
2098.22
2053.55
2012.28
1974.53
1940.35
1909.72
1882.62
1858.94
1838.61
1821.54
1807.64
1796.88
1789.23
1784.74
1783.85
6981.61
3246.12
2678.27
2543.57
2529.31
2558.81
2603.21
2648.97
2688.86
2719.18
2737.7
2743.89
2737.98
2720.47
2692.52
2655.52
2611.08
2560.85
2506.44
2449.4
2391.15
2332.89
2275.68
2220.38
2167.62
2117.91
2071.61
2028.9
1989.92
1954.68
1923.15
1895.28
1870.97
1850.11
1832.61
1818.39
1807.38
1799.55
1794.97
1794.06
7154.87
3320.91
2738.04
2599.85
2585.09
2615.15
2660.32
2706.68
2746.86
2776.94
2794.63
2799.54
2791.8
2772.02
2741.44
2701.54
2654.03
2600.63
2543.05
2482.92
2421.7
2360.67
2300.91
2243.26
2188.41
2136.85
2088.91
2044.79
2004.58
1968.28
1935.88
1907.26
1882.33
1860.96
1843.06
1828.52
1817.27
1809.28
1804.61
1803.69
7327.36
3395.71
2798.24
2656.57
2641.42
2671.99
2717.99
2764.99
2805.41
2835.2
2851.98
2855.52
2845.84
2823.68
2790.33
2747.41
2696.69
2640
2579.15
2515.85
2451.61
2387.76
2325.39
2265.38
2208.43
2155.01
2105.44
2059.9
2018.48
1981.17
1947.89
1918.56
1893.03
1871.19
1852.9
1838.05
1826.57
1818.43
1813.68
1812.74
7503.51
3471.23
2858.89
2713.78
2698.19
2729.43
2776.26
2823.87
2864.49
2893.95
2909.73
2911.81
2900.09
2875.4
2839.16
2793.07
2739
2678.92
2614.71
2548.15
2480.82
2414.07
2349.06
2286.69
2227.62
2172.34
2121.16
2074.24
2031.64
1993.32
1959.22
1929.19
1903.09
1880.77
1862.11
1846.98
1835.29
1827.01
1822.18
1821.24
7680.07
3547.31
2919.96
2771.44
2755.49
2787.39
2835.07
2883.3
2924.1
2953.12
2967.89
2968.38
2954.48
2927.13
2887.86
2838.47
2780.93
2717.34
2649.66
2579.75
2509.25
2439.58
2371.91
2307.14
2245.97
2188.84
2136.06
2087.79
2044.03
2004.76
1969.84
1939.14
1912.5
1889.75
1870.74
1855.34
1843.46
1835.03
1830.12
1829.18
7857.02
3623.77
2981.48
2829.5
2813.26
2845.87
2894.45
2943.25