/*--------------------------------*- C++ -*----------------------------------*\
| =========                 |                                                 |
| \\      /  F ield         | OpenFOAM: The Open Source CFD Toolbox           |
|  \\    /   O peration     | Version:  2.3.0                                 |
|   \\  /    A nd           | Web:      www.OpenFOAM.org                      |
|    \\/     M anipulation  |                                                 |
\*---------------------------------------------------------------------------*/
FoamFile
{
    version     2.0;
    format      ascii;
    class       volScalarField;
    location    "0.1";
    object      H2O;
}
// * * * * * * * * * * * * * * * * * * * * * * * * * * * * * * * * * * * * * //

dimensions      [0 0 0 0 0 0 0];

internalField   nonuniform List<scalar> 
26600
(
5.52162e-16
2.31255e-13
7.8624e-12
1.25157e-10
1.2308e-09
1.1387e-08
6.93752e-08
2.70124e-07
8.4737e-07
2.24609e-06
5.38435e-06
1.17028e-05
2.40788e-05
4.39495e-05
7.12262e-05
0.000106533
0.000150732
0.000192494
0.000243475
0.000300493
0.000367424
0.000438957
0.000518461
0.000599962
0.000685993
0.000774966
0.000875076
0.000986651
0.00109895
0.0012132
0.00133388
0.00145927
0.0015878
0.00171451
0.00184502
0.0019749
0.00211909
0.00228155
0.00245047
0.00268833
8.07366e-14
5.04312e-12
1.31438e-10
1.91099e-09
1.6998e-08
1.38266e-07
7.06793e-07
2.30886e-06
6.08133e-06
1.31501e-05
2.83134e-05
5.65737e-05
0.000114461
0.000195648
0.000300805
0.000422455
0.00057142
0.000742283
0.000957945
0.00113716
0.00142102
0.00163902
0.00196054
0.00225891
0.00262356
0.00286867
0.00326067
0.00377313
0.00399261
0.00420672
0.00452269
0.00481222
0.00504441
0.00534329
0.00559135
0.00592451
0.00622731
0.00658609
0.00708812
0.00500815
1.44156e-12
7.1893e-11
1.60042e-09
1.98974e-08
1.55342e-07
8.17729e-07
2.96945e-06
8.96183e-06
2.3146e-05
5.50154e-05
0.000114762
0.00021303
0.000389468
0.000572586
0.000854689
0.00112986
0.00148714
0.00193892
0.00231192
0.00280477
0.00340244
0.00386164
0.0047834
0.00525674
0.00567273
0.00610603
0.00667284
0.00732736
0.00779287
0.00864495
0.00931144
0.0102702
0.0110183
0.011965
0.0126535
0.0136774
0.014451
0.0154459
0.0160925
0.0173592
7.88244e-12
4.35631e-10
8.98318e-09
9.79937e-08
6.52481e-07
2.9745e-06
1.02598e-05
2.82752e-05
6.77764e-05
0.000152772
0.000285428
0.000517325
0.000842289
0.00118712
0.00174759
0.00222584
0.00299702
0.0038025
0.00442708
0.00565416
0.00620536
0.00700255
0.00793906
0.00882333
0.00994739
0.0111213
0.0126725
0.0138795
0.0152765
0.0169494
0.0178537
0.0191541
0.0203714
0.0219607
0.0231041
0.0255535
0.0271191
0.0286214
0.0300715
0.0316227
3.54728e-11
1.98728e-09
3.43985e-08
3.40714e-07
2.18026e-06
8.83555e-06
2.74239e-05
7.11253e-05
0.000164112
0.00035632
0.000632294
0.00110539
0.00163985
0.00227874
0.00332103
0.00413514
0.00575413
0.00687044
0.00759382
0.00902772
0.0104908
0.0121651
0.0140577
0.016221
0.0176049
0.0190757
0.0222273
0.0236315
0.0271283
0.0298736
0.0337006
0.0382354
0.0425497
0.0467402
0.0509886
0.0558472
0.060325
0.0638965
0.0696437
0.060925
1.56976e-10
8.47107e-09
1.28934e-07
1.16838e-06
6.22541e-06
2.28044e-05
6.65852e-05
0.000165995
0.000375298
0.000779976
0.00133968
0.00223246
0.00305411
0.0043075
0.00621755
0.00758959
0.00901982
0.0111553
0.0138337
0.0155742
0.017978
0.0203451
0.0248243
0.0279539
0.0320373
0.0367687
0.0426559
0.0487258
0.0548066
0.0605623
0.0669686
0.0807822
0.0830918
0.088146
0.0926261
0.0976286
0.102558
0.105537
0.114648
0.11885
7.54022e-10
3.53099e-08
4.96738e-07
3.68122e-06
1.64243e-05
5.50733e-05
0.000152825
0.000369881
0.000826692
0.00163614
0.00275567
0.00433661
0.00557461
0.00833635
0.00959143
0.0126665
0.0158488
0.0190395
0.0242003
0.0288983
0.0346867
0.0411699
0.0482595
0.0550997
0.0603243
0.0664535
0.0723591
0.0823469
0.0897533
0.0955727
0.100979
0.104383
0.116855
0.116136
0.114231
0.111634
0.108862
0.107141
0.104328
0.10675
3.86058e-09
1.68336e-07
1.91033e-06
1.07249e-05
4.10522e-05
0.000127301
0.000338408
0.00079693
0.00175522
0.003347
0.00557282
0.00817307
0.00988465
0.013256
0.0170372
0.0230699
0.0305817
0.0382788
0.0468231
0.0528872
0.0614809
0.0683663
0.0790443
0.0911393
0.0946377
0.0989047
0.102241
0.115401
0.114096
0.111047
0.106504
0.102505
0.0996615
0.0973546
0.0930684
0.0906109
0.0885461
0.0870211
0.0839838
0.0860544
2.07586e-08
8.05803e-07
6.36182e-06
2.84345e-05
9.7957e-05
0.00028605
0.000730779
0.00168073
0.00366498
0.00683113
0.00978665
0.013162
0.0168206
0.0247223
0.0335761
0.0442214
0.0561603
0.0640391
0.075772
0.0842045
0.093864
0.0983191
0.113046
0.112143
0.10916
0.106265
0.1013
0.0986823
0.0915251
0.0869691
0.0828844
0.0791436
0.0735831
0.0691627
0.065615
0.0625987
0.0604997
0.0585734
0.0571901
0.0572152
1.17228e-07
2.87527e-06
1.72384e-05
6.9252e-05
0.000225441
0.000629339
0.0015575
0.00355577
0.0077382
0.0105692
0.0169844
0.022506
0.0366542
0.0476381
0.0566398
0.0725746
0.0857152
0.0945634
0.104317
0.110713
0.108069
0.102233
0.0994985
0.0930051
0.0884291
0.0833759
0.077049
0.0666145
0.0570599
0.0500348
0.0455742
0.0431167
0.0411316
0.0405802
0.0402168
0.040108
0.0403668
0.040851
0.0417023
0.0436383
4.51629e-07
7.44888e-06
4.07406e-05
0.000159693
0.000506008
0.00137345
0.00335209
0.00779662
0.0114487
0.0179132
0.0321151
0.0465092
0.0581972
0.0778638
0.0906927
0.103588
0.108375
0.10555
0.102
0.0925579
0.0858953
0.0800358
0.0694128
0.0586468
0.0477732
0.0408638
0.0338704
0.0312729
0.0295604
0.0277789
0.0267605
0.0269058
0.0273045
0.0281087
0.0290923
0.0303363
0.0319422
0.0338856
0.0358657
0.0385178
1.14641e-06
1.63952e-05
9.183e-05
0.00035994
0.00113013
0.00304447
0.00752351
0.0118013
0.0210855
0.0386193
0.0533258
0.0765768
0.0912109
0.109575
0.106757
0.103445
0.0941692
0.0871511
0.0729137
0.0562643
0.0422952
0.0363331
0.0288995
0.0258887
0.0239482
0.0212022
0.0185994
0.0174538
0.0174587
0.0178413
0.0186852
0.0201693
0.0218883
0.0238658
0.0260819
0.0285747
0.031361
0.0344078
0.0378232
0.0416195
2.17371e-06
3.55701e-05
0.000207946
0.000817
0.00257964
0.00709534
0.0114526
0.0238909
0.045226
0.0650841
0.0829773
0.108663
0.105657
0.101418
0.091762
0.0809119
0.0634485
0.0444153
0.0294035
0.0256665
0.0223342
0.0181208
0.0144553
0.0125014
0.0105422
0.010598
0.0111099
0.0121937
0.0137652
0.0156457
0.0177973
0.0202058
0.0229414
0.0259508
0.0292149
0.0327386
0.0365294
0.0406063
0.0451132
0.0505521
3.85331e-06
8.21943e-05
0.000493701
0.00194293
0.00625468
0.0110561
0.0236546
0.0475963
0.0744576
0.0919601
0.104284
0.101592
0.0916215
0.079875
0.0614179
0.0407964
0.0265337
0.0232284
0.0164645
0.0124226
0.00822023
0.00648419
0.00639473
0.00681612
0.00757588
0.00886634
0.0105752
0.01264
0.015183
0.0180017
0.0210276
0.0242294
0.0276284
0.0312481
0.0351158
0.0392507
0.0436742
0.0484509
0.0537147
0.0596678
6.65087e-06
0.000216559
0.00132403
0.00512964
0.0101054
0.022589
0.0490469
0.0761792
0.0991753
0.100671
0.095055
0.0832797
0.0675871
0.0444632
0.0266314
0.0215215
0.01668
0.00838629
0.0051745
0.00408608
0.00407555
0.0044397
0.00519272
0.00651498
0.00834087
0.0106377
0.0132908
0.0162031
0.0193573
0.0227146
0.026248
0.0299477
0.0338281
0.0379148
0.0422384
0.0468172
0.051683
0.0567069
0.0621281
0.0683249
9.3042e-06
0.000741987
0.00442717
0.00858172
0.0215905
0.0494664
0.0742354
0.107262
0.102283
0.0888464
0.0723127
0.0495278
0.0324332
0.020248
0.0165044
0.00839455
0.00446886
0.00293761
0.00259779
0.0028462
0.00343068
0.00458626
0.00645668
0.00880491
0.011538
0.0145929
0.0179009
0.0213939
0.0250382
0.0288203
0.0327435
0.0368195
0.0410676
0.045498
0.0501453
0.054913
0.0597862
0.0646089
0.0704256
0.0762018
7.77493e-06
0.00361037
0.00847244
0.0201826
0.048497
0.0737051
0.10492
0.101045
0.0854967
0.0624882
0.0373767
0.0230048
0.0186907
0.0125902
0.00527431
0.00259538
0.00178458
0.00181757
0.00212843
0.00290943
0.00452065
0.00681631
0.00966911
0.0128938
0.0163737
0.020053
0.0238841
0.0278237
0.0318485
0.0359602
0.0401815
0.0445345
0.0490428
0.0536819
0.0582916
0.0627516
0.0679264
0.0729208
0.0787419
0.0838084
4.19095e-05
0.00805151
0.0208074
0.0485364
0.0709848
0.102826
0.0950377
0.0760611
0.0519376
0.0268537
0.0218983
0.0154544
0.00659391
0.00286484
0.00145715
0.0011308
0.0012783
0.00164195
0.00265689
0.00458119
0.00722867
0.0105229
0.0143283
0.0183096
0.022399
0.0265884
0.0308396
0.0351271
0.0394421
0.0437965
0.0482296
0.0527684
0.057291
0.0617615
0.0664097
0.0710216
0.0762542
0.0808679
0.0857492
0.0822293
6.25234e-05
0.0277955
0.0512474
0.071405
0.0982466
0.090243
0.065752
0.0391768
0.0216368
0.0173574
0.00829439
0.00364482
0.00153498
0.000774683
0.000698373
0.000881794
0.00129159
0.00239352
0.00456056
0.00754249
0.0111538
0.0154446
0.0201555
0.024688
0.0292403
0.0338522
0.0384396
0.0429937
0.04752
0.0520279
0.056459
0.0609065
0.0653688
0.0697999
0.0745877
0.0792007
0.0836617
0.0826025
0.079775
0.0756947
9.29099e-05
0.0459629
0.0632558
0.0911902
0.0732552
0.0527208
0.0232656
0.017867
0.0120866
0.00468559
0.00186764
0.000767259
0.00038567
0.000393316
0.000586212
0.00101996
0.00209396
0.0042747
0.00767957
0.0115893
0.0160625
0.0213435
0.0269405
0.0316513
0.0365656
0.0415851
0.0464353
0.0511767
0.0557406
0.0601027
0.0643916
0.0689901
0.0734817
0.0781002
0.082183
0.0838418
0.0805083
0.0766892
0.0727337
0.0685588
4.16285e-05
0.012497
0.0135687
0.0143298
0.0139585
0.0117577
0.00888033
0.00387081
0.00167575
0.000699584
0.000301541
0.000170325
0.000197692
0.000341959
0.000773497
0.00183178
0.00367046
0.00716982
0.0119483
0.0164575
0.0216353
0.0280274
0.0341225
0.0390147
0.0443638
0.0496247
0.0545911
0.0591858
0.0636687
0.0680369
0.072527
0.0771103
0.0811262
0.085115
0.0813733
0.0777917
0.0737507
0.069684
0.0656773
0.0617182
5.67084e-06
0.000966749
0.00183586
0.00181213
0.00155352
0.001106
0.000675598
0.000367876
0.00019052
9.87758e-05
6.58697e-05
9.20082e-05
0.000183015
0.000538885
0.00148301
0.00327252
0.00595007
0.0111567
0.0157984
0.0221797
0.0286711
0.0355405
0.0412297
0.0468142
0.0524141
0.0575737
0.0623696
0.0669525
0.0716067
0.076161
0.0802247
0.0841643
0.0816321
0.0789451
0.0749047
0.0707723
0.0666961
0.0627636
0.0589766
0.0553429
1.94623e-06
6.19751e-05
0.000173533
0.000172919
0.000156536
0.000119789
8.59069e-05
6.09793e-05
3.82896e-05
2.76431e-05
3.80504e-05
9.58168e-05
0.000320503
0.00103047
0.00280922
0.00531438
0.00888501
0.0150334
0.0216432
0.0287586
0.0359214
0.0429023
0.0487734
0.0546728
0.0599541
0.065209
0.0701963
0.0749173
0.0793035
0.0832683
0.0819705
0.0792984
0.075566
0.0718404
0.0678499
0.0638177
0.0599308
0.0562568
0.052785
0.0495124
6.65198e-07
6.57494e-06
2.09758e-05
2.53443e-05
2.56441e-05
2.41e-05
1.9809e-05
1.51135e-05
1.19163e-05
1.67545e-05
4.12188e-05
0.000172199
0.000643525
0.00196053
0.00395667
0.00771911
0.0133833
0.0204249
0.0279634
0.0356715
0.0433213
0.0500875
0.0562631
0.0620856
0.0676574
0.0728854
0.0777897
0.0819895
0.083563
0.0801807
0.0764049
0.0726044
0.0686823
0.0648614
0.061064
0.0572744
0.0536695
0.0503069
0.0471731
0.0442539
2.06763e-07
1.065e-06
3.34783e-06
5.75026e-06
6.95705e-06
6.65526e-06
5.69882e-06
4.84178e-06
6.90682e-06
1.85666e-05
8.33028e-05
0.000360084
0.00126014
0.00277276
0.00601148
0.0113028
0.0182219
0.0262515
0.0344944
0.0426181
0.0503146
0.0570769
0.063364
0.0694999
0.0750994
0.0800815
0.0843016
0.0814712
0.0780188
0.0739497
0.0698236
0.065833
0.0619663
0.0582688
0.0547039
0.0512369
0.0479727
0.0449458
0.0421439
0.0395504
6.10047e-08
2.04637e-07
5.85709e-07
1.3917e-06
2.00319e-06
1.91533e-06
1.73203e-06
2.53247e-06
7.91205e-06
3.88377e-05
0.000178456
0.000725337
0.0018053
0.00421429
0.00879533
0.0152684
0.0231501
0.03201
0.0408492
0.049182
0.0568165
0.0639704
0.0705692
0.0765715
0.0816604
0.0838527
0.0804238
0.0759789
0.0716842
0.0674723
0.0633382
0.0594242
0.0557233
0.0522307
0.0489253
0.0457888
0.0428638
0.0401607
0.0376655
0.0353595
1.66664e-08
3.91575e-08
9.71957e-08
3.09088e-07
5.35225e-07
5.5418e-07
8.1092e-07
3.02306e-06
1.50091e-05
8.51128e-05
0.000364814
0.00104542
0.00285838
0.00694019
0.0129914
0.0205761
0.0290997
0.0378677
0.0468471
0.0554261
0.0635004
0.0707671
0.0772905
0.0826154
0.0821907
0.0787262
0.0743556
0.06977
0.0654102
0.0613005
0.0572799
0.0535405
0.0500583
0.0468081
0.0437732
0.0409429
0.0383257
0.035915
0.0336902
0.0316279
4.9811e-09
9.42789e-09
2.18068e-08
7.91847e-08
1.47211e-07
2.34369e-07
8.04939e-07
4.44937e-06
3.46042e-05
0.000151746
0.000541836
0.00172406
0.00476065
0.0100619
0.017234
0.0256927
0.0348083
0.0440494
0.0531685
0.0618197
0.0698344
0.0770419
0.0828795
0.0818364
0.0776001
0.0729617
0.0682889
0.063746
0.0594813
0.0555039
0.0517271
0.0482277
0.0449886
0.0419894
0.0392169
0.0366614
0.0343153
0.0321595
0.0301645
0.0283
2.46731e-09
3.8695e-09
8.45651e-09
2.41748e-08
6.05076e-08
2.3305e-07
1.27269e-06
8.23993e-06
5.33674e-05
0.000248289
0.00091826
0.00287937
0.00697073
0.0132589
0.021321
0.0304828
0.0401176
0.0497333
0.0590233
0.0677307
0.075677
0.0822817
0.0820105
0.0774025
0.0722958
0.0673418
0.0626207
0.0581922
0.0540857
0.0502874
0.0467551
0.0434969
0.0404962
0.0377364
0.0352054
0.0328925
0.030782
0.0288442
0.027037
0.0253264
6.76427e-10
1.47197e-09
3.80887e-09
1.11693e-08
5.075e-08
4.42344e-07
2.42563e-06
1.63046e-05
9.60391e-05
0.000423102
0.0015316
0.00421817
0.00916445
0.0162823
0.0250781
0.0348498
0.0449533
0.0548966
0.0643597
0.0731085
0.0807401
0.0829095
0.0780558
0.0725008
0.0671291
0.0621341
0.0574759
0.0531964
0.0492725
0.0456721
0.042363
0.039328
0.0365471
0.0340042
0.0316876
0.0295863
0.0276806
0.0259285
0.0242824
0.0227065
1.89087e-10
5.10197e-10
1.65081e-09
9.3381e-09
7.9558e-08
7.98916e-07
4.80171e-06
3.15635e-05
0.000165019
0.00069578
0.00219716
0.00551668
0.0111529
0.0189734
0.0284214
0.0387507
0.0492855
0.0595316
0.0691584
0.0778363
0.0847156
0.0798486
0.073691
0.0677885
0.0623534
0.0574042
0.0528813
0.0487713
0.0450329
0.041627
0.0385206
0.0356865
0.0331016
0.0307489
0.0286183
0.0267012
0.024978
0.0234095
0.021915
0.0204474
5.74865e-11
1.7014e-10
1.11338e-09
1.64104e-08
2.05691e-07
1.43869e-06
9.07426e-06
5.38971e-05
0.000264532
0.000971357
0.00280617
0.00663386
0.0128432
0.0212859
0.031332
0.0421755
0.0531113
0.0636445
0.0734534
0.0816959
0.082238
0.0759684
0.0694691
0.063477
0.0580754
0.0532215
0.0488472
0.0449039
0.0413412
0.038116
0.0351911
0.0325343
0.0301196
0.0279305
0.0259598
0.0242115
0.0226833
0.0213141
0.0199564
0.0185661
3.93482e-11
2.3189e-10
2.9749e-09
4.15039e-08
4.40423e-07
2.54091e-06
1.51968e-05
8.36235e-05
0.000357716
0.00120727
0.00330543
0.00752976
0.0142286
0.0232267
0.0338152
0.045131
0.0564406
0.0672294
0.0770522
0.0847011
0.0792006
0.0722547
0.065636
0.0596529
0.0543274
0.0495883
0.0453569
0.0415682
0.0381656
0.0351024
0.032337
0.0298332
0.0275638
0.0255135
0.0236914
0.0221218
0.0208172
0.0196851
0.0183701
0.0166887
6.49961e-11
6.0233e-10
7.90863e-09
8.09428e-08
7.58281e-07
4.04616e-06
2.27513e-05
0.000110297
0.000434618
0.00139265
0.00369187
0.00822132
0.0153362
0.0248196
0.0358908
0.0476371
0.0592995
0.0703536
0.0799122
0.0827184
0.0760859
0.0689163
0.0622787
0.0563443
0.0511083
0.0464843
0.0423839
0.0387336
0.0354729
0.0325509
0.029922
0.0275473
0.0253986
0.023475
0.0218012
0.0204155
0.0193904
0.0186532
0.0170524
0.0150082
1.16401e-10
1.18653e-09
1.53261e-08
1.41615e-07
1.07208e-06
5.76272e-06
2.96045e-05
0.000132636
0.000495018
0.00153241
0.00397957
0.00874429
0.0162008
0.0260961
0.0375824
0.0496826
0.0616393
0.0729839
0.0822537
0.0805255
0.0733545
0.0660594
0.0594219
0.0535497
0.0484034
0.0438851
0.0398999
0.0363698
0.0332308
0.0304283
0.0279128
0.0256422
0.0235971
0.0217892
0.0202415
0.0189986
0.018299
0.0187595
0.0153413
0.0132157
1.76461e-10
1.79068e-09
2.25697e-08
1.98803e-07
1.37073e-06
7.28881e-06
3.54659e-05
0.000150738
0.000541414
0.00163544
0.00418815
0.00912992
0.0168579
0.0270911
0.0389191
0.0512959
0.0635075
0.075019
0.0841576
0.0790433
0.0711815
0.0637466
0.0570844
0.0512623
0.0461938
0.041766
0.0378783
0.0344487
0.0314104
0.0287052
0.0262798
0.0240915
0.0221334
0.0204135
0.0189443
0.0176801
0.0164811
0.0152979
0.0132826
0.0115763
2.30377e-10
2.27163e-09
2.80952e-08
2.45197e-07
1.63969e-06
8.57045e-06
4.02045e-05
0.000164795
0.000575949
0.00170938
0.00433516
0.0094058
0.0173406
0.0278394
0.0399433
0.0525872
0.0649925
0.0765791
0.0855344
0.0779044
0.0695471
0.06204
0.0552732
0.0494691
0.04446
0.0401047
0.0362951
0.0329457
0.0299869
0.027357
0.0249976
0.022877
0.0209833
0.01932
0.0179119
0.0166859
0.0150348
0.0134273
0.0117651
0.0103129
2.71201e-10
2.601e-09
3.17395e-08
2.78705e-07
1.84519e-06
9.54983e-06
4.37471e-05
0.000175019
0.000600313
0.00176007
0.00443442
0.00959401
0.0176771
0.0283721
0.0406834
0.0535206
0.0660577
0.0777155
0.086585
0.0772242
0.0684343
0.0609666
0.0539743
0.0481529
0.0431838
0.0388824
0.0351311
0.0318414
0.0289411
0.0263657
0.0240548
0.0219841
0.0201324
0.018498
0.017271
0.0168293
0.0140623
0.0122722
0.0107391
0.00942332
2.97665e-10
2.79905e-09
3.3888e-08
2.99636e-07
1.98054e-06
1.01967e-05
4.60633e-05
0.000181604
0.000615722
0.00179157
0.0044955
0.00971067
0.017889
0.0287123
0.0411623
0.0541238
0.0667546
0.0784568
0.0872666
0.0768248
0.0676413
0.0599294
0.0530656
0.0472881
0.0423519
0.0380866
0.0343738
0.0311231
0.0282606
0.0257186
0.0234413
0.0214013
0.0195659
0.0179156
0.0164671
0.0151477
0.0132138
0.0115468
0.0101045
0.00886044
3.08841e-10
2.88066e-09
3.47716e-08
3.0863e-07
2.04126e-06
1.04877e-05
4.71052e-05
0.000184549
0.000622564
0.00180549
0.00452249
0.00976248
0.0179836
0.0288651
0.0413792
0.0543962
0.0670704
0.0787923
0.0875667
0.0766534
0.0672766
0.05944
0.0526479
0.0468965
0.0419763
0.0377275
0.0340322
0.0307992
0.0279537
0.0254265
0.0231648
0.0211378
0.0193057
0.017633
0.0160902
0.0145784
0.0128271
0.0112267
0.00982607
0.00861111
2.3329e-197
9.39138e-197
2.14893e-196
4.01364e-196
6.7311e-196
1.05648e-195
1.56256e-195
2.21884e-195
3.0465e-195
4.06328e-195
5.28624e-195
6.73611e-195
8.4164e-195
1.03297e-194
1.24896e-194
1.48899e-194
1.74985e-194
2.03175e-194
2.33019e-194
2.64367e-194
2.97145e-194
3.30528e-194
3.64805e-194
3.99279e-194
4.33417e-194
4.67039e-194
4.99512e-194
5.3026e-194
5.59234e-194
5.87043e-194
6.12155e-194
6.35024e-194
6.55926e-194
6.74509e-194
6.89692e-194
7.02774e-194
7.12537e-194
7.19563e-194
7.24217e-194
7.25525e-194
2.61411e-197
1.05816e-196
2.41124e-196
4.51606e-196
7.56532e-196
1.18186e-195
1.7486e-195
2.48613e-195
3.40799e-195
4.54697e-195
5.91751e-195
7.52791e-195
9.41253e-195
1.15607e-194
1.39691e-194
1.66724e-194
1.95901e-194
2.2736e-194
2.61118e-194
2.9646e-194
3.32772e-194
3.70137e-194
4.08117e-194
4.46905e-194
4.85011e-194
5.21797e-194
5.58645e-194
5.93874e-194
6.26366e-194
6.56879e-194
6.84847e-194
7.09855e-194
7.32559e-194
7.53577e-194
7.71125e-194
7.84236e-194
7.9527e-194
8.02924e-194
8.08106e-194
8.11026e-194
3.21562e-197
1.30826e-196
2.96507e-196
5.53701e-196
9.25135e-196
1.443e-195
2.132e-195
3.02584e-195
4.14793e-195
5.5308e-195
7.19137e-195
9.15269e-195
1.14353e-194
1.40452e-194
1.69663e-194
2.02303e-194
2.38028e-194
2.76302e-194
3.17151e-194
3.59886e-194
4.0402e-194
4.4973e-194
4.95966e-194
5.4241e-194
5.88468e-194
6.33838e-194
6.77053e-194
7.18965e-194
7.58251e-194
7.9472e-194
8.28069e-194
8.5784e-194
8.87899e-194
9.12106e-194
9.33662e-194
9.50884e-194
9.63752e-194
9.73992e-194
9.78756e-194
9.79311e-194
4.1286e-197
1.70299e-196
3.84639e-196
7.14669e-196
1.19159e-195
1.85234e-195
2.73109e-195
3.87846e-195
5.3093e-195
7.08252e-195
9.20215e-195
1.17097e-194
1.46431e-194
1.79423e-194
2.17106e-194
2.58718e-194
3.03791e-194
3.52235e-194
4.04636e-194
4.58997e-194
5.15617e-194
5.7358e-194
6.32169e-194
6.90976e-194
7.48749e-194
8.05675e-194
8.61263e-194
9.13849e-194
9.61698e-194
1.0096e-193
1.0516e-193
1.09243e-193
1.12686e-193
1.1573e-193
1.18293e-193
1.20555e-193
1.22115e-193
1.23173e-193
1.23956e-193
1.24381e-193
5.63422e-197
2.27237e-196
5.12108e-196
9.46693e-196
1.57418e-195
2.44433e-195
3.59864e-195
5.09313e-195
6.96796e-195
9.29058e-195
1.20757e-194
1.53559e-194
1.91785e-194
2.35527e-194
2.84831e-194
3.3854e-194
3.97799e-194
4.61932e-194
5.29501e-194
6.00164e-194
6.72058e-194
7.48434e-194
8.25354e-194
9.02532e-194
9.77785e-194
1.05242e-193
1.125e-193
1.19304e-193
1.25752e-193
1.31722e-193
1.37416e-193
1.42306e-193
1.46861e-193
1.50736e-193
1.53985e-193
1.5647e-193
1.58901e-193
1.60559e-193
1.61294e-193
1.61771e-193
7.64265e-197
3.07274e-196
6.89873e-196
1.26921e-195
2.10652e-195
3.26098e-195
4.79381e-195
6.77331e-195
9.26413e-195
1.23363e-194
1.60307e-194
2.03935e-194
2.54005e-194
3.12037e-194
3.7721e-194
4.48854e-194
5.27289e-194
6.11717e-194
7.00484e-194
7.94846e-194
8.93068e-194
9.89301e-194
1.09234e-193
1.19384e-193
1.29364e-193
1.3893e-193
1.48464e-193
1.57401e-193
1.66007e-193
1.73512e-193
1.80786e-193
1.87176e-193
1.93251e-193
1.98144e-193
2.0213e-193
2.05698e-193
2.08663e-193
2.10879e-193
2.12103e-193
2.12735e-193
1.05405e-196
4.19379e-196
9.32535e-196
1.71267e-195
2.83323e-195
4.37317e-195
6.42059e-195
9.06389e-195
1.23862e-194
1.64736e-194
2.13801e-194
2.71789e-194
3.39706e-194
4.15779e-194
5.02253e-194
5.97214e-194
7.02612e-194
8.14901e-194
9.34247e-194
1.05713e-193
1.18693e-193
1.31736e-193
1.45096e-193
1.58416e-193
1.71477e-193
1.84623e-193
1.96761e-193
2.0854e-193
2.20036e-193
2.30394e-193
2.39967e-193
2.48835e-193
2.55559e-193
2.61713e-193
2.68029e-193
2.72854e-193
2.75678e-193
2.78461e-193
2.80813e-193
2.81578e-193
1.41272e-196
5.74117e-196
1.27161e-195
2.31279e-195
3.81067e-195
5.87828e-195
8.61138e-195
1.21368e-194
1.6574e-194
2.2011e-194
2.86056e-194
3.63756e-194
4.53195e-194
5.55586e-194
6.70318e-194
7.98201e-194
9.36812e-194
1.08576e-193
1.24448e-193
1.41142e-193
1.57959e-193
1.75819e-193
1.92971e-193
2.10452e-193
2.27987e-193
2.44675e-193
2.6104e-193
2.76661e-193
2.91633e-193
3.05651e-193
3.18137e-193
3.28855e-193
3.37372e-193
3.47626e-193
3.54892e-193
3.6078e-193
3.65224e-193
3.68485e-193
3.70494e-193
3.7161e-193
2.07601e-196
7.78894e-196
1.72458e-195
3.13202e-195
5.13624e-195
7.8901e-195
1.15422e-194
1.62564e-194
2.21635e-194
2.93959e-194
3.81367e-194
4.84829e-194
6.04241e-194
7.4025e-194
8.94377e-194
1.06239e-193
1.24761e-193
1.44718e-193
1.65368e-193
1.87545e-193
2.10408e-193
2.3323e-193
2.56036e-193
2.79488e-193
3.02829e-193
3.25086e-193
3.46356e-193
3.65883e-193
3.85977e-193
4.03804e-193
4.20536e-193
4.35781e-193
4.49881e-193
4.58952e-193
4.68718e-193
4.76663e-193
4.81705e-193
4.87065e-193
4.89836e-193
4.90843e-193
2.76793e-196
1.08671e-195
2.34486e-195
4.22981e-195
6.90996e-195
1.05753e-194
1.54597e-194
2.17286e-194
2.96108e-194
3.92763e-194
5.09025e-194
6.46135e-194
8.04852e-194
9.86294e-194
1.19033e-193
1.41573e-193
1.65775e-193
1.92389e-193
2.19956e-193
2.49106e-193
2.79317e-193
3.09708e-193
3.40671e-193
3.71619e-193
4.00963e-193
4.29867e-193
4.58926e-193
4.85479e-193
5.10117e-193
5.33368e-193
5.55487e-193
5.75338e-193
5.92885e-193
6.08116e-193
6.19095e-193
6.29451e-193
6.38171e-193
6.42533e-193
6.46232e-193
6.47321e-193
4.03278e-196
1.47938e-195
3.18471e-195
5.6964e-195
9.26853e-195
1.4186e-194
2.06532e-194
2.9001e-194
3.94941e-194
5.23642e-194
6.78361e-194
8.60545e-194
1.0723e-193
1.31212e-193
1.58038e-193
1.88041e-193
2.20739e-193
2.55465e-193
2.92854e-193
3.31044e-193
3.70585e-193
4.1119e-193
4.52058e-193
4.91341e-193
5.33107e-193
5.72289e-193
6.06732e-193
6.43406e-193
6.75786e-193
7.06829e-193
7.35336e-193
7.59302e-193
7.80624e-193
8.00123e-193
8.16678e-193
8.28754e-193
8.39941e-193
8.4735e-193
8.50955e-193
8.53341e-193
5.34017e-196
2.01694e-195
4.30726e-195
7.67736e-195
1.24634e-194
1.89588e-194
2.7564e-194
3.86475e-194
5.25244e-194
6.95546e-194
9.01059e-194
1.14248e-193
1.42276e-193
1.741e-193
2.10046e-193
2.48977e-193
2.92017e-193
3.37779e-193
3.86729e-193
4.37464e-193
4.90106e-193
5.43478e-193
5.95815e-193
6.50199e-193
7.03208e-193
7.54185e-193
8.03896e-193
8.46474e-193
8.88403e-193
9.31716e-193
9.67457e-193
9.98189e-193
1.02825e-192
1.05072e-192
1.07312e-192
1.08915e-192
1.10203e-192
1.11249e-192
1.11786e-192
1.11973e-192
7.69136e-196
2.73464e-195
5.81238e-195
1.0292e-194
1.66561e-194
2.52921e-194
3.67121e-194
5.13874e-194
6.97677e-194
9.23845e-194
1.19431e-193
1.51501e-193
1.88483e-193
2.30887e-193
2.77872e-193
3.29569e-193
3.86844e-193
4.47595e-193
5.10324e-193
5.77201e-193
6.47105e-193
7.16773e-193
7.86314e-193
8.59294e-193
9.26563e-193
9.92535e-193
1.05827e-192
1.12089e-192
1.17552e-192
1.22415e-192
1.27222e-192
1.31608e-192
1.35168e-192
1.38483e-192
1.41281e-192
1.43518e-192
1.44764e-192
1.46147e-192
1.47073e-192
1.47455e-192
1.04417e-195
3.72634e-195
7.81716e-195
1.37719e-194
2.22475e-194
3.37281e-194
4.87788e-194
6.82183e-194
9.24673e-194
1.22288e-193
1.58077e-193
2.00234e-193
2.49276e-193
3.05034e-193
3.67102e-193
4.36408e-193
5.10775e-193
5.90189e-193
6.75246e-193
7.63145e-193
8.52322e-193
9.44346e-193
1.03911e-192
1.12922e-192
1.2206e-192
1.30918e-192
1.39022e-192
1.46991e-192
1.54503e-192
1.60832e-192
1.66749e-192
1.72378e-192
1.76972e-192
1.81439e-192
1.84841e-192
1.8746e-192
1.90652e-192
1.91816e-192
1.91769e-192
1.92689e-192
1.4427e-195
5.07738e-195
1.05335e-194
1.85329e-194
2.96531e-194
4.48267e-194
6.47925e-194
9.03539e-194
1.22308e-193
1.61679e-193
2.08693e-193
2.64454e-193
3.28578e-193
4.02566e-193
4.84492e-193
5.75452e-193
6.72539e-193
7.77121e-193
8.88265e-193
1.00454e-192
1.12405e-192
1.24317e-192
1.36202e-192
1.48433e-192
1.60211e-192
1.71556e-192
1.82521e-192
1.92466e-192
2.0203e-192
2.10779e-192
2.17738e-192
2.25406e-192
2.31096e-192
2.36261e-192
2.40862e-192
2.46046e-192
2.4861e-192
2.50439e-192
2.523e-192
2.52596e-192
1.94474e-195
6.79557e-195
1.41552e-194
2.46728e-194
3.93874e-194
5.94649e-194
8.57744e-194
1.19555e-193
1.61652e-193
2.13745e-193
2.75606e-193
3.48797e-193
4.3351e-193
5.29943e-193
6.37723e-193
7.56155e-193
8.84159e-193
1.02169e-192
1.16513e-192
1.31656e-192
1.47249e-192
1.63369e-192
1.79567e-192
1.94845e-192
2.09393e-192
2.24064e-192
2.38495e-192
2.51446e-192
2.63858e-192
2.75543e-192
2.86504e-192
2.94686e-192
3.04503e-192
3.11422e-192
3.16515e-192
3.20915e-192
3.24485e-192
3.26504e-192
3.27576e-192
3.2905e-192
2.70895e-195
9.31624e-195
1.89492e-194
3.28318e-194
5.24652e-194
7.87549e-194
1.13346e-193
1.57784e-193
2.13135e-193
2.81216e-193
3.6209e-193
4.58429e-193
5.69335e-193
6.95982e-193
8.37117e-193
9.92899e-193
1.16163e-192
1.33928e-192
1.53319e-192
1.73085e-192
1.93391e-192
2.13895e-192
2.33866e-192
2.54628e-192
2.74493e-192
2.93529e-192
3.11399e-192
3.2945e-192
3.4537e-192
3.60207e-192
3.73345e-192
3.8579e-192
3.95695e-192
4.05185e-192
4.12478e-192
4.17457e-192
4.22284e-192
4.25617e-192
4.2814e-192
4.28664e-192
3.70522e-195
1.24145e-194
2.53006e-194
4.36412e-194
6.9341e-194
1.03834e-193
1.49626e-193
2.07721e-193
2.80395e-193
3.6982e-193
4.76185e-193
6.02503e-193
7.47534e-193
9.12653e-193
1.09744e-192
1.3004e-192
1.52172e-192
1.75707e-192
2.00423e-192
2.26111e-192
2.52544e-192
2.79201e-192
3.0627e-192
3.32414e-192
3.57989e-192
3.81748e-192
4.06334e-192
4.29191e-192
4.49836e-192
4.68607e-192
4.86065e-192
5.01212e-192
5.13957e-192
5.25903e-192
5.36015e-192
5.4305e-192
5.48895e-192
5.531e-192
5.56538e-192
5.57472e-192
5.0193e-195
1.66336e-194
3.35048e-194
5.79301e-194
9.17027e-194
1.3729e-193
1.9689e-193
2.73121e-193
3.68295e-193
4.84842e-193
6.24334e-193
7.88537e-193
9.77683e-193
1.19352e-192
1.43455e-192
1.69924e-192
1.98823e-192
2.29627e-192
2.61269e-192
2.94566e-192
3.29794e-192
3.64069e-192
3.99149e-192
4.33709e-192
4.66839e-192
4.97362e-192
5.28472e-192
5.57843e-192
5.84063e-192
6.09931e-192
6.30757e-192
6.50627e-192
6.68422e-192
6.81461e-192
6.9424e-192
7.03624e-192
7.10385e-192
7.16933e-192
7.19662e-192
7.21599e-192
6.83982e-195
2.23744e-194
4.495e-194
7.68082e-194
1.20834e-193
1.80402e-193
2.58713e-193
3.58101e-193
4.82441e-193
6.34652e-193
8.16903e-193
1.03003e-192
1.27836e-192
1.55845e-192
1.87259e-192
2.21856e-192
2.59272e-192
2.99375e-192
3.41793e-192
3.85823e-192
4.2979e-192
4.74629e-192
5.20441e-192
5.62699e-192
6.06576e-192
6.49129e-192
6.84714e-192
7.24132e-192
7.59256e-192
7.90726e-192
8.20867e-192
8.44651e-192
8.66518e-192
8.84827e-192
8.98268e-192
9.07563e-192
9.21456e-192
9.28267e-192
9.33159e-192
9.33289e-192
9.26879e-195
2.98661e-194
5.93672e-194
1.01116e-193
1.59211e-193
2.36563e-193
3.38854e-193
4.68475e-193
6.3083e-193
8.28818e-193
1.06541e-192
1.34507e-192
1.66615e-192
2.03019e-192
2.43984e-192
2.88422e-192
3.37257e-192
3.89596e-192
4.4405e-192
5.00143e-192
5.57817e-192
6.16799e-192
6.74895e-192
7.33092e-192
7.85367e-192
8.38054e-192
8.92267e-192
9.38591e-192
9.83933e-192
1.02345e-191
1.05935e-191
1.08827e-191
1.11849e-191
1.13871e-191
1.15955e-191
1.17995e-191
1.18825e-191
1.19611e-191
1.20195e-191
1.20331e-191
1.24847e-194
3.96478e-194
7.83083e-194
1.33399e-193
2.08863e-193
3.10699e-193
4.43001e-193
6.11985e-193
8.22371e-193
1.08063e-192
1.38794e-192
1.75239e-192
2.16815e-192
2.6436e-192
3.17478e-192
3.75581e-192
4.39312e-192
5.0552e-192
5.75561e-192
6.48307e-192
7.22464e-192
7.95574e-192
8.72716e-192
9.46452e-192
1.02183e-191
1.08962e-191
1.15366e-191
1.20858e-191
1.26788e-191
1.31775e-191
1.36478e-191
1.41131e-191
1.44398e-191
1.47576e-191
1.49352e-191
1.51441e-191
1.52645e-191
1.53306e-191
1.54404e-191
1.54428e-191
1.62566e-194
5.24636e-194
1.03482e-193
1.74177e-193
2.73182e-193
4.05777e-193
5.7735e-193
7.97387e-193
1.07068e-192
1.40646e-192
1.80658e-192
2.27566e-192
2.81927e-192
3.43246e-192
4.11584e-192
4.87601e-192
5.68521e-192
6.54013e-192
7.45001e-192
8.38865e-192
9.33808e-192
1.03506e-191
1.13177e-191
1.22812e-191
1.31673e-191
1.40724e-191
1.4848e-191
1.571e-191
1.63312e-191
1.69824e-191
1.76112e-191
1.80733e-191
1.85497e-191
1.89308e-191
1.92709e-191
1.94404e-191
1.9642e-191
1.98267e-191
1.98124e-191
1.9952e-191
2.27235e-194
6.9616e-194
1.35863e-193
2.29219e-193
3.5766e-193
5.28003e-193
7.53166e-193
1.03723e-192
1.39067e-192
1.82531e-192
2.34242e-192
2.94974e-192
3.65136e-192
4.44297e-192
5.32579e-192
6.29978e-192
7.35277e-192
8.48127e-192
9.64406e-192
1.08343e-191
1.21015e-191
1.33274e-191
1.45819e-191
1.58208e-191
1.70029e-191
1.81237e-191
1.92211e-191
2.01943e-191
2.11417e-191
2.1991e-191
2.26677e-191
2.33164e-191
2.37922e-191
2.4294e-191
2.47113e-191
2.4997e-191
2.51054e-191
2.54037e-191
2.55987e-191
2.55821e-191
2.97281e-194
9.12426e-194
1.78751e-193