/*--------------------------------*- C++ -*----------------------------------*\
| =========                 |                                                 |
| \\      /  F ield         | OpenFOAM: The Open Source CFD Toolbox           |
|  \\    /   O peration     | Version:  2.3.0                                 |
|   \\  /    A nd           | Web:      www.OpenFOAM.org                      |
|    \\/     M anipulation  |                                                 |
\*---------------------------------------------------------------------------*/
FoamFile
{
    version     2.0;
    format      ascii;
    class       volScalarField;
    location    "0.1";
    object      k;
}
// * * * * * * * * * * * * * * * * * * * * * * * * * * * * * * * * * * * * * //

dimensions      [0 2 -2 0 0 0 0];

internalField   nonuniform List<scalar> 
26600
(
0.0909182
0.317658
0.609317
0.885845
1.11553
1.29004
1.41558
1.49931
1.55407
1.59327
1.63251
1.67511
1.71955
1.76101
1.80251
1.84597
1.89186
1.93233
1.97142
2.00373
2.03159
2.05626
2.07345
2.08749
2.09935
2.10389
2.1029
2.10001
2.09638
2.09184
2.08681
2.08176
2.07883
2.07724
2.07624
2.08401
2.08626
2.10067
2.10302
2.22356
0.0457629
0.0571486
0.0738063
0.0994429
0.135503
0.181451
0.245839
0.339462
0.481732
0.682727
0.908187
1.11614
1.28418
1.42562
1.53301
1.61165
1.6706
1.70191
1.72439
1.73078
1.72889
1.72314
1.70293
1.68374
1.65816
1.63339
1.6035
1.56452
1.53615
1.50382
1.46914
1.43403
1.40379
1.37092
1.34865
1.3185
1.30756
1.27355
1.28906
1.2434
0.065347
0.0891552
0.120006
0.181683
0.263361
0.371947
0.54196
0.759357
0.997191
1.23032
1.44353
1.60727
1.73581
1.83428
1.89628
1.93297
1.94266
1.93982
1.93072
1.90688
1.88315
1.85586
1.81619
1.79046
1.7591
1.73072
1.68873
1.64802
1.60666
1.55846
1.51021
1.46374
1.41751
1.37811
1.34276
1.31254
1.28168
1.26359
1.25345
1.16421
0.0563938
0.0844655
0.135645
0.210376
0.343226
0.537653
0.778998
1.04265
1.30107
1.53496
1.72478
1.84867
1.94426
2.00095
2.02742
2.0279
2.017
2.0043
1.97719
1.93408
1.91226
1.8864
1.84503
1.79881
1.75619
1.71675
1.66737
1.63036
1.58085
1.53232
1.49743
1.46159
1.41422
1.37581
1.33851
1.29833
1.27232
1.26559
1.27059
1.2052
0.0571671
0.0954304
0.170167
0.270181
0.471561
0.730838
1.01793
1.30453
1.55446
1.75404
1.8822
1.95564
2.01579
2.03698
2.03585
2.02436
1.99584
1.97947
1.94937
1.89131
1.85714
1.81565
1.75648
1.70644
1.68813
1.65121
1.6061
1.57343
1.51913
1.47507
1.45085
1.3926
1.3796
1.34011
1.31027
1.28902
1.29172
1.29686
1.34448
1.2692
0.0509642
0.108939
0.19071
0.326819
0.593631
0.904947
1.22125
1.50582
1.71017
1.8457
1.91819
1.95967
1.97895
1.97066
1.95011
1.93663
1.90924
1.85589
1.80426
1.76512
1.73367
1.68534
1.62273
1.58492
1.552
1.53187
1.51184
1.5017
1.47985
1.47606
1.44989
1.44159
1.47606
1.50428
1.53729
1.61419
1.74859
1.87263
2.0536
1.69888
0.0529976
0.123104
0.217416
0.419393
0.738353
1.0789
1.39484
1.62772
1.76395
1.84217
1.85727
1.86351
1.85261
1.82743
1.80346
1.75657
1.728
1.68073
1.60547
1.56125
1.52649
1.49643
1.47513
1.46844
1.47764
1.50044
1.54301
1.57446
1.63453
1.72717
1.9004
2.02803
2.19429
2.48522
2.81417
3.34423
3.72409
4.19718
4.47224
4.72585
0.0582272
0.130456
0.287115
0.576132
0.914949
1.24876
1.50806
1.66326
1.73018
1.73601
1.71558
1.68905
1.66326
1.60599
1.55334
1.51017
1.46099
1.43847
1.38903
1.35738
1.36435
1.38553
1.40599
1.45525
1.5444
1.7342
1.94853
2.16557
2.56736
3.11271
3.61238
4.05408
4.39747
4.87737
5.35697
5.75483
5.90418
6.205
6.25613
6.60622
0.0577054
0.183291
0.461301
0.781591
1.10522
1.36984
1.54178
1.60773
1.60302
1.56837
1.51197
1.44494
1.37183
1.2956
1.24553
1.18493
1.2064
1.20143
1.21045
1.24503
1.33857
1.4701
1.62482
1.98014
2.44218
2.94405
3.4833
3.93216
4.37115
4.75121
4.97086
5.20681
5.41096
5.66621
5.84715
5.86876
5.83131
5.7796
5.66775
5.94618
0.0732864
0.336352
0.687209
0.993527
1.2409
1.40831
1.47482
1.46107
1.4191
1.34073
1.2139
1.11778
0.985508
0.934208
0.875097
0.879725
0.950296
1.08675
1.21618
1.47853
1.95895
2.3845
2.82448
3.3555
3.75101
4.08151
4.31343
4.34048
4.2564
4.10412
3.93744
3.80399
3.69788
3.61939
3.54839
3.47277
3.41695
3.41645
3.42352
3.65267
0.119244
0.532002
0.88226
1.12362
1.28091
1.33716
1.30801
1.24319
1.14896
1.03885
0.832112
0.721569
0.599218
0.602404
0.650011
0.762961
1.05942
1.3472
1.96688
2.43542
2.84474
3.08192
3.27677
3.20649
3.00131
2.61859
2.19828
1.8139
1.6067
1.51707
1.49342
1.50462
1.52811
1.56638
1.61288
1.65814
1.71325
1.79069
1.84653
2.00243
0.229194
0.681406
0.982202
1.15324
1.20446
1.1656
1.0538
0.93041
0.770275
0.620927
0.456957
0.418262
0.44144
0.53049
0.741997
1.22291
1.728
2.07729
2.36856
2.23459
1.88517
1.52511
1.18398
0.942563
0.809818
0.73792
0.711766
0.711221
0.725475
0.757707
0.810383
0.866464
0.927293
0.989435
1.05252
1.1163
1.18198
1.25095
1.29692
1.38632
0.286307
0.741079
0.993087
1.06225
1.03116
0.910099
0.72419
0.505942
0.361322
0.295821
0.307555
0.365294
0.53803
1.0303
1.34443
1.82907
1.72901
1.44122
0.861582
0.578937
0.46826
0.42809
0.419463
0.428202
0.444965
0.473327
0.51832
0.570501
0.626588
0.68537
0.746142
0.805371
0.863903
0.922667
0.9811
1.03931
1.09695
1.15316
1.19624
1.26158
0.298188
0.733956
0.879721
0.866118
0.781005
0.564748
0.329103
0.210077
0.206851
0.233942
0.345605
0.705591
1.04359
1.51037
1.38527
0.860958
0.468376
0.338387
0.292758
0.296868
0.308994
0.333098
0.370616
0.416512
0.47394
0.537446
0.605818
0.671993
0.73471
0.795404
0.852276
0.90481
0.954318
1.00259
1.05049
1.09839
1.14593
1.19227
1.23621
1.30018
0.286705
0.603514
0.638428
0.58845
0.416521
0.225345
0.141551
0.144742
0.201735
0.379301
0.761633
1.18314
1.1054
0.697644
0.362243
0.23271
0.220929
0.232485
0.262324
0.306988
0.372572
0.445276
0.513264
0.57642
0.638802
0.702663
0.767561
0.829365
0.886431
0.939442
0.987797
1.03178
1.07304
1.11346
1.15412
1.19534
1.23711
1.27927
1.32418
1.38737
0.233028
0.323287
0.301039
0.21837
0.129314
0.0977424
0.110134
0.189854
0.536952
0.728867
0.900785
0.691579
0.33024
0.201269
0.177665
0.18579
0.214146
0.28389
0.381551
0.471814
0.550186
0.617092
0.67912
0.742421
0.806147
0.868949
0.929266
0.984425
1.03382
1.07836
1.11846
1.15513
1.19011
1.22505
1.26092
1.29783
1.33598
1.37563
1.42041
1.48047
0.102434
0.0949717
0.0792713
0.0609875
0.0629745
0.0857339
0.206101
0.581184
0.842307
0.732058
0.393184
0.211041
0.149027
0.154479
0.170688
0.222128
0.333745
0.459105
0.562499
0.646185
0.717949
0.784335
0.848004
0.911108
0.97162
1.0282
1.08015
1.12628
1.16678
1.20285
1.23552
1.26613
1.29632
1.3274
1.35981
1.39327
1.42843
1.46628
1.5093
1.56341
0.0455519
0.0426487
0.0427142
0.0451434
0.0749883
0.231593
0.651739
0.853353
0.669426
0.269403
0.147337
0.125593
0.134388
0.159046
0.233227
0.384914
0.530783
0.65074
0.740536
0.816147
0.884581
0.947424
1.00825
1.06717
1.12048
1.16786
1.21
1.2468
1.27891
1.3077
1.33443
1.3605
1.38713
1.41502
1.44442
1.47514
1.50775
1.54275
1.58223
1.62747
0.0419637
0.040605
0.0461701
0.0783937
0.261792
0.66306
0.835283
0.596107
0.22048
0.117591
0.10805
0.116032
0.149024
0.245337
0.431402
0.600093
0.736163
0.833401
0.904299
0.972141
1.03581
1.09361
1.14956
1.20145
1.24512
1.28233
1.3149
1.34325
1.36825
1.39128
1.41343
1.43589
1.45958
1.4849
1.51167
1.53906
1.56851
1.59965
1.63349
1.6708
0.11193
0.103032
0.138148
0.306545
0.70109
0.748968
0.519545
0.201008
0.105238
0.0958
0.102687
0.139767
0.252012
0.469738
0.659697
0.814561
0.918471
0.987281
1.04436
1.10776
1.16589
1.21744
1.26662
1.30966
1.34291
1.37055
1.39478
1.416
1.43509
1.45336
1.47182
1.49134
1.51252
1.53487
1.5581
1.58122
1.60797
1.6358
1.66559
1.69698
0.138986
0.242397
0.341381
0.642463
0.578681
0.363936
0.171938
0.102759
0.0896147
0.0979456
0.139403
0.256857
0.493142
0.711102
0.882817
0.997232
1.0624
1.10802
1.15886
1.22007
1.27189
1.31681
1.35797
1.39104
1.41473
1.43412
1.45104
1.46602
1.47998
1.49435
1.50956
1.52591
1.54364
1.56278
1.58301
1.60486
1.62924
1.65468
1.6812
1.70824
0.0421018
0.0700316
0.0797112
0.0891913
0.0917451
0.0849729
0.0803884
0.0852206
0.104972
0.157612
0.276374
0.507105
0.751377
0.947827
1.06643
1.12944
1.16271
1.19874
1.25024
1.30576
1.35405
1.39287
1.42452
1.44731
1.4626
1.47448
1.4846
1.49414
1.50351
1.51392
1.52565
1.53895
1.5541
1.57158
1.59146
1.61304
1.63617
1.66009
1.6841
1.70778
0.0585374
0.0594151
0.0591145
0.0604621
0.0663207
0.0742194
0.0873148
0.119399
0.188134
0.306274
0.517462
0.778102
1.00592
1.12899
1.17485
1.20185
1.22827
1.26428
1.31931
1.37226
1.41429
1.44501
1.46715
1.48036
1.48782
1.49292
1.49768
1.50248
1.50715
1.51384
1.52282
1.53509
1.55048
1.56864
1.589
1.61015
1.63225
1.65464
1.67638
1.69706
0.0563695
0.0681647
0.0695922
0.0763543
0.0926691
0.107057
0.13327
0.198735
0.331732
0.537592
0.805025
1.05265
1.17707
1.21333
1.21971
1.2338
1.26712
1.31435
1.36968
1.41804
1.45303
1.47508
1.48777
1.49306
1.49415
1.49321
1.49204
1.49131
1.49121
1.49775
1.50761
1.52117
1.53781
1.55692
1.57769
1.59825
1.6193
1.64011
1.65975
1.67772
0.0525245
0.0587792
0.0723161
0.108657
0.143911
0.169359
0.217222
0.34046
0.576203
0.849272
1.08797
1.21034
1.24031
1.2339
1.22934
1.24618
1.29193
1.34788
1.40265
1.44528
1.47203
1.48616
1.49116
1.4891
1.483
1.47503
1.46843
1.46496
1.46659
1.47425
1.48569
1.50079
1.51854
1.53812
1.55863
1.57881
1.59887
1.61805
1.63559
1.65093
0.0513434
0.0612418
0.0835835
0.157249
0.240548
0.298373
0.39947
0.629191
0.902318
1.10373
1.21818
1.25521
1.24137
1.21277
1.21484
1.24829
1.30873
1.36923
1.42099
1.45692
1.47674
1.48331
1.4792
1.46872
1.45491
1.44077
1.43405
1.43255
1.43676
1.44631
1.45959
1.47605
1.49458
1.51426
1.53422
1.55369
1.57239
1.58967
1.60499
1.61785
0.0466113
0.067753
0.131086
0.331285
0.491688
0.58469
0.738918
0.946004
1.1027
1.19748
1.24016
1.21989
1.17323
1.1584
1.18482
1.24672
1.31799
1.38063
1.42802
1.45726
1.46874
1.46589
1.45276
1.4339
1.41515
1.40241
1.3975
1.39836
1.40495
1.4165
1.43104
1.4484
1.46724
1.48661
1.50572
1.52393
1.54083
1.55595
1.56893
1.57923
0.0791374
0.144675
0.41611
0.730743
0.848933
0.885132
0.955582
1.06785
1.15084
1.1814
1.16025
1.10801
1.07822
1.09572
1.15721
1.24132
1.32107
1.38413
1.42656
1.4477
1.44984
1.43694
1.41446
1.39066
1.3729
1.36322
1.36072
1.36403
1.37259
1.38534
1.40105
1.41881
1.43742
1.456
1.47382
1.49029
1.50504
1.5178
1.52834
1.53576
0.0895071
0.389704
0.843774
0.984006
0.988035
0.966291
0.983621
1.03956
1.05142
1.03971
1.00509
0.975876
0.987355
1.04495
1.13861
1.23752
1.32173
1.38259
1.41822
1.43024
1.42198
1.39854
1.37016
1.34709
1.33222
1.32552
1.32524
1.33062
1.34067
1.35429
1.37042
1.38794
1.40581
1.42316
1.43927
1.45361
1.46594
1.4762
1.48423
1.48873
0.0670287
0.390031
0.74462
0.820782
0.793444
0.777166
0.803612
0.830249
0.844328
0.849872
0.850431
0.865769
0.919577
1.01484
1.12908
1.23662
1.32176
1.37803
1.4052
1.40702
1.38743
1.3558
1.32703
1.30645
1.29456
1.29028
1.29182
1.29867
1.30964
1.32362
1.33955
1.35637
1.37307
1.38881
1.40287
1.4148
1.42451
1.43221
1.4377
1.43967
0.0460372
0.210763
0.393471
0.423334
0.437474
0.482628
0.528188
0.582555
0.647165
0.698223
0.739273
0.794034
0.882138
1.00077
1.12724
1.23908
1.32228
1.37181
1.38943
1.37989
1.34983
1.31499
1.28784
1.26976
1.26034
1.25777
1.26077
1.26852
1.27984
1.29366
1.30895
1.32468
1.3399
1.35374
1.3655
1.37484
1.38186
1.38704
1.39012
1.38972
0.0436794
0.0869192
0.136202
0.162451
0.206678
0.259968
0.337635
0.438265
0.537264
0.614558
0.67937
0.757307
0.865784
0.998066
1.13189
1.24481
1.32388
1.36502
1.37233
1.35083
1.31338
1.27864
1.25331
1.23729
1.22972
1.22836
1.23225
1.24036
1.25158
1.26484
1.27915
1.29352
1.30702
1.31877
1.32813
1.33486
1.33921
1.34189
1.34314
1.34038
0.0453733
0.0553594
0.0710932
0.095156
0.127972
0.18396
0.275982
0.388292
0.494527
0.579434
0.653854
0.743241
0.862633
1.00355
1.14141
1.25322
1.32656
1.35856
1.35489
1.32258
1.28139
1.2474
1.22352
1.20901
1.20268
1.20207
1.20636
1.21443
1.22519
1.2376
1.2507
1.26353
1.27518
1.2848
1.29183
1.2961
1.29793
1.29837
1.29845
1.29351
0.0468205
0.0499465
0.0614975
0.085431
0.115759
0.176111
0.269353
0.380124
0.484584
0.569708
0.646902
0.741419
0.867691
1.01423
1.15398
1.2634
1.3301
1.35312
1.3381
1.29729
1.25455
1.22117
1.19828
1.18476
1.17917
1.17891
1.18324
1.19098
1.20104
1.21241
1.22417
1.2354
1.24522
1.2528
1.25768
1.25988
1.25976
1.25808
1.25744
1.25001
0.0471485
0.0488528
0.0603594
0.0855028
0.118389
0.18557
0.279507
0.387182
0.487971
0.571165
0.648915
0.746464
0.877211
1.02743
1.16791
1.27439
1.33431
1.3488
1.32342
1.27651
1.23264
1.19953
1.17722
1.16434
1.15912
1.15893
1.16304
1.17025
1.17948
1.18975
1.20017
1.20989
1.21801
1.22376
1.22677
1.22737
1.22477
1.21892
1.21601
1.21126
0.0471356
0.0484719
0.0600801
0.0860694
0.122805
0.196207
0.291792
0.397985
0.496274
0.577742
0.655314
0.754546
0.888314
1.0411
1.18175
1.28528
1.33887
1.34571
1.31152
1.25992
1.21509
1.18204
1.16012
1.14759
1.14248
1.14219
1.14593
1.15253
1.1609
1.17011
1.17931
1.18769
1.19439
1.19851
1.20004
1.19921
1.19536
1.18874
1.18496
1.18081
0.0471156
0.0482605
0.0597396
0.0857728
0.126154
0.204616
0.302254
0.408101
0.505048
0.585445
0.662825
0.763143
0.899065
1.0537
1.19432
1.29515
1.3434
1.34375
1.3024
1.24717
1.20146
1.16836
1.14671
1.13438
1.12922
1.12874
1.13207
1.13806
1.14564
1.15391
1.16209
1.16941
1.17493
1.17757
1.17762
1.17492
1.17077
1.1652
1.16126
1.15703
0.0471317
0.0481298
0.0593109
0.0848088
0.128086
0.21049
0.310069
0.416092
0.512424
0.592281
0.669606
0.77068
0.908115
1.06406
1.20458
1.30316
1.34745
1.34262
1.29588
1.23787
1.19148
1.1588
1.13681
1.12459
1.11934
1.11866
1.1216
1.12707
1.13401
1.14154
1.14894
1.15546
1.15998
1.16158
1.16009
1.15524
1.15197
1.14794
1.14417
1.13953
0.0471833
0.04807
0.0588837
0.0836827
0.129042
0.214358
0.315483
0.421823
0.517937
0.597599
0.674973
0.776537
0.914909
1.07164
1.21198
1.30893
1.35056
1.3421
1.29172
1.23189
1.18504
1.15189
1.13045
1.11821
1.11286
1.11202
1.11469
1.11979
1.12627
1.13331
1.14019
1.14619
1.15003
1.15099
1.14881
1.14432
1.14074
1.13708
1.13325
1.12822
0.0472739
0.0481649
0.0589974
0.0839455
0.130979
0.218304
0.320459
0.427109
0.523236
0.602887
0.680295
0.782007
0.920629
1.07743
1.21731
1.31311
1.35317
1.34275
1.29049
1.22968
1.18255
1.14927
1.12782
1.11549
1.11005
1.10913
1.11167
1.11661
1.1229
1.12973
1.13641
1.14221
1.1458
1.14655
1.14421
1.13991
1.13626
1.13274
1.12891
1.12374
2.80618
5.78223
7.59127
8.98962
10.1717
11.2084
12.1369
12.9785
13.7468
14.4517
15.1
15.6966
16.2464
16.7521
17.2171
17.6437
18.0346
18.392
18.718
19.0149
19.2846
19.5291
19.7503
19.95
20.13
20.2918
20.4368
20.5665
20.6821
20.7846
20.8753
20.9548
21.0241
21.0839
21.1349
21.1776
21.2127
21.2407
21.2626
21.2797
2.81499
5.79798
7.62113
9.02883
10.219
11.2628
12.1971
13.0432
13.8159
14.5245
15.1759
15.7755
16.3275
16.8353
17.3021
17.7299
18.1219
18.4801
18.8067
19.1039
19.3738
19.6183
19.8394
20.039
20.2186
20.3799
20.5245
20.6537
20.7688
20.8709
20.961
21.0401
21.109
21.1684
21.219
21.2614
21.2963
21.3241
21.3459
21.363
2.82286
5.82486
7.67738
9.10573
10.3114
11.3673
12.312
13.1672
13.9475
14.6626
15.3197
15.9243
16.4803
16.9915
17.4608
17.8909
18.2843
18.6435
18.9707
19.268
19.5377
19.7817
20.002
20.2005
20.379
20.5391
20.6824
20.8102
20.9239
21.0247
21.1135
21.1914
21.2591
21.3175
21.3673
21.4089
21.4431
21.4705
21.4917
21.5085
2.84646
5.88004
7.76484
9.2182
10.4437
11.5163
12.4752
13.3423
14.1331
14.8572
15.5221
16.1331
16.6946
17.2103
17.683
18.1157
18.5111
18.8714
19.1991
19.4964
19.7655
20.0086
20.2278
20.4248
20.6016
20.7599
20.9012
21.0271
21.1388
21.2376
21.3246
21.4008
21.467
21.524
21.5724
21.613
21.6463
21.673
21.6937
21.7101
2.88619
5.96033
7.87956
9.36117
10.6099
11.7024
12.6782
13.5602
14.3639
15.099
15.7731
16.392
16.9601
17.481
17.9578
18.3937
18.7912
19.1527
19.4809
19.778
20.0465
20.2884
20.5059
20.701
20.8757
21.0317
21.1706
21.2941
21.4034
21.4998
21.5846
21.6586
21.7228
21.7781
21.825
21.8643
21.8965
21.9223
21.9424
21.9585
2.9364
6.06042
8.01705
9.52902
10.8033
11.9185
12.9139
13.813
14.6312
15.3789
16.0638
16.6918
17.2672
17.794
18.2754
18.7147
19.1143
19.4772
19.8058
20.1026
20.3701
20.6105
20.8261
21.0189
21.1911
21.3444
21.4805
21.6011
21.7076
21.8014
21.8836
21.9552
22.0171
22.0704
22.1155
22.1533
22.1843
22.2092
22.2287
22.2445
2.99465
6.17653
8.17327
9.71737
11.0194
12.159
13.1758
14.0937
14.9281
15.6897
16.3864
17.0241
17.6076
18.1408
18.6272
19.0699
19.4719
19.8359
20.1648
20.4612
20.7274
20.966
21.1794
21.3696
21.5389
21.6892
21.8222
21.9397
22.0431
22.1338
22.2131
22.282
22.3416
22.3926
22.4358
22.472
22.5017
22.5255
22.5443
22.56
3.06101
6.30659
8.34543
9.92305
11.2544
12.4194
13.459
14.3969
15.2485
16.0252
16.7344
17.3826
17.9745
18.5144
19.0058
19.4522
19.8564
20.2216
20.5507
20.8462
21.111
21.3476
21.5584
21.7457
21.9119
22.0588
22.1884
22.3025
22.4025
22.49
22.5662
22.6323
22.6892
22.7378
22.779
22.8134
22.8417
22.8645
22.8826
22.898
3.13336
6.44874
8.53153
10.1436
11.5049
12.6967
13.76
14.7186
15.5884
16.3806
17.1028
17.7619
18.3626
18.9093
19.4059
19.8558
20.2622
20.6283
20.9573
21.2519
21.5149
21.7491
21.9571
22.1412
22.3039
22.4472
22.5732
22.6836
22.7801
22.8641
22.9371
23.0001
23.0542
23.1004
23.1394
23.172
23.1988
23.2205
23.2379
23.253
3.21252
6.60166
8.73002
10.3775
11.7694
12.9884
14.0758
15.0558
15.9442
16.7521
17.4879
18.158
18.7675
19.3212
19.8228
20.2761
20.6846
21.0514
21.38
21.6733
21.9343
22.1658
22.3707
22.5514
22.7104
22.8499
22.9719
23.0784
23.1711
23.2516
23.321
23.3809
23.4321
23.4757
23.5124
23.5431
23.5684
23.5889
23.6057
23.6205
3.29659
6.76431
8.93974
10.6233
12.046
13.2927
14.4045
15.4061
16.3132
17.1374
17.8867
18.5678
19.1862
19.7466
20.2532
20.7097
21.1199
21.4872
21.8151
22.1069
22.3655
22.5941
22.7955
22.9725
23.1274
23.2628
23.3807
23.4831
23.5718
23.6484
23.7144
23.7709
23.8192
23.86
23.8945
23.9232
23.9469
23.9663
23.9823
23.9968
3.38662
6.93605
9.15973
10.8797
12.3339
13.6082
14.7446
15.7678
16.6938
17.5341
18.2969
18.9891
19.6162
20.1833
20.6944
21.154
21.5655
21.9331
22.26
22.5498
22.8057
23.0311
23.2288
23.4016
23.5523
23.6832
23.7968
23.8949
23.9795
24.0521
24.1143
24.1674
24.2125
24.2506
24.2826
24.3093
24.3314
24.3496
24.3648
24.3791
3.48093
7.11616
9.38901
11.1461
12.6315
13.9335
15.0947
16.1395
17.0843
17.9406
18.7168
19.4198
20.0555
20.6288
21.1445
21.6066
22.0194
22.3867
22.7123
22.9998
23.2527
23.4744
23.668
23.8365
23.9825
24.1089
24.2178
24.3114
24.3916
24.4601
24.5184
24.5679
24.6098
24.6451
24.6746
24.6993
24.7197
24.7367
24.7511
24.7651
3.58055
7.30304
9.62668
11.421
12.9382
14.268
15.4537
16.5199
17.4835
18.3556
19.145
19.8587
20.5026
21.0819
21.6017
22.0661
22.4797
22.8465
23.1703
23.4551
23.7047
23.9223
24.1115
24.2753
24.4165
24.5379
24.642
24.7308
24.8064
24.8706
24.9249
24.9708
25.0093
25.0417
25.0687
25.0911
25.1098
25.1256
25.1392
25.1529
3.68365
7.49676
9.87164
11.7039
13.253
14.6104
15.8205
16.9083
17.8902
18.778
19.5804
20.3043
20.9562
21.5412
22.0648
22.5312
22.9451
23.3109
23.6327
23.9144
24.1602
24.3735
24.5579
24.7166
24.8527
24.9689
25.0678
25.1516
25.2225
25.2822
25.3324
25.3744
25.4096
25.4388
25.4632
25.4835
25.5005
25.5149
25.5277
25.541
3.79
7.69591
10.1231
11.9939
13.5748
14.9601
16.1944
17.3035
18.3037
19.2067
20.0218
20.7557
21.4152
22.0058
22.5327
23.0007
23.4146
23.779
24.0982
24.3765
24.6181
24.8266
25.0059
25.1592
25.2899
25.4006
25.4941
25.5728
25.6387
25.6937
25.7395
25.7776
25.8092
25.8353
25.857
25.8751
25.8903
25.9034
25.9154
25.9284
3.89951
7.8998
10.3808
12.2903
13.9032
15.316
16.5746
17.7046
18.7228
19.6411
20.4684
21.2121
21.8789
22.4745
23.0043
23.4736
23.8871
24.2496
24.5659
24.8404
25.0773
25.2808
25.4546
25.6022
25.7271
25.832
25.9199
25.9931
26.0538
26.1041
26.1454
26.1794
26.2073
26.2302
26.2491
26.2649
26.2783
26.29
26.3011
26.3138
4.01155
8.10855
10.6436
12.5922
14.2371
15.6777
16.9601
18.111
19.147
20.0802
20.9195
21.6727
22.3464
22.9467
23.4791
23.949
24.3617
24.7221
25.035
25.3052
25.5372
25.7352
25.903
26.0447
26.1634
26.2624
26.3443
26.4118
26.4672
26.5124
26.5491
26.5789
26.6031
26.6227
26.6387
26.6521
26.6636
26.674
26.6842
26.6965
4.12629
8.32082
10.9111
12.8989
14.576
16.0442
17.3506
18.5221
19.5757
20.5233
21.3744
22.1367
22.817
23.4215
23.9562
24.4264
24.8379
25.1956
25.5048
25.7704
25.9969
26.189
26.3507
26.4859
26.5982
26.6907
26.7666
26.8282
26.878
26.918
26.9499
26.9753
26.9956
27.0118
27.025
27.036
27.0456
27.0545
27.0638
27.0758
4.24309
8.53663
11.1824
13.2097
14.9194
16.4153
17.7451
18.9371
20.008
20.97
21.8325
22.6034
23.2901
23.8985
24.4349
24.9052
25.3149
25.6695
25.9746
26.235
26.4558
26.6417
26.7968
26.9253
27.0308
27.1167
27.1861
27.2416
27.2855
27.3201
27.3472
27.3681
27.3844
27.3971
27.4073
27.4158
27.4234
27.4309
27.4392
27.4508
4.36153
8.75512
11.4572
13.5246
15.2665
16.7897
18.1433
19.3556
20.4434
21.4195
22.2932
23.0725
23.765
24.377
24.9148
25.3846
25.7922
26.1434
26.4438
26.6987
26.9134
27.0925
27.2407
27.3621
27.4606
27.5396
27.6023
27.6514
27.6894
27.7184
27.7403
27.7566
27.7688
27.7779
27.785
27.791
27.7966
27.8026
27.8099
27.8212
4.48171
8.97653
11.7348
13.8425
15.6168
17.1672
18.5445
19.7769
20.8817
21.8713
22.7559
23.5434
24.2414
24.8565
25.3954
25.8643
26.2694
26.6167
26.912
27.161
27.3691
27.5412
27.682
27.796
27.887
27.9588
28.0145
28.0571
28.0889
28.1121
28.1287
28.1403
28.1482
28.1536
28.1577
28.161
28.1646
28.1691
28.1755
28.1864
4.60401
9.19941
12.0148
14.1631
15.9695
17.5476
18.9483
20.2005
21.322
22.325
23.2202
24.0156
24.7186
25.3366
25.8761
26.3437
26.7459
27.0888
27.3787
27.6214
27.8224
27.987
28.1201
28.2263
28.3098
28.374
28.4225
28.4581
28.4836
28.5009
28.512
28.5188
28.5223
28.524
28.5247
28.5254
28.5269
28.5298
28.5353
28.5458
4.72689
9.42391
12.2966
14.4854
16.3246
17.93
19.3542
20.6261
21.764
22.7803
23.6858
24.4886
25.1965
25.8168
26.3566
26.8226
27.2213
27.5595
27.8435
28.0794
28.2729
28.4298
28.5548
28.6529
28.7282
28.7847
28.8257
28.8542
28.8729
28.8841
28.8897
28.8914
28.8907
28.8884
28.8859
28.8838
28.8831
28.8844
28.8889
28.899
4.85036
9.64986
12.5801
14.8095
16.6816
18.3143
19.7619
21.0533
22.2073
23.2368
24.1523
24.9622
25.6746
26.297
26.8366
27.3003
27.6953
28.0283
28.3059
28.5347
28.7204
28.869
28.9856
29.0752
29.1421
29.1905
29.2237
29.2449
29.2568
29.2617
29.2616
29.2582
29.2527
29.2465
29.2406
29.2358
29.2329
29.2326
29.236
29.2458
4.97517
9.87644
12.8647
15.1353
17.0399
18.7001
20.1708
21.4816
22.6518
23.6941
24.6192
25.4361
26.1527
26.7767
27.3156
27.777
28.1676
28.4949
28.7658
28.9869
29.1644
29.3043
29.412
29.4928
29.5512
29.5911
29.6163
29.6299
29.6346
29.6331
29.6271
29.6183
29.6082
29.598
29.5887
29.581
29.5759
29.5739
29.5763
29.5857
5.09997
10.104
13.15
15.462
17.3995
19.087
20.5807
21.911
23.0969
24.152
25.0864
25.9098
26.6303
27.2555
27.7936
28.2518
28.6378
28.9591
29.2228
29.4358
29.6046
29.7353
29.8339
29.9055
29.9547
29.986
30.0028
30.0086
30.0062
29.998
29.986
29.9717
29.9569
29.9425
29.9297
29.9192
29.9117
29.9081
29.9094
29.9184
5.22562
10.3315
13.4362
15.7894
17.7599
19.4746
20.9915
22.3409
23.5424
24.61
25.5538
26.3834
27.1073
27.7334
28.27
28.7248
29.1058
29.4206
29.6766
29.8811
30.0407
30.1621
30.2511
30.313
30.3529
30.375
30.3833
30.381
30.3712
30.3561
30.3378
30.3181
30.2984
30.2798
30.2633
30.2498
30.2401
30.2348
30.235
30.2437
5.35267
10.5601
13.7231
16.1174
18.1208
19.8628
21.403
22.7711
23.9883
25.068
26.0209
26.8564
27.5833
28.21
28.7448
29.1958
29.5711
29.879
30.1268
30.3223
30.4724
30.584
30.6629
30.715
30.745
30.7579
30.7574
30.7469
30.7293
30.7071
30.6825
30.6571
30.6324
30.6094
30.5893
30.5729
30.5607
30.5538
30.553
30.5612
5.4788
10.7878
14.0096
16.4453
18.4819
20.2516
21.8144
23.2016
24.4342
25.526
26.4875
27.3286
28.0583
28.6852
29.2178
29.6644
30.0338
30.3341
30.5734
30.7594
30.8996
31.0008
31.0693
31.111
31.131
31.1343
31.1246
31.1056
31.0802
31.0508
31.0197
30.9885
30.9586
30.9313
30.9074
30.8879
30.8735
30.8647
30.8629
30.8707
5.60538
11.016
14.2965
16.7737
18.8432
20.6402
22.2259
23.6322
24.8801
25.9836
26.9536
27.7999
28.5321
29.1587
29.6886
30.1305
30.4934
30.7859
31.016
31.1922
31.3218
31.4122
31.4699
31.5009
31.5107
31.504
31.485
31.4571
31.4236
31.3869
31.3491
31.312
31.2769
31.2452
31.2175
31.1948
31.178
31.1675
31.1645
31.172
5.73316
11.2436
14.5831
17.102
19.2041
21.0289
22.6374
24.0627
25.3257
26.4408
27.4189
28.2703
29.0044
29.6303
30.1571
30.5939
30.9498
31.2337
31.4544
31.6201
31.7389
31.818
31.8646
31.8844
31.8836
31.8668
31.8382
31.8013
31.7595
31.7152
31.6705
31.6274
31.587
31.5506
31.5192
31.4934
31.474
31.4618
31.4577
31.4648
5.85887
11.471
14.8692
17.4294
19.5655
21.4174
23.0487
24.4931
25.7707
26.8973
27.8833
28.7394
29.4751
30.1
30.6231
31.0544
31.4029
31.6778
31.8884
32.0432
32.1505
32.2181
32.2528
32.2615
32.2496
32.2222
32.1836
32.1376
32.0874
32.0354
31.9838
31.9345
31.8888
31.8477
31.8124
31.7835
31.7616
31.7475
31.7422
31.749
5.9877
11.6982
15.1545
17.7571
19.9263
21.8057
23.4596
24.9226
26.2154
27.353
28.3467
29.2072
29.9441
30.5675
31.0868
31.5118
31.8522
32.1177
32.3177
32.4611
32.5566
32.612
32.6347
32.6316
32.6083
32.5702
32.5215
32.466
32.407
32.3472
32.2886
32.2331
32.1819
32.1362
32.0968
32.0646
32.0403
32.0244
32.018
32.0244
6.1129
11.9243
15.4397
18.0843
20.2866
22.1935
23.8703
25.3519
26.6594
27.8079
28.8089
29.6733
30.4113
31.0327
31.5474
31.9657
32.2977
32.5532
32.7422
32.8738
32.9568
32.9996
33.0099
32.9948
32.9599
32.9105
32.8514
32.7863
32.7185
32.6506
32.5849
32.5229
32.4662
32.4158
32.3725
32.337
32.3101
32.2923
32.2849
32.2909
6.24169
12.1503
15.7243
18.4103
20.6462
22.5808
24.2803
25.7806
27.1026
28.2617
29.2698
30.1379
30.8765
31.4954
32.0052
32.4162
32.7392
32.9843
33.1615
33.2807
33.3509
33.3807
33.3784
33.3507
33.3037
33.243
33.1731
33.0982
33.0215
32.9454
32.8723
32.8039
32.7416
32.6864
32.6391
32.6004
32.5709
32.5514
32.5428
32.5484
6.3701
12.3747
16.0079
18.7362
21.0056
22.9674
24.6899
26.2086
27.545
28.7145
29.7293
30.6008
31.3394
31.9555
32.4597
32.8632
33.1766
33.4105
33.5755
33.6819
33.7386
33.7551
33.7396
33.699
33.6398
33.5673
33.4866
33.4015
33.3155
33.2313
33.1509
33.076
33.008
32.9479
32.8965
32.8546
32.8226
32.8012
32.7915
32.7969
6.49518
12.5987
16.2908
19.0613
21.3643
23.3533
25.0987
26.6356
27.9865
29.166
30.1875
31.0619
31.8001
32.4127
32.911
33.3062
33.6094
33.8317
33.9841
34.0768
34.1197
34.1226
34.0935
34.0395
33.9675
33.8832
33.7915
33.6963
33.6009
33.5082
33.4203
33.3389
33.2652
33.2003
33.1449
33.0996
33.065
33.0418
33.031
33.0359
6.62383
12.8226
16.5732
19.3854
21.7216
23.7388
25.5067
27.062
28.4267
29.6162
30.6439
31.5209
32.2582
32.8671
33.3588
33.7452
34.0375
34.2478
34.3869
34.4655
34.4942
34.4829
34.4395
34.3721
34.2871
34.1906
34.0875
33.9819
33.8772
33.776
33.6805
33.5925
33.5131
33.4432
33.3837
33.3352
33.2981
33.2731
33.2612
33.2659
6.75187
13.0453
16.854
19.7088
22.0785
24.1232
25.9139
27.487
28.8657
30.065
31.0985
31.9778
32.7137
33.3182
33.8029
34.1798
34.4609
34.6583
34.7835
34.8475
34.8617
34.8356
34.7778
34.6964
34.5982
34.4893
34.3747
34.2585
34.1442
34.0344
33.9314
33.8367
33.7515
33.6768
33.6133
33.5614
33.5219
33.495
33.4821
33.4864
6.87717
13.2672
17.1347
20.0317
22.4345
24.5068
26.3199
27.9111
29.3035
30.5123
31.5514
32.4324
33.1666
33.766
34.243
34.61
34.8793
35.0632
35.174
35.2229
35.2219
35.1805
35.1079
35.0122
34.9006
34.779
34.6526
34.5257
34.4018
34.2834
34.1728
34.0714
33.9805
33.901
33.8334
33.7783
33.7363
33.7076
33.6935
33.6976
7.00653
13.4889
17.4145
20.353
22.7896
24.8894
26.7251
28.334
29.7398
30.9581
32.0023
32.8844
33.6163
34.2104
34.6793
35.0354
35.292
35.462
35.5576
35.591
35.5744
35.5175
35.4298
35.3194
35.194
35.0595
34.9213
34.7836
34.6499
34.5229
34.4047
34.2966
34.2
34.1157
34.0441
33.9857
33.9411
33.9107
33.8956
33.8995
7.13427
13.7088
17.6928
20.6736
23.1437
25.2707
27.1288
28.7558
30.1747
31.4019
32.4509
33.3337
34.0628
34.6509
35.111
35.4557
35.6993
35.8548
35.9344
35.9521
35.9193
35.8462
35.7428
35.6177
35.4781
35.3305
35.1804
35.0318
34.8884
34.7528
34.6268
34.5122
34.41
34.3207
34.2452
34.1837
34.1366
34.1045
34.0884
34.092
7.26166
13.9276
17.9701
20.9929
23.4966
25.6511
27.5316
29.176
30.608
31.8438
32.8971
33.7802
34.5061
35.0875
35.538
35.8709
36.1007
36.2408
36.3041
36.3054
36.2557
36.1663
36.047
35.9065
35.7528
35.5921
35.43
35.2705
35.1172
34.9728
34.8393
34.7181
34.6102
34.5163
34.4368
34.3722
34.3228
34.289
34.2719
34.2752
7.39019
14.1466
18.2468
21.3113
23.8482
26.0305
27.933
29.5947
31.0397
32.2835
33.3407
34.2236
34.9457
35.5198
35.9601
36.2807
36.4958
36.6197
36.6666
36.6508
36.584
36.4776
36.342
36.1861
36.018
35.844
35.6696
35.4993
35.3362
35.1832
35.0422
34.9143
34.8008
34.7022
34.6189
34.5513
34.4995
34.4642
34.4462
34.4493
7.51783
14.3636
18.5217
21.6281
24.1988
26.4082
28.3329
30.0118
31.4691
32.721
33.7815
34.6639
35.3813
35.9477
36.3772
36.6843
36.8845
36.9916
37.0214
36.9879
36.9034
36.7797
36.6276
36.4562
36.2734
36.086
35.8993
35.718
35.5452
35.3836
35.2351
35.1009
34.9819
34.8788
34.7917
34.7211
34.6671
34.6301
34.6112
34.6142
7.64572
14.5801
18.7963
21.9436
24.548
26.7845
28.7311
30.4272
31.8964
33.1558
34.2194
35.1005
35.813
36.3706
36.7886
37.082
37.2661
37.3558
37.3681
37.3165
37.2138
37.0725
36.9034
36.7161
36.5185
36.3176
36.1188
35.9265
35.7441
35.5741
35.4181
35.2777
35.1535
35.0459
34.9553
34.8818
34.8256
34.7871
34.7673
34.7701
7.77179
14.7945
19.0684
22.2584
24.8957
27.1593
29.1276
30.8407
32.3213
33.588
34.6541
35.5334
36.2401
36.7885
37.1942
37.4729
37.6404
37.7124
37.7064
37.6358
37.5148
37.3555
37.1693
36.966
36.7535
36.539
36.3282
36.125
35.933
35.7547
35.5916
35.445
35.3155
35.2036
35.1095
35.0332
34.975
34.935
34.9145
34.9173
7.89994
15.0097
19.3395
22.5714
25.2417
27.5324
29.5222
31.2515
32.744
34.0173
35.0854
35.9623
36.6625
37.201
37.5937
37.857
38.007
38.0609
38.0358
37.946
37.8058
37.6283
37.4249
37.2053
36.978
36.75
36.527
36.3132
36.1118
35.9252
35.7551
35.6025
35.468
35.352
35.2545
35.1757
35.1156
35.0743
35.0531
35.0558
8.02614
15.2219
19.6092
22.8825
25.5864
27.9033
29.9146
31.6602
33.164
34.4435
35.5129
36.3868
37.0798
37.6076
37.9867
38.2339
38.3655
38.4006
38.3558
38.2464
38.087
37.891
37.6699
37.434
37.192
36.9507
36.7155
36.4909
36.2803
36.0858
35.9087
35.7505
35.6113
35.4915
35.3908
35.3094
35.2473
35.205
35.1831
35.1857
8.15443
15.4334
19.8771
23.192
25.9286
28.2727
30.3051
32.0666
33.5811
34.8664
35.9363
36.8065
37.4918
38.0081
38.3726
38.6029
38.7154