/*--------------------------------*- C++ -*----------------------------------*\
| =========                 |                                                 |
| \\      /  F ield         | OpenFOAM: The Open Source CFD Toolbox           |
|  \\    /   O peration     | Version:  2.3.0                                 |
|   \\  /    A nd           | Web:      www.OpenFOAM.org                      |
|    \\/     M anipulation  |                                                 |
\*---------------------------------------------------------------------------*/
FoamFile
{
    version     2.0;
    format      ascii;
    class       volScalarField;
    location    "0.1";
    object      N2;
}
// * * * * * * * * * * * * * * * * * * * * * * * * * * * * * * * * * * * * * //

dimensions      [0 0 0 0 0 0 0];

internalField   nonuniform List<scalar> 
26600
(
0.766
0.766
0.766
0.766
0.766
0.766
0.766
0.766
0.765999
0.765999
0.765997
0.765994
0.765988
0.76598
0.765969
0.765955
0.765938
0.765923
0.765904
0.765883
0.765858
0.765833
0.765804
0.765775
0.765744
0.765712
0.765677
0.765637
0.765597
0.765557
0.765515
0.76547
0.765425
0.76538
0.765334
0.76529
0.76524
0.76518
0.765125
0.765039
0.766
0.766
0.766
0.766
0.766
0.766
0.765999
0.765998
0.765996
0.765992
0.765985
0.765972
0.765949
0.765917
0.765877
0.765832
0.765777
0.765716
0.76564
0.765575
0.765472
0.765398
0.765287
0.765182
0.765054
0.764963
0.76482
0.764636
0.764559
0.764482
0.764374
0.764275
0.764196
0.76409
0.764001
0.763892
0.763786
0.763663
0.76349
0.764245
0.766
0.766
0.766
0.766
0.766
0.765999
0.765997
0.765994
0.765986
0.765971
0.765945
0.765906
0.765839
0.76577
0.765669
0.76557
0.765444
0.765287
0.765158
0.764981
0.764768
0.764616
0.764297
0.764129
0.763982
0.763811
0.763583
0.763333
0.763163
0.762853
0.762625
0.762293
0.762037
0.761707
0.761462
0.76111
0.760865
0.760516
0.760324
0.75986
0.766
0.766
0.766
0.766
0.765999
0.765997
0.765992
0.765982
0.765963
0.765927
0.765873
0.765786
0.765667
0.765542
0.765345
0.765178
0.76491
0.764632
0.764418
0.763978
0.76378
0.763513
0.763196
0.762881
0.762484
0.762002
0.76135
0.76086
0.760335
0.759712
0.759439
0.758936
0.758506
0.757956
0.757551
0.756746
0.756241
0.755764
0.755298
0.754707
0.766
0.766
0.766
0.765999
0.765998
0.765993
0.765981
0.765959
0.765917
0.765841
0.765734
0.765565
0.765373
0.765147
0.764785
0.764509
0.763949
0.763563
0.763317
0.762789
0.762263
0.761701
0.761048
0.760278
0.759784
0.759107
0.757719
0.757105
0.755761
0.754694
0.753335
0.750832
0.749186
0.747787
0.746418
0.74481
0.743243
0.741915
0.739792
0.742864
0.766
0.766
0.766
0.765998
0.765994
0.765982
0.765958
0.765912
0.765825
0.765671
0.765466
0.765153
0.764862
0.76443
0.763772
0.763321
0.762807
0.762058
0.761131
0.760471
0.759606
0.758811
0.757235
0.756086
0.754604
0.752554
0.74979
0.747031
0.744241
0.740435
0.737002
0.712398
0.716296
0.71509
0.712546
0.708411
0.704391
0.699461
0.695481
0.689853
0.766
0.766
0.765999
0.765995
0.765985
0.765961
0.765912
0.765818
0.765641
0.765344
0.764948
0.764402
0.763971
0.76303
0.762589
0.761631
0.76034
0.759194
0.757395
0.755661
0.753571
0.751194
0.748408
0.744563
0.741962
0.73679
0.72766
0.717017
0.70881
0.697871
0.686631
0.676309
0.66351
0.655662
0.646418
0.634618
0.620775
0.61316
0.597837
0.612228
0.766
0.765999
0.765997
0.765988
0.765966
0.765918
0.765821
0.765636
0.765282
0.764717
0.763947
0.763058
0.762474
0.761347
0.759993
0.758216
0.754471
0.751506
0.748205
0.744239
0.738438
0.730202
0.722074
0.702935
0.698696
0.691082
0.671871
0.651071
0.635958
0.617928
0.595345
0.576938
0.563644
0.553533
0.531001
0.517609
0.506074
0.497714
0.479631
0.491518
0.766
0.765998
0.76599
0.76597
0.765926
0.765832
0.765644
0.765285
0.764578
0.763481
0.762484
0.761333
0.760097
0.757439
0.75423
0.751002
0.738261
0.729031
0.720108
0.704135
0.691697
0.673858
0.657842
0.643912
0.626985
0.60645
0.573166
0.554319
0.515222
0.490894
0.469337
0.450035
0.420277
0.396002
0.375899
0.358215
0.345685
0.334168
0.325136
0.324569
0.765999
0.765993
0.765976
0.765936
0.765848
0.765665
0.765301
0.764581
0.76313
0.762169
0.76003
0.758109
0.753283
0.748323
0.739112
0.72722
0.704659
0.675982
0.662059
0.629492
0.613664
0.58357
0.569691
0.533342
0.5073
0.478034
0.440601
0.381873
0.328276
0.288647
0.26306
0.24859
0.236653
0.233011
0.23023
0.228812
0.229567
0.231616
0.235681
0.245537
0.765997
0.765983
0.765949
0.765869
0.765696
0.765337
0.764607
0.76306
0.761829
0.759653
0.754865
0.748413
0.738329
0.717313
0.684355
0.670128
0.633661
0.611894
0.587955
0.532671
0.494572
0.46154
0.402075
0.341593
0.279834
0.240043
0.198694
0.183069
0.172674
0.161823
0.154813
0.15481
0.156497
0.160109
0.164699
0.170772
0.178935
0.188958
0.199507
0.213724
0.765993
0.765966
0.765899
0.765742
0.765397
0.764664
0.763086
0.761644
0.758544
0.752412
0.742258
0.715692
0.679637
0.64519
0.622407
0.602778
0.547881
0.506662
0.424898
0.330202
0.250514
0.216263
0.172576
0.154855
0.14323
0.126405
0.110646
0.102562
0.101636
0.102983
0.106709
0.113775
0.122604
0.132722
0.144162
0.157169
0.171854
0.188036
0.205846
0.225932
0.765985
0.765933
0.765801
0.76549
0.764777
0.763155
0.761684
0.757525
0.749484
0.731604
0.687514
0.643527
0.616209
0.590094
0.533977
0.471318
0.371482
0.264339
0.178417
0.156385
0.136544
0.111174
0.0888469
0.0769442
0.0641269
0.0634803
0.0656064
0.0704756
0.0781935
0.087569
0.0984208
0.11075
0.124585
0.140216
0.157427
0.176168
0.196421
0.218221
0.24217
0.270875
0.765964
0.76586
0.765596
0.764948
0.763354
0.76173
0.757531
0.746762
0.72237
0.670439
0.612222
0.591636
0.53322
0.465417
0.360229
0.245509
0.164279
0.144698
0.104554
0.0792793
0.0537262
0.041986
0.0405803
0.0422974
0.0456216
0.0516297
0.0599426
0.0702254
0.0828009
0.0970949
0.112701
0.129436
0.14732
0.166527
0.187183
0.20935
0.233089
0.258669
0.286691
0.31809
0.765902
0.765688
0.765104
0.763609
0.761929
0.757793
0.745395
0.706827
0.667424
0.589852
0.55364
0.485228
0.395783
0.267249
0.167328
0.13749
0.108206
0.057662
0.037038
0.0286214
0.0276077
0.0288396
0.0321654
0.0384832
0.0471064
0.0584103
0.0717498
0.0866057
0.102802
0.120211
0.138728
0.15831
0.179007
0.200931
0.224209
0.248893
0.275095
0.302044
0.330888
0.363494
0.765756
0.765214
0.763614
0.762228
0.758011
0.745146
0.704326
0.641275
0.596768
0.517503
0.422877
0.296005
0.203465
0.132918
0.110169
0.0606757
0.0342247
0.0231271
0.0193339
0.0199268
0.02242
0.0278331
0.03666
0.0482428
0.0619317
0.0774081
0.0943389
0.112395
0.131396
0.151291
0.172114
0.193927
0.216806
0.240768
0.265952
0.291779
0.318095
0.343965
0.374832
0.405286
0.765327
0.763462
0.761854
0.758257
0.745525
0.704242
0.624062
0.58914
0.498453
0.368788
0.234013
0.153044
0.126875
0.0886173
0.0417817
0.0225352
0.0149927
0.0142347
0.0152778
0.0187349
0.026167
0.0374196
0.0516995
0.0680329
0.0858015
0.104731
0.124599
0.145208
0.16645
0.18834
0.210998
0.234529
0.259024
0.284298
0.309432
0.333686
0.361622
0.388401
0.419283
0.447571
0.763859
0.761242
0.757718
0.746291
0.702283
0.612675
0.554673
0.445283
0.313519
0.179518
0.150319
0.110586
0.0537541
0.0270417
0.0149521
0.0104241
0.0103548
0.0117935
0.0161998
0.0254973
0.0386911
0.0553541
0.0747667
0.0951975
0.116319
0.138116
0.160413
0.183096
0.206129
0.229572
0.253619
0.278391
0.303174
0.32769
0.353127
0.378239
0.406527
0.431991
0.459523
0.486
0.759584
0.754889
0.744469
0.702793
0.589162
0.527864
0.389865
0.254421
0.155691
0.128588
0.0706178
0.0367761
0.0179238
0.00988173
0.00716218
0.00740351
0.00909023
0.0140756
0.0247151
0.039717
0.0580798
0.0800554
0.10432
0.127787
0.15152
0.175759
0.200077
0.224438
0.24887
0.273406
0.297699
0.322198
0.346817
0.371197
0.397514
0.423118
0.448613
0.472658
0.499048
0.522769
0.739821
0.732881
0.708593
0.565647
0.438721
0.331978
0.178158
0.143656
0.102057
0.0483836
0.0241876
0.0119354
0.00574987
0.00468789
0.00507727
0.00695361
0.0118969
0.0227508
0.0400106
0.0599738
0.0829339
0.110188
0.139228
0.163819
0.189674
0.216316
0.242302
0.267949
0.292872
0.316881
0.340623
0.366109
0.391033
0.416569
0.440374
0.464325
0.488077
0.511879
0.534786
0.556131
0.00950861
0.21074
0.221286
0.205424
0.182401
0.143563
0.102326
0.0535362
0.0279894
0.0140152
0.00697633
0.00325077
0.00265504
0.0030832
0.00503486
0.0100893
0.0192996
0.0371235
0.0615891
0.0847873
0.111534
0.144722
0.176563
0.202322
0.230731
0.258942
0.28585
0.311006
0.33577
0.360033
0.385101
0.410696
0.434076
0.458001
0.480886
0.504335
0.526224
0.54711
0.566949
0.585522
0.000650785
0.0173868
0.0312725
0.0305977
0.0263932
0.0193554
0.0125848
0.00725236
0.00387717
0.00204816
0.00115677
0.00118427
0.00158366
0.00320059
0.00793952
0.0170197
0.0306879
0.0573896
0.0812742
0.114252
0.14798
0.183888
0.213836
0.243502
0.273542
0.301527
0.327826
0.353197
0.379166
0.404749
0.428499
0.452226
0.474999
0.49823
0.519531
0.540309
0.559826
0.578163
0.595372
0.61137
0.000109653
0.0012252
0.00309711
0.00305458
0.00275218
0.00211063
0.00151886
0.00108876
0.000703022
0.000445652
0.000461992
0.000748281
0.00183566
0.00541974
0.0144943
0.0273182
0.0456429
0.0772808
0.111435
0.148392
0.185829
0.222571
0.253743
0.285383
0.314028
0.342848
0.370479
0.396985
0.422227
0.446227
0.469182
0.492259
0.513779
0.534339
0.553615
0.572032
0.589292
0.60534
0.620225
0.633933
2.94278e-05
0.000149289
0.000400178
0.000468306
0.000468185
0.000440203
0.000360283
0.000284132
0.000195625
0.000201578
0.000318159
0.00096212
0.00335529
0.010079
0.0202975
0.0396035
0.0687557
0.10513
0.144259
0.184513
0.22475
0.260631
0.29371
0.325254
0.355799
0.384832
0.41242
0.437627
0.461688
0.484995
0.507462
0.528452
0.547991
0.566302
0.583468
0.599777
0.614955
0.628935
0.641767
0.653476
8.53417e-06
2.85929e-05
7.06459e-05
0.000112338
0.000132088
0.000125869
0.000110181
8.40047e-05
8.94775e-05
0.000144991
0.000462887
0.00186936
0.00646572
0.0142057
0.030814
0.0580257
0.0937441
0.135389
0.178384
0.221052
0.261802
0.297952
0.331931
0.365505
0.396637
0.425171
0.45113
0.475619
0.49931
0.52105
0.541441
0.560416
0.578029
0.5944
0.609655
0.623971
0.637194
0.649293
0.660313
0.670292
2.46976e-06
6.55281e-06
1.44297e-05
2.92852e-05
3.9971e-05
3.82028e-05
3.22188e-05
3.58641e-05
6.33215e-05
0.000216415
0.000925701
0.00371799
0.00924145
0.0215846
0.0451179
0.0784894
0.119307
0.16545
0.211789
0.255814
0.29651
0.335054
0.371059
0.404384
0.4342
0.461436
0.48696
0.510986
0.532778
0.55269
0.571248
0.588389
0.604215
0.618837
0.632356
0.644868
0.656331
0.666755
0.67619
0.684684
6.74681e-07
1.46629e-06
2.88564e-06
7.15143e-06
1.13709e-05
1.11929e-05
1.25143e-05
2.4603e-05
8.47873e-05
0.000441468
0.00186936
0.00534863
0.0146302
0.0355765
0.0667391
0.105973
0.150299
0.196178
0.243502
0.289104
0.332455
0.371949
0.408036
0.439562
0.468499
0.495966
0.520193
0.542252
0.562186
0.580302
0.597212
0.612693
0.626885
0.63991
0.65185
0.66277
0.672689
0.681649
0.689713
0.696946
2.01078e-07
3.8884e-07
7.47229e-07
2.03558e-06
3.52296e-06
4.15197e-06
7.41352e-06
2.59697e-05
0.000179746
0.000777775
0.00277112
0.00881907
0.0243839
0.0516416
0.0886754
0.13258
0.180183
0.228781
0.277122
0.323413
0.366784
0.406441
0.440771
0.471724
0.500901
0.526581
0.549252
0.569591
0.587903
0.604499
0.619768
0.633695
0.646398
0.657974
0.668497
0.678023
0.686598
0.694287
0.701176
0.707349
9.79568e-08
1.6204e-07
3.03925e-07
7.5925e-07
1.27579e-06
2.29344e-06
7.6726e-06
4.33157e-05
0.000273756
0.00126954
0.0046949
0.0147363
0.0357398
0.0681418
0.109885
0.1576
0.208119
0.258929
0.308452
0.355356
0.398789
0.436885
0.470551
0.501987
0.529394
0.553353
0.574491
0.593301
0.610158
0.625364
0.639186
0.651727
0.663095
0.673381
0.682648
0.690954
0.698358
0.704948
0.710837
0.71613
2.60903e-08
5.88588e-08
1.50018e-07
3.2509e-07
6.115e-07
2.65374e-06
1.28316e-05
8.37525e-05
0.000491036
0.00216246
0.00783332
0.0216048
0.0470385
0.0837947
0.129459
0.180515
0.233695
0.286473
0.337189
0.384653
0.427319
0.464368
0.498631
0.528402
0.554155
0.576552
0.596285
0.613735
0.629283
0.643228
0.65579
0.667109
0.6773
0.686446
0.694612
0.701851
0.708232
0.713865
0.718903
0.723473
7.19127e-09
2.02089e-08
6.48882e-08
1.42873e-07
5.27992e-07
4.23679e-06
2.46949e-05
0.000161393
0.00084321
0.00355669
0.0112434
0.0282794
0.0573071
0.0977738
0.146947
0.201079
0.256728
0.311342
0.363202
0.410675
0.451489
0.489525
0.522861
0.551196
0.575515
0.596572
0.615009
0.631237
0.64562
0.658438
0.669895
0.680143
0.689301
0.697451
0.704655
0.710959
0.716432
0.721213
0.725525
0.729518
2.03106e-09
6.19092e-09
2.08867e-08
1.09243e-07
1.08733e-06
7.39637e-06
4.64032e-05
0.000275367
0.00135175
0.00496721
0.0143684
0.0340341
0.0660605
0.109827
0.162232
0.219215
0.277173
0.33354
0.386685
0.432904
0.473632
0.511706
0.543675
0.570706
0.593776
0.61366
0.630963
0.646118
0.659476
0.671298
0.681787
0.6911
0.699357
0.706641
0.713002
0.718474
0.723115
0.727102
0.730798
0.734358
7.66596e-10
2.75088e-09
1.88449e-08
2.18176e-07
2.25979e-06
1.29918e-05
7.76364e-05
0.000427211
0.00182833
0.00617607
0.0169346
0.0386598
0.0732563
0.119979
0.175326
0.234937
0.295053
0.353001
0.40654
0.451416
0.49403
0.530634
0.56135
0.587244
0.609238
0.628103
0.64443
0.658656
0.671119
0.682072
0.69172
0.700221
0.707697
0.714225
0.719843
0.724559
0.728388
0.731571
0.734902
0.738835
5.38218e-10
3.62624e-09
4.15787e-08
4.15456e-07
3.87626e-06
2.06698e-05
0.000116214
0.000563552
0.00222196
0.00712721
0.0189244
0.0422394
0.0790265
0.12834
0.186311
0.248325
0.310482
0.370094
0.423103
0.46802
0.510806
0.54646
0.576159
0.601092
0.622173
0.64017
0.655666
0.669096
0.680787
0.690992
0.699915
0.707718
0.714521
0.720392
0.725355
0.729381
0.73234
0.734433
0.738165
0.742675
6.68208e-10
6.26984e-09
7.87506e-08
7.24113e-07
5.4767e-06
2.94338e-05
0.000151228
0.000677794
0.00253138
0.00784512
0.0204086
0.0449534
0.083544
0.135061
0.195295
0.259291
0.323156
0.384522
0.436658
0.481979
0.524561
0.55949
0.588378
0.612505
0.632822
0.650091
0.664891
0.677648
0.688686
0.698257
0.706567
0.71378
0.720014
0.725333
0.729757
0.733245
0.735275
0.734607
0.742072
0.746602
9.27269e-10
9.22686e-09
1.15479e-07
1.01574e-06
7.0011e-06
3.72282e-05
0.000181184
0.000770411
0.00276923
0.0083751
0.0214868
0.0469599
0.0869876
0.140317
0.202417
0.267968
0.333304
0.395712
0.447724
0.493581
0.535727
0.569964
0.598213
0.621691
0.641385
0.65806
0.672289
0.684493
0.694992
0.70404
0.711845
0.718575
0.724352
0.729242
0.73328
0.73661
0.739551
0.742261
0.746575
0.750093
1.18589e-09
1.16337e-08
1.43586e-07
1.25249e-06
8.3744e-06
4.37754e-05
0.000205408
0.000842363
0.00294639
0.00875583
0.0222482
0.0483989
0.0895244
0.144281
0.20789
0.274931
0.341392
0.404308
0.455685
0.503727
0.544553
0.577922
0.605811
0.628816
0.648026
0.664235
0.678013
0.689779
0.699851
0.708484
0.715889
0.722242
0.727677
0.732265
0.736009
0.739113
0.742877
0.746372
0.749832
0.752723
1.38853e-09
1.32969e-08
1.62152e-07
1.42355e-06
9.42382e-06
4.87793e-05
0.000223521
0.00089471
0.00307144
0.00901713
0.0227631
0.0493828
0.0912972
0.14711
0.211854
0.279977
0.347209
0.410599
0.46197
0.510788
0.550929
0.583408
0.611305
0.634015
0.652874
0.668738
0.682182
0.693623
0.703377
0.711701
0.71881
0.72489
0.730088
0.734493
0.737727
0.739101
0.745098
0.748887
0.751998
0.754536
1.52161e-09
1.43012e-08
1.73105e-07
1.53041e-06
1.01151e-05
5.20846e-05
0.000235365
0.000928429
0.00315057
0.00917968
0.0230804
0.0499936
0.092415
0.148919
0.214423
0.283244
0.351024
0.41472
0.466188
0.515305
0.55526
0.587713
0.615006
0.6374
0.656015
0.671651
0.684876
0.696104
0.70565
0.71377
0.720687
0.726593
0.73166
0.736004
0.739642
0.742775
0.746971
0.750448
0.75332
0.755663
1.57807e-09
1.47156e-08
1.77611e-07
1.57634e-06
1.04252e-05
5.35718e-05
0.000240694
0.000943513
0.00318571
0.00925151
0.0232207
0.0502651
0.0929147
0.149732
0.215587
0.28472
0.352755
0.41659
0.468113
0.51733
0.557237
0.589703
0.61669
0.638927
0.657428
0.672961
0.686087
0.697218
0.706669
0.714698
0.721527
0.727357
0.732373
0.736723
0.740525
0.744027
0.747817
0.751132
0.753895
0.756157
0.766
0.766
0.766
0.766
0.766
0.766
0.766
0.766
0.766
0.766
0.766
0.766
0.766
0.766
0.766
0.766
0.766
0.766
0.766
0.766
0.766
0.766
0.766
0.766
0.766
0.766
0.766
0.766
0.766
0.766
0.766
0.766
0.766
0.766
0.766
0.766
0.766
0.766
0.766
0.766
0.766
0.766
0.766
0.766
0.766
0.766
0.766
0.766
0.766
0.766
0.766
0.766
0.766
0.766
0.766
0.766
0.766
0.766
0.766
0.766
0.766
0.766
0.766
0.766
0.766
0.766
0.766
0.766
0.766
0.766
0.766
0.766
0.766
0.766
0.766
0.766
0.766
0.766
0.766
0.766
0.766
0.766
0.766
0.766
0.766
0.766
0.766
0.766
0.766
0.766
0.766
0.766
0.766
0.766
0.766
0.766
0.766
0.766
0.766
0.766
0.766
0.766
0.766
0.766
0.766
0.766
0.766
0.766
0.766
0.766
0.766
0.766
0.766
0.766
0.766
0.766
0.766
0.766
0.766
0.766
0.766
0.766
0.766
0.766
0.766
0.766
0.766
0.766
0.766
0.766
0.766
0.766
0.766
0.766
0.766
0.766
0.766
0.766
0.766
0.766
0.766
0.766
0.766
0.766
0.766
0.766
0.766
0.766
0.766
0.766
0.766
0.766
0.766
0.766
0.766
0.766
0.766
0.766
0.766
0.766
0.766
0.766
0.766
0.766
0.766
0.766
0.766
0.766
0.766
0.766
0.766
0.766
0.766
0.766
0.766
0.766
0.766
0.766
0.766
0.766
0.766
0.766
0.766
0.766
0.766
0.766
0.766
0.766
0.766
0.766
0.766
0.766
0.766
0.766
0.766
0.766
0.766
0.766
0.766
0.766
0.766
0.766
0.766
0.766
0.766
0.766
0.766
0.766
0.766
0.766
0.766
0.766
0.766
0.766
0.766
0.766
0.766
0.766
0.766
0.766
0.766
0.766
0.766
0.766
0.766
0.766
0.766
0.766
0.766
0.766
0.766
0.766
0.766
0.766
0.766
0.766
0.766
0.766
0.766
0.766
0.766
0.766
0.766
0.766
0.766
0.766
0.766
0.766
0.766
0.766
0.766
0.766
0.766
0.766
0.766
0.766
0.766
0.766
0.766
0.766
0.766
0.766
0.766
0.766
0.766
0.766
0.766
0.766
0.766
0.766
0.766
0.766
0.766
0.766
0.766
0.766
0.766
0.766
0.766
0.766
0.766
0.766
0.766
0.766
0.766
0.766
0.766
0.766
0.766
0.766
0.766
0.766
0.766
0.766
0.766
0.766
0.766
0.766
0.766
0.766
0.766
0.766
0.766
0.766
0.766
0.766
0.766
0.766
0.766
0.766
0.766
0.766
0.766
0.766
0.766
0.766
0.766
0.766
0.766
0.766
0.766
0.766
0.766
0.766
0.766
0.766
0.766
0.766
0.766
0.766
0.766
0.766
0.766
0.766
0.766
0.766
0.766
0.766
0.766
0.766
0.766
0.766
0.766
0.766
0.766
0.766
0.766
0.766
0.766
0.766
0.766
0.766
0.766
0.766
0.766
0.766
0.766
0.766
0.766
0.766
0.766
0.766
0.766
0.766
0.766
0.766
0.766
0.766
0.766
0.766
0.766
0.766
0.766
0.766
0.766
0.766
0.766
0.766
0.766
0.766
0.766
0.766
0.766
0.766
0.766
0.766
0.766
0.766
0.766
0.766
0.766
0.766
0.766
0.766
0.766
0.766
0.766
0.766
0.766
0.766
0.766
0.766
0.766
0.766
0.766
0.766
0.766
0.766
0.766
0.766
0.766
0.766
0.766
0.766
0.766
0.766
0.766
0.766
0.766
0.766
0.766
0.766
0.766
0.766
0.766
0.766
0.766
0.766
0.766
0.766
0.766
0.766
0.766
0.766
0.766
0.766
0.766
0.766
0.766
0.766
0.766
0.766
0.766
0.766
0.766
0.766
0.766
0.766
0.766
0.766
0.766
0.766
0.766
0.766
0.766
0.766
0.766
0.766
0.766
0.766
0.766
0.766
0.766
0.766
0.766
0.766
0.766
0.766
0.766
0.766
0.766
0.766
0.766
0.766
0.766
0.766
0.766
0.766
0.766
0.766
0.766
0.766
0.766
0.766
0.766
0.766
0.766
0.766
0.766
0.766
0.766
0.766
0.766
0.766
0.766
0.766
0.766
0.766
0.766
0.766
0.766
0.766
0.766
0.766
0.766
0.766
0.766
0.766
0.766
0.766
0.766
0.766
0.766
0.766
0.766
0.766
0.766
0.766
0.766
0.766
0.766
0.766
0.766
0.766
0.766
0.766
0.766
0.766
0.766
0.766
0.766
0.766
0.766
0.766
0.766
0.766
0.766
0.766
0.766
0.766
0.766
0.766
0.766
0.766
0.766
0.766
0.766
0.766
0.766
0.766
0.766
0.766
0.766
0.766
0.766
0.766
0.766
0.766
0.766
0.766
0.766
0.766
0.766
0.766
0.766
0.766
0.766
0.766
0.766
0.766
0.766
0.766
0.766
0.766
0.766
0.766
0.766
0.766
0.766
0.766
0.766
0.766
0.766
0.766
0.766
0.766
0.766
0.766
0.766
0.766
0.766
0.766
0.766
0.766
0.766
0.766
0.766
0.766
0.766
0.766
0.766
0.766
0.766
0.766
0.766
0.766
0.766
0.766
0.766
0.766
0.766
0.766
0.766
0.766
0.766
0.766
0.766
0.766
0.766
0.766
0.766
0.766
0.766
0.766
0.766
0.766
0.766
0.766
0.766
0.766
0.766
0.766
0.766
0.766
0.766
0.766
0.766
0.766
0.766
0.766
0.766
0.766
0.766
0.766
0.766
0.766
0.766
0.766
0.766
0.766
0.766
0.766
0.766
0.766
0.766
0.766
0.766
0.766
0.766
0.766
0.766
0.766
0.766
0.766
0.766
0.766
0.766
0.766
0.766
0.766
0.766
0.766
0.766
0.766
0.766
0.766
0.766
0.766
0.766
0.766
0.766
0.766
0.766
0.766
0.766
0.766
0.766
0.766
0.766
0.766
0.766
0.766
0.766
0.766
0.766
0.766
0.766
0.766
0.766
0.766
0.766
0.766
0.766
0.766
0.766
0.766
0.766
0.766
0.766
0.766
0.766
0.766
0.766
0.766
0.766
0.766
0.766
0.766
0.766
0.766
0.766
0.766
0.766
0.766
0.766
0.766
0.766
0.766
0.766
0.766
0.766
0.766
0.766
0.766
0.766
0.766
0.766
0.766
0.766
0.766
0.766
0.766
0.766
0.766
0.766
0.766
0.766
0.766
0.766
0.766
0.766
0.766
0.766
0.766
0.766
0.766
0.766
0.766
0.766
0.766
0.766
0.766
0.766
0.766
0.766
0.766
0.766
0.766
0.766
0.766
0.766
0.766
0.766
0.766
0.766
0.766
0.766
0.766
0.766
0.766
0.766
0.766
0.766
0.766
0.766
0.766
0.766
0.766
0.766
0.766
0.766
0.766
0.766
0.766
0.766
0.766
0.766
0.766
0.766
0.766
0.766
0.766
0.766
0.766
0.766
0.766
0.766
0.766
0.766
0.766
0.766
0.766
0.766
0.766
0.766
0.766
0.766
0.766
0.766
0.766
0.766
0.766
0.766
0.766
0.766
0.766
0.766
0.766
0.766
0.766
0.766
0.766
0.766
0.766
0.766
0.766
0.766
0.766
0.766
0.766
0.766
0.766
0.766
0.766
0.766
0.766
0.766
0.766
0.766
0.766
0.766
0.766
0.766
0.766
0.766
0.766
0.766
0.766
0.766
0.766
0.766
0.766
0.766
0.766
0.766
0.766
0.766
0.766
0.766
0.766
0.766
0.766
0.766
0.766
0.766
0.766
0.766
0.766
0.766
0.766
0.766
0.766
0.766
0.766
0.766
0.766
0.766
0.766
0.766
0.766
0.766
0.766
0.766
0.766
0.766
0.766
0.766
0.766
0.766
0.766
0.766
0.766
0.766
0.766
0.766
0.766
0.766
0.766
0.766
0.766
0.766
0.766
0.766
0.766
0.766
0.766
0.766
0.766
0.766
0.766
0.766
0.766
0.766
0.766
0.766
0.766
0.766
0.766
0.766
0.766
0.766
0.766
0.766
0.766
0.766
0.766
0.766
0.766
0.766
0.766
0.766
0.766
0.766
0.766
0.766
0.766
0.766
0.766
0.766
0.766
0.766
0.766
0.766
0.766
0.766
0.766
0.766
0.766
0.766
0.766
0.766
0.766
0.766
0.766
0.766
0.766
0.766
0.766
0.766
0.766
0.766
0.766
0.766
0.766
0.766
0.766
0.766
0.766
0.766
0.766
0.766
0.766
0.766
0.766
0.766
0.766
0.766
0.766
0.766
0.766
0.766
0.766
0.766
0.766
0.766
0.766
0.766
0.766
0.766
0.766
0.766
0.766
0.766
0.766
0.766
0.766
0.766
0.766
0.766
0.766
0.766
0.766
0.766
0.766
0.766
0.766
0.766
0.766
0.766
0.766
0.766
0.766
0.766
0.766
0.766
0.766
0.766
0.766
0.766
0.766
0.766
0.766
0.766
0.766
0.766
0.766
0.766
0.766
0.766
0.766
0.766
0.766
0.766
0.766
0.766
0.766
0.766
0.766
0.766
0.766
0.766
0.766
0.766
0.766
0.766
0.766
0.766
0.766
0.766
0.766
0.766
0.766
0.766
0.766
0.766
0.766
0.766
0.766
0.766
0.766
0.766
0.766
0.766
0.766
0.766
0.766
0.766
0.766
0.766
0.766
0.766
0.766
0.766
0.766
0.766
0.766
0.766
0.766
0.766
0.766
0.766
0.766
0.766
0.766
0.766
0.766
0.766
0.766
0.766
0.766
0.766
0.766
0.766
0.766
0.766
0.766
0.766
0.766
0.766
0.766
0.766
0.766
0.766
0.766
0.766
0.766
0.766
0.766
0.766
0.766
0.766
0.766
0.766
0.766
0.766
0.766
0.766
0.766
0.766
0.766
0.766
0.766
0.766
0.766
0.766
0.766
0.766
0.766
0.766
0.766
0.766
0.766
0.766
0.766
0.766
0.766
0.766
0.766
0.766
0.766
0.766
0.766
0.766
0.766
0.766
0.766
0.766
0.766
0.766
0.766
0.766
0.766
0.766
0.766
0.766
0.766
0.766
0.766
0.766
0.766
0.766
0.766
0.766
0.766
0.766
0.766
0.766
0.766
0.766
0.766
0.766
0.766
0.766
0.766
0.766
0.766
0.766
0.766
0.766
0.766
0.766
0.766
0.766
0.766
0.766
0.766
0.766
0.766
0.766
0.766
0.766
0.766
0.766
0.766
0.766
0.766
0.766
0.766
0.766
0.766
0.766
0.766
0.766
0.766
0.766
0.766
0.766
0.766
0.766
0.766
0.766
0.766
0.766
0.766
0.766
0.766
0.766
0.766
0.766
0.766
0.766
0.766
0.766
0.766
0.766
0.766
0.766
0.766
0.766
0.766
0.766
0.766
0.766
0.766
0.766
0.766
0.766
0.766
0.766
0.766
0.766
0.766
0.766
0.766
0.766
0.766
0.766
0.766
0.766
0.766
0.766
0.766
0.766
0.766
0.766
0.766
0.766
0.766
0.766
0.766
0.766
0.766
0.766
0.766
0.766
0.766
0.766
0.766
0.766
0.766
0.766
0.766
0.766
0.766
0.766
0.766
0.766
0.766
0.766
0.766
0.766
0.766
0.766
0.766
0.766
0.766
0.766
0.766
0.766
0.766
0.766
0.766
0.766
0.766
0.766
0.766
0.766
0.766
0.766
0.766
0.766
0.766
0.766
0.766
0.766
0.766
0.766
0.766
0.766
0.766
0.766
0.766
0.766
0.766
0.766
0.766
0.766
0.766
0.766
0.766
0.766
0.766
0.766
0.766
0.766
0.766
0.766
0.766
0.766
0.766
0.766
0.766
0.766
0.766
0.766
0.766
0.766
0.766
0.766
0.766
0.766
0.766
0.766
0.766
0.766
0.766
0.766
0.766
0.766
0.766
0.766
0.766
0.766
0.766
0.766
0.766
0.766
0.766
0.766
0.766
0.766
0.766
0.766
0.766
0.766
0.766
0.766
0.766
0.766
0.766
0.766
0.766
0.766
0.766
0.766
0.766
0.766
0.766
0.766
0.766
0.766
0.766
0.766
0.766
0.766
0.766
0.766
0.766
0.766
0.766
0.766
0.766
0.766
0.766
0.766
0.766
0.766
0.766
0.766
0.766
0.766
0.766
0.766
0.766
0.766
0.766
0.766
0.766
0.766
0.766
0.766
0.766
0.766
0.766
0.766
0.766
0.766
0.766
0.766
0.766
0.766
0.766
0.766
0.766
0.766
0.766
0.766
0.766
0.766
0.766
0.766
0.766
0.766
0.766
0.766
0.766
0.766
0.766
0.766
0.766
0.766
0.766
0.766
0.766
0.766
0.766
0.766
0.766
0.766
0.766
0.766
0.766
0.766
0.766
0.766
0.766
0.766
0.766
0.766
0.766
0.766
0.766
0.766
0.766
0.766
0.766
0.766
0.766
0.766
0.766
0.766
0.766
0.766
0.766
0.766
0.766
0.766
0.766
0.766
0.766
0.766
0.766
0.766
0.766
0.766
0.766
0.766
0.766
0.766
0.766
0.766
0.766
0.766
0.766
0.766
0.766
0.766
0.766
0.766
0.766
0.766
0.766
0.766
0.766
0.766
0.766
0.766
0.766
0.766
0.766
0.766
0.766
0.766
0.766
0.766
0.766
0.766
0.766
0.766
0.766
0.766
0.766
0.766
0.766
0.766
0.766
0.766
0.766
0.766
0.766
0.766
0.766
0.766
0.766
0.766
0.766
0.766
0.766
0.766
0.766
0.766
0.766
0.766
0.766
0.766
0.766
0.766
0.766
0.766
0.766
0.766
0.766
0.766
0.766
0.766
0.766
0.766
0.766
0.766
0.766
0.766
0.766
0.766
0.766
0.766
0.766
0.766
0.766
0.766
0.766
0.766
0.766
0.766
0.766
0.766
0.766
0.766
0.766
0.766
0.766
0.766
0.766
0.766
0.766
0.766
0.766
0.766
0.766
0.766
0.766
0.766
0.766
0.766
0.766
0.766
0.766
0.766
0.766
0.766
0.766
0.766
0.766
0.766
0.766
0.766
0.766
0.766
0.766
0.766
0.766
0.766
0.766
0.766
0.766
0.766
0.766
0.766
0.766
0.766
0.766
0.766
0.766
0.766
0.766
0.766
0.766
0.766
0.766
0.766
0.766
0.766
0.766
0.766
0.766
0.766
0.766
0.766
0.766
0.766
0.766
0.766
0.766
0.766
0.766
0.766
0.766
0.766
0.766
0.766
0.766
0.766
0.766
0.766
0.766
0.766
0.766
0.766
0.766
0.766
0.766
0.766
0.766
0.766
0.766
0.766
0.766
0.766
0.766
0.766
0.766
0.766
0.766
0.766
0.766
0.766
0.766
0.766
0.766
0.766
0.766
0.766
0.766
0.766
0.766
0.766
0.766
0.766
0.766
0.766
0.766
0.766
0.766
0.766
0.766
0.766
0.766
0.766
0.766
0.766
0.766
0.766
0.766
0.766
0.766
0.766
0.766
0.766
0.766
0.766
0.766
0.766
0.766
0.766
0.766
0.766
0.766
0.766
0.766
0.766
0.766
0.766
0.766
0.766
0.766
0.766
0.766
0.766
0.766
0.766
0.766
0.766
0.766
0.766
0.766
0.766
0.766
0.766
0.766
0.766
0.766
0.766
0.766
0.766
0.766
0.766
0.766
0.766
0.766
0.766
0.766
0.766
0.766
0.766
0.766
0.766
0.766
0.766
0.766
0.766
0.766
0.766
0.766
0.766
0.766
0.766
0.766
0.766
0.766
0.766
0.766
0.766
0.766
0.766
0.766
0.766
0.766
0.766
0.766
0.766
0.766
0.766
0.766
0.766
0.766
0.766
0.766
0.766
0.766
0.766
0.766
0.766
0.766
0.766
0.766
0.766
0.766
0.766
0.766
0.766
0.766
0.766
0.766
0.766
0.766
0.766
0.766
0.766
0.766
0.766
0.766
0.766
0.766
0.766
0.766
0.766
0.766
0.766
0.766
0.766
0.766
0.766
0.766
0.766
0.766
0.766
0.766
0.766
0.766
0.766
0.766
0.766
0.766
0.766
0.766
0.766
0.766
0.766
0.766
0.766
0.766
0.766
0.766
0.766
0.766
0.766
0.766
0.766
0.766
0.766
0.766
0.766
0.766
0.766
0.766
0.766
0.766
0.766
0.766
0.766
0.766
0.766
0.766
0.766
0.766
0.766
0.766
0.766
0.766
0.766
0.766
0.766
0.766
0.766
0.766
0.766
0.766
0.766
0.766
0.766
0.766
0.766
0.766
0.766
0.766
0.766
0.766
0.766
0.766
0.766
0.766
0.766
0.766
0.766
0.766
0.766
0.766
0.766
0.766
0.766
0.766
0.766
0.766
0.766
0.766
0.766
0.766
0.766
0.766
0.766
0.766
0.766
0.766
0.766
0.766
0.766
0.766
0.766
0.766
0.766
0.766
0.766
0.766
0.766
0.766
0.766
0.766
0.766
0.766
0.766
0.766
0.766
0.766
0.766
0.766
0.766
0.766
0.766
0.766
0.766
0.766
0.766
0.766
0.766
0.766
0.766
0.766
0.766
0.766
0.766
0.766
0.766
0.766
0.766
0.766
0.766
0.766
0.766
0.766
0.766
0.766
0.766
0.766
0.766
0.766
0.766
0.766
0.766
0.766
0.766
0.766
0.766
0.766
0.766
0.766
0.766
0.766
0.766
0.766
0.766
0.766
0.766
0.766
0.766
0.766
0.766
0.766
0.766
0.766
0.766
0.766
0.766
0.766
0.766
0.766
0.766
0.766
0.766
0.766
0.766
0.766
0.766
0.766
0.766
0.766
0.766
0.766
0.766
0.766
0.766
0.766
0.766
0.766
0.766
0.766
0.766
0.766
0.766
0.766
0.766
0.766
0.766
0.766
0.766
0.766
0.766
0.766
0.766
0.766
0.766
0.766
0.766
0.766
0.766
0.766
0.766
0.766
0.766
0.766
0.766
0.766
0.766
0.766
0.766
0.766
0.766
0.766
0.766
0.766
0.766
0.766
0.766
0.766
0.766
0.766
0.766
0.766
0.766
0.766
0.766
0.766
0.766
0.766
0.766
0.766
0.766
0.766
0.766
0.766
0.766
0.766
0.766
0.766
0.766
0.766
0.766
0.766
0.766
0.766
0.766
0.766
0.766
0.766
0.766
0.766
0.766
0.766
0.766
0.766
0.766
0.766
0.766
0.766
0.766
0.766
0.766
0.766
0.766
0.766
0.766
0.766
0.766
0.766
0.766
0.766
0.766
0.766
0.766
0.766
0.766
0.766
0.766
0.766
0.766
0.766
0.766
0.766
0.766
0.766
0.766
0.766
0.766
0.766
0.766
0.766
0.766
0.766
0.766
0.766
0.766
0.766
0.766
0.766
0.766
0.766
0.766
0.766
0.766
0.766
0.766
0.766
0.766
0.766
0.766
0.766
0.766
0.766
0.766
0.766
0.766
0.766
0.766
0.766
0.766
0.766
0.766
0.766
0.766
0.766
0.766
0.766
0.766
0.766
0.766
0.766
0.766
0.766
0.766
0.766
0.766
0.766
0.766
0.766
0.766
0.766
0.766
0.766
0.766
0.766
0.766
0.766
0.766
0.766
0.766
0.766
0.766
0.766
0.766
0.766
0.766
0.766
0.766
0.766
0.766
0.766
0.766
0.766
0.766
0.766
0.766
0.766
0.766
0.766
0.766
0.766
0.766
0.766
0.766
0.766
0.766
0.766
0.766
0.766
0.766
0.766
0.766
0.766
0.766
0.766
0.766
0.766
0.766
0.766
0.766
0.766
0.766
0.766
0.766
0.766
0.766
0.766
0.766
0.766
0.766
0.766
0.766
0.766
0.766
0.766
0.766
0.766
0.766
0.766
0.766
0.766
0.766
0.766
0.766
0.766
0.766
0.766
0.766
0.766
0.766
0.766
0.766
0.766
0.766
0.766
0.766
0.766
0.766
0.766
0.766
0.766
0.766
0.766
0.766
0.766
0.766
0.766
0.766
0.766
0.766
0.766
0.766
0.766
0.766
0.766
0.766
0.766
0.766
0.766
0.766
0.766
0.766
0.766
0.766
0.766
0.766
0.766
0.766
0.766
0.766
0.766
0.766
0.766
0.766
0.766
0.766
0.766
0.766
0.766
0.766
0.766
0.766
0.766
0.766
0.766
0.766
0.766
0.766
0.766
0.766
0.766
0.766
0.766
0.766
0.766
0.766
0.766
0.766
0.766
0.766
0.766
0.766
0.766
0.766
0.766
0.766
0.766
0.766
0.766
0.766
0.766
0.766
0.766
0.766
0.766
0.766
0.766
0.766
0.766
0.766
0.766
0.766
0.766
0.766
0.766
0.766
0.766
0.766
0.766
0.766
0.766
0.766
0.766
0.766
0.766
0.766
0.766
0.766
0.766
0.766
0.766
0.766
0.766