/*--------------------------------*- C++ -*----------------------------------*\
| =========                 |                                                 |
| \\      /  F ield         | OpenFOAM: The Open Source CFD Toolbox           |
|  \\    /   O peration     | Version:  2.3.0                                 |
|   \\  /    A nd           | Web:      www.OpenFOAM.org                      |
|    \\/     M anipulation  |                                                 |
\*---------------------------------------------------------------------------*/
FoamFile
{
    version     2.0;
    format      ascii;
    class       volScalarField;
    location    "0.1";
    object      O2;
}
// * * * * * * * * * * * * * * * * * * * * * * * * * * * * * * * * * * * * * //

dimensions      [0 0 0 0 0 0 0];

internalField   nonuniform List<scalar> 
26600
(
0.234
0.234
0.234
0.234
0.234
0.234
0.234
0.233999
0.233998
0.233996
0.233989
0.233977
0.233954
0.233916
0.233864
0.233797
0.233713
0.233634
0.233538
0.233431
0.233304
0.233169
0.233019
0.232866
0.232704
0.232537
0.232349
0.23214
0.231929
0.231715
0.231488
0.231253
0.231012
0.230775
0.230531
0.230285
0.230015
0.229713
0.229392
0.228949
0.234
0.234
0.234
0.234
0.234
0.234
0.233999
0.233995
0.233988
0.233974
0.233945
0.233891
0.233781
0.233627
0.233428
0.233198
0.232918
0.232595
0.232187
0.231851
0.23132
0.230907
0.230301
0.229741
0.229058
0.228603
0.227874
0.226919
0.226509
0.226111
0.225518
0.224975
0.22454
0.223982
0.223521
0.222891
0.222326
0.221653
0.220714
0.22458
0.234
0.234
0.234
0.234
0.234
0.233998
0.233994
0.233982
0.233955
0.233893
0.23378
0.233593
0.233259
0.232913
0.232381
0.231862
0.231189
0.230338
0.229634
0.228713
0.227597
0.226726
0.224997
0.224113
0.223337
0.222547
0.221518
0.220318
0.219456
0.217877
0.216627
0.214834
0.213432
0.211665
0.210385
0.208466
0.206999
0.205142
0.203905
0.201557
0.234
0.234
0.234
0.234
0.233999
0.233994
0.233979
0.233944
0.233868
0.233706
0.233455
0.233015
0.232402
0.231752
0.230696
0.229794
0.228344
0.226829
0.225653
0.223367
0.222342
0.220839
0.219078
0.217432
0.215339
0.213219
0.210435
0.208251
0.205679
0.202595
0.200865
0.198487
0.196219
0.193246
0.191114
0.186481
0.183506
0.180644
0.177888
0.175027
0.234
0.234
0.234
0.233999
0.233995
0.233982
0.233946
0.233861
0.233683
0.233318
0.232797
0.231903
0.230896
0.229693
0.227732
0.226195
0.223156
0.221063
0.219705
0.217051
0.214335
0.211184
0.207643
0.203621
0.201052
0.198474
0.192878
0.190372
0.183949
0.178908
0.171737
0.164104
0.156157
0.148229
0.14012
0.130788
0.122115
0.115027
0.103818
0.121793
0.234
0.234
0.234
0.233997
0.233987
0.233954
0.233869
0.233678
0.23328
0.232514
0.231458
0.229775
0.228229
0.22587
0.22228
0.219685
0.217027
0.213039
0.208031
0.204833
0.200377
0.195923
0.187571
0.181765
0.174162
0.165676
0.155272
0.144301
0.132976
0.122639
0.108548
0.099045
0.0857234
0.0727982
0.0623114
0.050459
0.0386237
0.0302728
0.0116994
0.00207613
0.234
0.234
0.233999
0.233992
0.233966
0.23389
0.233702
0.233287
0.232422
0.230894
0.228785
0.225808
0.223481
0.218286
0.215945
0.210086
0.204328
0.198396
0.188761
0.180043
0.169247
0.157066
0.143659
0.131268
0.120048
0.108704
0.0987582
0.0794031
0.0639214
0.0514363
0.038672
0.0304425
0.00291427
0.000763828
0.00050669
0.000429292
0.00036666
0.000330521
0.000203493
9.87833e-05
0.234
0.234
0.233996
0.233977
0.233917
0.233749
0.233344
0.232473
0.230663
0.227664
0.223475
0.218584
0.215368
0.209021
0.201999
0.190405
0.177466
0.163175
0.146859
0.135069
0.118163
0.103447
0.080578
0.0656021
0.0494322
0.039106
0.030949
0.00282011
0.000723766
0.000476671
0.000399869
0.000472079
0.000149381
8.48663e-05
7.81319e-05
8.13879e-05
8.5747e-05
9.15038e-05
9.62081e-05
7.93588e-05
0.234
0.233998
0.233986
0.23394
0.233803
0.233441
0.232593
0.230796
0.227057
0.221098
0.215543
0.209194
0.202324
0.187465
0.170963
0.149739
0.132592
0.116206
0.0908758
0.0702672
0.0488798
0.0345652
0.0031079
0.000773824
0.0004796
0.000409036
0.000395778
0.000155698
0.000122447
0.000131401
0.000149665
0.000177767
0.000205879
0.000239481
0.000271349
0.000301625
0.000322822
0.000345387
0.000350388
0.000336933
0.234
0.233993
0.233962
0.233857
0.233553
0.23278
0.23102
0.227251
0.21938
0.214059
0.20201
0.19161
0.165006
0.143858
0.126768
0.089382
0.06578
0.0481142
0.0257053
0.00179532
0.000545182
0.000401767
0.000148095
0.000114774
0.000129982
0.000165701
0.000232845
0.00035436
0.000507835
0.000630711
0.00069399
0.00071845
0.000727339
0.000718484
0.000702272
0.000680953
0.000656139
0.000627996
0.000592959
0.000523453
0.233998
0.233982
0.233912
0.233676
0.233008
0.231358
0.227621
0.219255
0.212393
0.200247
0.173558
0.146016
0.122159
0.0808797
0.0483352
0.0197861
0.00145489
0.000501111
0.000313904
0.000172703
0.000191134
0.000249602
0.000379857
0.000577124
0.000835103
0.00100869
0.00109608
0.00109532
0.00108335
0.00106033
0.00100746
0.000964988
0.000932688
0.000884951
0.000838006
0.000789193
0.000735691
0.000674285
0.000620916
0.000545472
0.233996
0.233961
0.233806
0.233282
0.231808
0.228185
0.219748
0.21171
0.194274
0.161259
0.132035
0.0826227
0.0456246
0.00247883
0.0005408
0.000241383
0.000141442
0.000192625
0.000402963
0.000888524
0.00134102
0.00152576
0.00152803
0.00150642
0.00145344
0.00138196
0.00133452
0.00123058
0.00116733
0.00111434
0.00105045
0.000975513
0.000919041
0.000857391
0.000793387
0.000725055
0.000651069
0.000571785
0.00047593
0.000379603
0.233992
0.233916
0.23357
0.232393
0.229045
0.220529
0.212342
0.18898
0.148635
0.107901
0.0626495
0.00358722
0.000582556
0.000132106
0.000132165
0.000271017
0.000750374
0.00180254
0.00227233
0.0022157
0.00209615
0.00189419
0.00171523
0.00160402
0.00142855
0.0013322
0.00126028
0.00116177
0.00107976
0.00100367
0.000931546
0.000862802
0.000782087
0.000706222
0.000628996
0.00054647
0.000457765
0.000365131
0.000271132
0.000184103
0.233982
0.233811
0.233
0.230228
0.222083
0.213059
0.189404
0.143593
0.0884319
0.0414787
0.0018014
0.000292827
0.000157721
0.000309539
0.000962544
0.00253528
0.00305874
0.00295591
0.0027102
0.00225148
0.00196517
0.00162845
0.00148386
0.00138771
0.00127755
0.00116359
0.00106822
0.000986112
0.000892614
0.000815953
0.000748059
0.000683012
0.000613424
0.000538381
0.000456684
0.000369417
0.000281343
0.000199696
0.000132679
8.86705e-05
0.233958
0.23352
0.231374
0.224159
0.214808
0.191374
0.140604
0.0806319
0.0277445
0.00138577
0.000296666
0.000310975
0.000860838
0.00266778
0.00381451
0.00377007
0.00343643
0.00275633
0.00220422
0.00169411
0.00150342
0.00136698
0.0012469
0.00113242
0.000995928
0.000895711
0.000820098
0.000759602
0.000701064
0.000643387
0.000584217
0.000521014
0.000451233
0.000374931
0.000295067
0.000217771
0.000150731
0.00010135
7.04455e-05
6.70535e-05
0.233909
0.232442
0.225408
0.217605
0.193213
0.139782
0.0833074
0.00538544
0.00063282
0.000283443
0.000742484
0.00245204
0.00454867
0.00464042
0.00434204
0.00361813
0.00256324
0.0019312
0.00148469
0.0013229
0.00119894
0.00107173
0.000911373
0.000808065
0.000731499
0.000672404
0.000624024
0.000580773
0.00053617
0.000486738
0.000430611
0.000367447
0.000298895
0.000229621
0.000166175
0.00011565
8.11341e-05
6.40985e-05
6.19616e-05
0.00012008
0.233781
0.226812
0.217685
0.195788
0.141611
0.0842235
0.00428644
0.000500274
0.000413456
0.00166831
0.00510106
0.00589047
0.00556117
0.00470934
0.00339693
0.00230007
0.00151461
0.00128584
0.00114658
0.00100693
0.000814887
0.000695409
0.000616454
0.000564121
0.000526244
0.000494774
0.000464227
0.000430744
0.00039103
0.000343463
0.000288697
0.000230084
0.000173128
0.000124251
9.00379e-05
7.08607e-05
6.43691e-05
9.0896e-05
0.000144149
0.00079507
0.233272
0.218245
0.194514
0.141774
0.0884555
0.00452642
0.000640722
0.000929303
0.0035243
0.00714186
0.00702588
0.00632969
0.00471319
0.00317315
0.00199753
0.00125924
0.00103943
0.000924502
0.000724022
0.000584889
0.000498151
0.000446426
0.000414718
0.000393694
0.000376617
0.000358152
0.000334443
0.000303276
0.000264117
0.000218794
0.000171509
0.000127742
9.38173e-05
7.14112e-05
6.63542e-05
8.39955e-05
0.000129593
0.000451328
0.00112069
0.0164596
0.231929
0.181236
0.136402
0.0878676
0.00547714
0.000967105
0.00231093
0.00813688
0.00912929
0.00845052
0.00684097
0.0047564
0.00275459
0.00165211
0.00100819
0.000813115
0.000698093
0.000523961
0.000408165
0.000343611
0.000309807
0.000292881
0.000283864
0.000276901
0.000267543
0.000251979
0.00022837
0.000197201
0.000161345
0.000125563
9.57417e-05
7.36566e-05
6.43251e-05
6.57391e-05
0.000116483
0.000319561
0.000863769
0.0108556
0.0248998
0.0403455
0.225838
0.142244
0.104108
0.0108238
0.00390652
0.00777155
0.0131004
0.0121495
0.00970801
0.00645785
0.00407105
0.00228231
0.0010851
0.000768754
0.00059672
0.000498587
0.000347328
0.00026728
0.000225393
0.000206565
0.000199688
0.000198591
0.000198021
0.000194901
0.000185889
0.000168607
0.00014471
0.000117933
9.34973e-05
7.49129e-05
6.65235e-05
6.53983e-05
0.000100521
0.000151557
0.000658682
0.00559927
0.0194574
0.0343354
0.0492742
0.0641259
0.00283079
0.0421807
0.043498
0.0373006
0.030927
0.0229722
0.0154864
0.00947965
0.00557388
0.00303892
0.00159435
0.000697275
0.000480025
0.0003885
0.000314521
0.000214298
0.000162476
0.000139807
0.00013111
0.000131793
0.000135285
0.000139161
0.000139538
0.000135377
0.000124036
0.000106454
8.74175e-05
7.31588e-05
6.56174e-05
6.66724e-05
9.92771e-05
0.000143925
0.000527917
0.001205
0.0153464
0.0294495
0.0439825
0.0583795
0.0724048
0.0859517
0.000188729
0.00359432
0.00629211
0.00612796
0.00530304
0.00394839
0.00264471
0.00156216
0.000846173
0.000449758
0.000239059
0.000208443
0.000189431
0.000131428
0.000107631
8.90809e-05
8.00718e-05
7.97917e-05
8.3307e-05
9.03332e-05
9.66599e-05
9.99333e-05
9.85777e-05
9.2082e-05
8.06356e-05
6.86692e-05
6.02481e-05
6.4224e-05
8.79668e-05
0.000137632
0.000475637
0.00106047
0.0129078
0.0252794
0.0394932
0.0536885
0.0674912
0.0808067
0.093546
0.10564
3.00396e-05
0.000264212
0.000637838
0.000625922
0.000562668
0.000431998
0.000311388
0.000224347
0.000146552
8.81313e-05
7.76739e-05
7.53964e-05
5.82747e-05
4.66453e-05
4.22233e-05
4.22762e-05
4.53481e-05
5.18302e-05
5.9509e-05
6.70273e-05
7.21968e-05
7.32277e-05
7.01635e-05
6.4052e-05
5.86355e-05
5.69207e-05
6.43048e-05
0.000120212
0.000332701
0.000886736
0.010476
0.0226054
0.0362264
0.0496643
0.0632047
0.0763984
0.0890574
0.101108
0.112499
0.123178
7.80807e-06
3.39289e-05
8.49846e-05
9.80317e-05
9.74695e-05
9.16526e-05
7.49092e-05
5.98503e-05
3.89942e-05
3.35945e-05
3.12471e-05
2.42287e-05
2.05879e-05
1.91816e-05
2.05806e-05
2.49552e-05
3.17024e-05
3.94981e-05
4.71586e-05
5.33186e-05
5.63418e-05
5.5692e-05
5.33468e-05
5.25686e-05
5.98095e-05
8.60086e-05
0.000147657
0.000650833
0.00544122
0.0188025
0.0326197
0.0460868
0.0594373
0.0723755
0.0849372
0.0969795
0.108414
0.119196
0.129289
0.138658
2.23977e-06
6.84346e-06
1.56331e-05
2.41007e-05
2.79929e-05
2.66324e-05
2.35035e-05
1.71863e-05
1.57159e-05
1.45651e-05
1.09839e-05
9.20263e-06
8.949e-06
1.0206e-05
1.38096e-05
1.97063e-05
2.68935e-05
3.42866e-05
4.07714e-05
4.51759e-05
4.6722e-05
4.66989e-05
4.88303e-05
6.24439e-05
0.000116255
0.000332992
0.00101693
0.0137306
0.0273063
0.0413828
0.0551214
0.0682575
0.0808674
0.0929173
0.104414
0.115304
0.125552
0.135134
0.14403
0.152216
6.46101e-07
1.63842e-06
3.36693e-06
6.47336e-06
8.65237e-06
8.26642e-06
6.79699e-06
6.66471e-06
6.66435e-06
5.30494e-06
4.37414e-06
4.2911e-06
5.23277e-06
7.92125e-06
1.25289e-05
1.8785e-05
2.58224e-05
3.24863e-05
3.77349e-05
4.09668e-05
4.26676e-05
4.64997e-05
6.34343e-05
0.000136085
0.00058271
0.00526338
0.0193343
0.0347303
0.0491991
0.062982
0.0760687
0.0884341
0.100136
0.111199
0.121637
0.131432
0.140577
0.14906
0.156874
0.164009
1.76494e-07
3.78396e-07
7.08619e-07
1.63534e-06
2.52315e-06
2.44145e-06
2.4421e-06
2.67238e-06
2.38992e-06
2.08735e-06
2.08413e-06
2.6869e-06
4.47994e-06
7.98376e-06
1.3362e-05
1.98473e-05
2.6487e-05
3.23351e-05
3.67354e-05
3.9941e-05
4.50703e-05
6.32454e-05
0.000144062
0.000749548
0.0106303
0.0253601
0.040633
0.0556205
0.0696272
0.0827184
0.0949721
0.106447
0.117209
0.127295
0.136727
0.14551
0.153647
0.161141
0.167993
0.174206
5.25758e-08
1.02026e-07
1.89482e-07
4.81097e-07
8.13163e-07
8.65665e-07
9.66293e-07
9.53817e-07
9.27092e-07
9.68262e-07
1.33107e-06
2.45334e-06
4.99963e-06
9.44096e-06
1.53322e-05
2.18614e-05
2.80797e-05
3.32263e-05
3.73187e-05
4.29468e-05
6.05126e-05
0.000139979
0.000782314
0.0124365
0.029089
0.0452743
0.0605276
0.0748394
0.0880896
0.100359
0.111743
0.122328
0.132179
0.141343
0.149848
0.157709
0.164941
0.171554
0.177562
0.18298
2.55386e-08
4.26059e-08
7.78898e-08
1.88288e-07
2.84844e-07
3.24427e-07
3.45433e-07
3.71627e-07
4.15041e-07
6.11595e-07
1.24772e-06
2.89352e-06
6.28953e-06
1.13962e-05
1.76808e-05
2.42507e-05
3.0171e-05
3.49104e-05
3.9893e-05
5.33988e-05
0.000116368
0.000670453
0.01187
0.0299338
0.04751
0.063666
0.0784485
0.0920191
0.104466
0.115907
0.126452
0.136192
0.145195
0.153511
0.161175
0.168211
0.174639
0.180482
0.185764
0.190504
6.76742e-09
1.53698e-08
3.90152e-08
7.95614e-08
1.04196e-07
1.16831e-07
1.33451e-07
1.61614e-07
2.51066e-07
5.68388e-07
1.50772e-06
3.74227e-06
7.778e-06
1.34285e-05
2.0078e-05
2.68015e-05
3.26534e-05
3.75135e-05
4.56225e-05
8.02247e-05
0.000363741
0.00837575
0.0278257
0.0469736
0.064447
0.0801528
0.0943081
0.107139
0.118812
0.129472
0.139235
0.148195
0.156423
0.163974
0.170888
0.177194
0.182919
0.188099
0.192748
0.196882
1.86067e-09
5.26975e-09
1.68588e-08
2.83041e-08
3.61429e-08
4.7188e-08
5.6467e-08
9.05372e-08
2.25411e-07
6.82014e-07
1.93843e-06
4.66239e-06
9.2002e-06
1.53296e-05
2.23961e-05
2.94664e-05
3.56391e-05
4.17171e-05
5.73599e-05
0.000138929
0.00108021
0.0218294
0.0432251
0.0624652
0.0795313
0.0946636
0.108165
0.120295
0.131253
0.141197
0.150247
0.1585
0.166034
0.172906
0.179161
0.184834
0.189954
0.194538
0.19862
0.20222
5.19243e-10
1.59198e-09
4.53782e-09
7.58876e-09
1.11665e-08
1.60485e-08
2.76864e-08
7.58919e-08
2.61369e-07
8.58373e-07
2.37341e-06
5.4803e-06
1.0435e-05
1.70203e-05
2.45794e-05
3.22416e-05
3.94081e-05
4.93455e-05
8.97623e-05
0.000462175
0.0125618
0.0357419
0.0572425
0.0761611
0.0927139
0.107258
0.120136
0.131625
0.141937
0.151236
0.159647
0.167274
0.174195
0.180476
0.186164
0.191289
0.195858
0.199906
0.20349
0.206627
1.6904e-10
4.68446e-10
1.09318e-09
1.90383e-09
3.6e-09
7.21071e-09
2.16896e-08
8.38453e-08
3.18444e-07
1.02544e-06
2.73987e-06
6.13958e-06
1.14509e-05
1.84647e-05
2.65573e-05
3.50451e-05
4.41087e-05
6.12481e-05
0.000141125
0.00107028
0.0244421
0.0482926
0.069551
0.0880277
0.104057
0.118047
0.130358
0.141274
0.151013
0.159742
0.167593
0.174672
0.181065
0.18684
0.192037
0.196671
0.200743
0.204318
0.207468
0.210306
6.16896e-11
1.64997e-10
3.63604e-10
7.17923e-10
1.86032e-09
5.69375e-09
2.32181e-08
9.93221e-08
3.71884e-07
1.16072e-06
3.0239e-06
6.64255e-06
1.22499e-05
1.96309e-05
2.82079e-05
3.76188e-05
5.00988e-05
8.8865e-05
0.000407259
0.00989741
0.0352777
0.0591706
0.0800889
0.098119
0.113664
0.127157
0.138967
0.149382
0.158623
0.166858
0.174227
0.18084
0.186788
0.192127
0.19689
0.201106
0.204709
0.207821
0.210702
0.213306
2.21511e-11
6.39959e-11
1.56807e-10
4.05769e-10
1.49219e-09
6.00313e-09
2.70674e-08
1.14617e-07
4.15696e-07
1.26316e-06
3.2325e-06
7.01259e-06
1.28464e-05
2.04949e-05
2.93576e-05
3.91254e-05
5.30345e-05
0.00010375
0.000602444
0.0182316
0.0444545
0.0682921
0.0888912
0.106523
0.121645
0.134709
0.14609
0.156078
0.164895
0.172714
0.179679
0.185908
0.191479
0.196435
0.200834
0.204728
0.207869
0.210533
0.213402
0.215761
7.97922e-12
2.61804e-11
8.20774e-11
3.10829e-10
1.4803e-09
6.80319e-09
3.10425e-08
1.27769e-07
4.49882e-07
1.33817e-06
3.3801e-06
7.27364e-06
1.32662e-05
2.10738e-05
2.99967e-05
3.95618e-05
5.33322e-05
0.000110127
0.000762124
0.0245428
0.0518289
0.0756899
0.0960341
0.113336
0.128107
0.140815
0.151841
0.161475
0.169943
0.177421
0.18406
0.189976
0.195225
0.199855
0.203909
0.207447
0.21048
0.213155
0.215604
0.217707
3.03536e-12
1.18429e-11
5.26927e-11
2.84266e-10
1.57282e-09
7.63016e-09
3.44762e-08
1.38237e-07
4.75432e-07
1.39133e-06
3.48088e-06
7.44988e-06
1.3544e-05
2.14246e-05
3.02614e-05
3.93494e-05
5.2285e-05
0.000111387
0.000856023
0.0297866
0.0575705
0.0814304
0.101604
0.11865
0.133144
0.145571
0.156314
0.165669
0.17386
0.181073
0.187462
0.19312
0.198108
0.20248
0.20626
0.209542
0.212474
0.215027
0.21726
0.219183
1.32853e-12
6.44128e-12
4.10879e-11
2.80248e-10
1.6782e-09
8.31336e-09
3.71176e-08
1.45932e-07
4.9344e-07
1.42725e-06
3.54665e-06
7.56273e-06
1.37168e-05
2.1621e-05
3.03381e-05
3.9032e-05
5.17146e-05
0.000115526
0.000990456
0.0332441
0.0617001
0.0856384
0.105687
0.122545
0.136835
0.149052
0.159586
0.168733
0.176721
0.183739
0.189943
0.195406
0.200202
0.204422
0.207891
0.210952
0.213898
0.216342
0.218437
0.220241
7.31824e-13
4.43852e-12
3.66888e-11
2.82319e-10
1.75802e-09
8.78041e-09
3.88675e-08
1.5091e-07
5.04802e-07
1.44931e-06
3.58598e-06
7.62898e-06
1.38155e-05
2.1723e-05
3.03499e-05
3.88261e-05
5.1633e-05
0.00012006
0.00111482
0.0353528
0.0643385
0.0883555
0.108331
0.125072
0.139229
0.15131
0.161707
0.170718
0.178575
0.18547
0.191547
0.196881
0.201543
0.205601
0.209083
0.212115
0.214843
0.217181
0.219188
0.220925
5.58388e-13
3.81038e-12
3.52929e-11
2.84187e-10
1.79584e-09
8.99355e-09
3.96592e-08
1.53141e-07
5.0984e-07
1.459e-06
3.60311e-06
7.6576e-06
1.38573e-05
2.1764e-05
3.03505e-05
3.87518e-05
5.17323e-05
0.00012294
0.00118937
0.0362765
0.0655166
0.0895738
0.109519
0.12621
0.140308
0.152327
0.162661
0.171611
0.179409
0.186248
0.192268
0.197542
0.202146
0.206147
0.209606
0.212613
0.215267
0.217554
0.219523
0.221231
0.234
0.234
0.234
0.234
0.234
0.234
0.234
0.234
0.234
0.234
0.234
0.234
0.234
0.234
0.234
0.234
0.234
0.234
0.234
0.234
0.234
0.234
0.234
0.234
0.234
0.234
0.234
0.234
0.234
0.234
0.234
0.234
0.234
0.234
0.234
0.234
0.234
0.234
0.234
0.234
0.234
0.234
0.234
0.234
0.234
0.234
0.234
0.234
0.234
0.234
0.234
0.234
0.234
0.234
0.234
0.234
0.234
0.234
0.234
0.234
0.234
0.234
0.234
0.234
0.234
0.234
0.234
0.234
0.234
0.234
0.234
0.234
0.234
0.234
0.234
0.234
0.234
0.234
0.234
0.234
0.234
0.234
0.234
0.234
0.234
0.234
0.234
0.234
0.234
0.234
0.234
0.234
0.234
0.234
0.234
0.234
0.234
0.234
0.234
0.234
0.234
0.234
0.234
0.234
0.234
0.234
0.234
0.234
0.234
0.234
0.234
0.234
0.234
0.234
0.234
0.234
0.234
0.234
0.234
0.234
0.234
0.234
0.234
0.234
0.234
0.234
0.234
0.234
0.234
0.234
0.234
0.234
0.234
0.234
0.234
0.234
0.234
0.234
0.234
0.234
0.234
0.234
0.234
0.234
0.234
0.234
0.234
0.234
0.234
0.234
0.234
0.234
0.234
0.234
0.234
0.234
0.234
0.234
0.234
0.234
0.234
0.234
0.234
0.234
0.234
0.234
0.234
0.234
0.234
0.234
0.234
0.234
0.234
0.234
0.234
0.234
0.234
0.234
0.234
0.234
0.234
0.234
0.234
0.234
0.234
0.234
0.234
0.234
0.234
0.234
0.234
0.234
0.234
0.234
0.234
0.234
0.234
0.234
0.234
0.234
0.234
0.234
0.234
0.234
0.234
0.234
0.234
0.234
0.234
0.234
0.234
0.234
0.234
0.234
0.234
0.234
0.234
0.234
0.234
0.234
0.234
0.234
0.234
0.234
0.234
0.234
0.234
0.234
0.234
0.234
0.234
0.234
0.234
0.234
0.234
0.234
0.234
0.234
0.234
0.234
0.234
0.234
0.234
0.234
0.234
0.234
0.234
0.234
0.234
0.234
0.234
0.234
0.234
0.234
0.234
0.234
0.234
0.234
0.234
0.234
0.234
0.234
0.234
0.234
0.234
0.234
0.234
0.234
0.234
0.234
0.234
0.234
0.234
0.234
0.234
0.234
0.234
0.234
0.234
0.234
0.234
0.234
0.234
0.234
0.234
0.234
0.234
0.234
0.234
0.234
0.234
0.234
0.234
0.234
0.234
0.234
0.234
0.234
0.234
0.234
0.234
0.234
0.234
0.234
0.234
0.234
0.234
0.234
0.234
0.234
0.234
0.234
0.234
0.234
0.234
0.234
0.234
0.234
0.234
0.234
0.234
0.234
0.234
0.234
0.234
0.234
0.234
0.234
0.234
0.234
0.234
0.234
0.234
0.234
0.234
0.234
0.234
0.234
0.234
0.234
0.234
0.234
0.234
0.234
0.234
0.234
0.234
0.234
0.234
0.234
0.234
0.234
0.234
0.234
0.234
0.234
0.234
0.234
0.234
0.234
0.234
0.234
0.234
0.234
0.234
0.234
0.234
0.234
0.234
0.234
0.234
0.234
0.234
0.234
0.234
0.234
0.234
0.234
0.234
0.234
0.234
0.234
0.234
0.234
0.234
0.234
0.234
0.234
0.234
0.234
0.234
0.234
0.234
0.234
0.234
0.234
0.234
0.234
0.234
0.234
0.234
0.234
0.234
0.234
0.234
0.234
0.234
0.234
0.234
0.234
0.234
0.234
0.234
0.234
0.234
0.234
0.234
0.234
0.234
0.234
0.234
0.234
0.234
0.234
0.234
0.234
0.234
0.234
0.234
0.234
0.234
0.234
0.234
0.234
0.234
0.234
0.234
0.234
0.234
0.234
0.234
0.234
0.234
0.234
0.234
0.234
0.234
0.234
0.234
0.234
0.234
0.234
0.234
0.234
0.234
0.234
0.234
0.234
0.234
0.234
0.234
0.234
0.234
0.234
0.234
0.234
0.234
0.234
0.234
0.234
0.234
0.234
0.234
0.234
0.234
0.234
0.234
0.234
0.234
0.234
0.234
0.234
0.234
0.234
0.234
0.234
0.234
0.234
0.234
0.234
0.234
0.234
0.234
0.234
0.234
0.234
0.234
0.234
0.234
0.234
0.234
0.234
0.234
0.234
0.234
0.234
0.234
0.234
0.234
0.234
0.234
0.234
0.234
0.234
0.234
0.234
0.234
0.234
0.234
0.234
0.234
0.234
0.234
0.234
0.234
0.234
0.234
0.234
0.234
0.234
0.234
0.234
0.234
0.234
0.234
0.234
0.234
0.234
0.234
0.234
0.234
0.234
0.234
0.234
0.234
0.234
0.234
0.234
0.234
0.234
0.234
0.234
0.234
0.234
0.234
0.234
0.234
0.234
0.234
0.234
0.234
0.234
0.234
0.234
0.234
0.234
0.234
0.234
0.234
0.234
0.234
0.234
0.234
0.234
0.234
0.234
0.234
0.234
0.234
0.234
0.234
0.234
0.234
0.234
0.234
0.234
0.234
0.234
0.234
0.234
0.234
0.234
0.234
0.234
0.234
0.234
0.234
0.234
0.234
0.234
0.234
0.234
0.234
0.234
0.234
0.234
0.234
0.234
0.234
0.234
0.234
0.234
0.234
0.234
0.234
0.234
0.234
0.234
0.234
0.234
0.234
0.234
0.234
0.234
0.234
0.234
0.234
0.234
0.234
0.234
0.234
0.234
0.234
0.234
0.234
0.234
0.234
0.234
0.234
0.234
0.234
0.234
0.234
0.234
0.234
0.234
0.234
0.234
0.234
0.234
0.234
0.234
0.234
0.234
0.234
0.234
0.234
0.234
0.234
0.234
0.234
0.234
0.234
0.234
0.234
0.234
0.234
0.234
0.234
0.234
0.234
0.234
0.234
0.234
0.234
0.234
0.234
0.234
0.234
0.234
0.234
0.234
0.234
0.234
0.234
0.234
0.234
0.234
0.234
0.234
0.234
0.234
0.234
0.234
0.234
0.234
0.234
0.234
0.234
0.234
0.234
0.234
0.234
0.234
0.234
0.234
0.234
0.234
0.234
0.234
0.234
0.234
0.234
0.234
0.234
0.234
0.234
0.234
0.234
0.234
0.234
0.234
0.234
0.234
0.234
0.234
0.234
0.234
0.234
0.234
0.234
0.234
0.234
0.234
0.234
0.234
0.234
0.234
0.234
0.234
0.234
0.234
0.234
0.234
0.234
0.234
0.234
0.234
0.234
0.234
0.234
0.234
0.234
0.234
0.234
0.234
0.234
0.234
0.234
0.234
0.234
0.234
0.234
0.234
0.234
0.234
0.234
0.234
0.234
0.234
0.234
0.234
0.234
0.234
0.234
0.234
0.234
0.234
0.234
0.234
0.234
0.234
0.234
0.234
0.234
0.234
0.234
0.234
0.234
0.234
0.234
0.234
0.234
0.234
0.234
0.234
0.234
0.234
0.234
0.234
0.234
0.234
0.234
0.234
0.234
0.234
0.234
0.234
0.234
0.234
0.234
0.234
0.234
0.234
0.234
0.234
0.234
0.234
0.234
0.234
0.234
0.234
0.234
0.234
0.234
0.234
0.234
0.234
0.234
0.234
0.234
0.234
0.234
0.234
0.234
0.234
0.234
0.234
0.234
0.234
0.234
0.234
0.234
0.234
0.234
0.234
0.234
0.234
0.234
0.234
0.234
0.234
0.234
0.234
0.234
0.234
0.234
0.234
0.234
0.234
0.234
0.234
0.234
0.234
0.234
0.234
0.234
0.234
0.234
0.234
0.234
0.234
0.234
0.234
0.234
0.234
0.234
0.234
0.234
0.234
0.234
0.234
0.234
0.234
0.234
0.234
0.234
0.234
0.234
0.234
0.234
0.234
0.234
0.234
0.234
0.234
0.234
0.234
0.234
0.234
0.234
0.234
0.234
0.234
0.234
0.234
0.234
0.234
0.234
0.234
0.234
0.234
0.234
0.234
0.234
0.234
0.234
0.234
0.234
0.234
0.234
0.234
0.234
0.234
0.234
0.234
0.234
0.234
0.234
0.234
0.234
0.234
0.234
0.234
0.234
0.234
0.234
0.234
0.234
0.234
0.234
0.234
0.234
0.234
0.234
0.234
0.234
0.234
0.234
0.234
0.234
0.234
0.234
0.234
0.234
0.234
0.234
0.234
0.234
0.234
0.234
0.234
0.234
0.234
0.234
0.234
0.234
0.234
0.234
0.234
0.234
0.234
0.234
0.234
0.234
0.234
0.234
0.234
0.234
0.234
0.234
0.234
0.234
0.234
0.234
0.234
0.234
0.234
0.234
0.234
0.234
0.234
0.234
0.234
0.234
0.234
0.234
0.234
0.234
0.234
0.234
0.234
0.234
0.234
0.234
0.234
0.234
0.234
0.234
0.234
0.234
0.234
0.234
0.234
0.234
0.234
0.234
0.234
0.234
0.234
0.234
0.234
0.234
0.234
0.234
0.234
0.234
0.234
0.234
0.234
0.234
0.234
0.234
0.234
0.234
0.234
0.234
0.234
0.234
0.234
0.234
0.234
0.234
0.234
0.234
0.234
0.234
0.234
0.234
0.234
0.234
0.234
0.234
0.234
0.234
0.234
0.234
0.234
0.234
0.234
0.234
0.234
0.234
0.234
0.234
0.234
0.234
0.234
0.234
0.234
0.234
0.234
0.234
0.234
0.234
0.234
0.234
0.234
0.234
0.234
0.234
0.234
0.234
0.234
0.234
0.234
0.234
0.234
0.234
0.234
0.234
0.234
0.234
0.234
0.234
0.234
0.234
0.234
0.234
0.234
0.234
0.234
0.234
0.234
0.234
0.234
0.234
0.234
0.234
0.234
0.234
0.234
0.234
0.234
0.234
0.234
0.234
0.234
0.234
0.234
0.234
0.234
0.234
0.234
0.234
0.234
0.234
0.234
0.234
0.234
0.234
0.234
0.234
0.234
0.234
0.234
0.234
0.234
0.234
0.234
0.234
0.234
0.234
0.234
0.234
0.234
0.234
0.234
0.234
0.234
0.234
0.234
0.234
0.234
0.234
0.234
0.234
0.234
0.234
0.234
0.234
0.234
0.234
0.234
0.234
0.234
0.234
0.234
0.234
0.234
0.234
0.234
0.234
0.234
0.234
0.234
0.234
0.234
0.234
0.234
0.234
0.234
0.234
0.234
0.234
0.234
0.234
0.234
0.234
0.234
0.234
0.234
0.234
0.234
0.234
0.234
0.234
0.234
0.234
0.234
0.234
0.234
0.234
0.234
0.234
0.234
0.234
0.234
0.234
0.234
0.234
0.234
0.234
0.234
0.234
0.234
0.234
0.234
0.234
0.234
0.234
0.234
0.234
0.234
0.234
0.234
0.234
0.234
0.234
0.234
0.234
0.234
0.234
0.234
0.234
0.234
0.234
0.234
0.234
0.234
0.234
0.234
0.234
0.234
0.234
0.234
0.234
0.234
0.234
0.234
0.234
0.234
0.234
0.234
0.234
0.234
0.234
0.234
0.234
0.234
0.234
0.234
0.234
0.234
0.234
0.234
0.234
0.234
0.234
0.234
0.234
0.234
0.234
0.234
0.234
0.234
0.234
0.234
0.234
0.234
0.234
0.234
0.234
0.234
0.234
0.234
0.234
0.234
0.234
0.234
0.234
0.234
0.234
0.234
0.234
0.234
0.234
0.234
0.234
0.234
0.234
0.234
0.234
0.234
0.234
0.234
0.234
0.234
0.234
0.234
0.234
0.234
0.234
0.234
0.234
0.234
0.234
0.234
0.234
0.234
0.234
0.234
0.234
0.234
0.234
0.234
0.234
0.234
0.234
0.234
0.234
0.234
0.234
0.234
0.234
0.234
0.234
0.234
0.234
0.234
0.234
0.234
0.234
0.234
0.234
0.234
0.234
0.234
0.234
0.234
0.234
0.234
0.234
0.234
0.234
0.234
0.234
0.234
0.234
0.234
0.234
0.234
0.234
0.234
0.234
0.234
0.234
0.234
0.234
0.234
0.234
0.234
0.234
0.234
0.234
0.234
0.234
0.234
0.234
0.234
0.234
0.234
0.234
0.234
0.234
0.234
0.234
0.234
0.234
0.234
0.234
0.234
0.234
0.234
0.234
0.234
0.234
0.234
0.234
0.234
0.234
0.234
0.234
0.234
0.234
0.234
0.234
0.234
0.234
0.234
0.234
0.234
0.234
0.234
0.234
0.234
0.234
0.234
0.234
0.234
0.234
0.234
0.234
0.234
0.234
0.234
0.234
0.234
0.234
0.234
0.234
0.234
0.234
0.234
0.234
0.234
0.234
0.234
0.234
0.234
0.234
0.234
0.234
0.234
0.234
0.234
0.234
0.234
0.234
0.234
0.234
0.234
0.234
0.234
0.234
0.234
0.234
0.234
0.234
0.234
0.234
0.234
0.234
0.234
0.234
0.234
0.234
0.234
0.234
0.234
0.234
0.234
0.234
0.234
0.234
0.234
0.234
0.234
0.234
0.234
0.234
0.234
0.234
0.234
0.234
0.234
0.234
0.234
0.234
0.234
0.234
0.234
0.234
0.234
0.234
0.234
0.234
0.234
0.234
0.234
0.234
0.234
0.234
0.234
0.234
0.234
0.234
0.234
0.234
0.234
0.234
0.234
0.234
0.234
0.234
0.234
0.234
0.234
0.234
0.234
0.234
0.234
0.234
0.234
0.234
0.234
0.234
0.234
0.234
0.234
0.234
0.234
0.234
0.234
0.234
0.234
0.234
0.234
0.234
0.234
0.234
0.234
0.234
0.234
0.234
0.234
0.234
0.234
0.234
0.234
0.234
0.234
0.234
0.234
0.234
0.234
0.234
0.234
0.234
0.234
0.234
0.234
0.234
0.234
0.234
0.234
0.234
0.234
0.234
0.234
0.234
0.234
0.234
0.234
0.234
0.234
0.234
0.234
0.234
0.234
0.234
0.234
0.234
0.234
0.234
0.234
0.234
0.234
0.234
0.234
0.234
0.234
0.234
0.234
0.234
0.234
0.234
0.234
0.234
0.234
0.234
0.234
0.234
0.234
0.234
0.234
0.234
0.234
0.234
0.234
0.234
0.234
0.234
0.234
0.234
0.234
0.234
0.234
0.234
0.234
0.234
0.234
0.234
0.234
0.234
0.234
0.234
0.234
0.234
0.234
0.234
0.234
0.234
0.234
0.234
0.234
0.234
0.234
0.234
0.234
0.234
0.234
0.234
0.234
0.234
0.234
0.234
0.234
0.234
0.234
0.234
0.234
0.234
0.234
0.234
0.234
0.234
0.234
0.234
0.234
0.234
0.234
0.234
0.234
0.234
0.234
0.234
0.234
0.234
0.234
0.234
0.234
0.234
0.234
0.234
0.234
0.234
0.234
0.234
0.234
0.234
0.234
0.234
0.234
0.234
0.234
0.234
0.234
0.234
0.234
0.234
0.234
0.234
0.234
0.234
0.234
0.234
0.234
0.234
0.234
0.234
0.234
0.234
0.234
0.234
0.234
0.234
0.234
0.234
0.234
0.234
0.234
0.234
0.234
0.234
0.234
0.234
0.234
0.234
0.234
0.234
0.234
0.234
0.234
0.234
0.234
0.234
0.234
0.234
0.234
0.234
0.234
0.234
0.234
0.234
0.234
0.234
0.234
0.234
0.234
0.234
0.234
0.234
0.234
0.234
0.234
0.234
0.234
0.234
0.234
0.234
0.234
0.234
0.234
0.234
0.234
0.234
0.234
0.234
0.234
0.234
0.234
0.234
0.234
0.234
0.234
0.234
0.234
0.234
0.234
0.234
0.234
0.234
0.234
0.234
0.234
0.234
0.234
0.234
0.234
0.234
0.234
0.234
0.234
0.234
0.234
0.234
0.234
0.234
0.234
0.234
0.234
0.234
0.234
0.234
0.234
0.234
0.234
0.234
0.234
0.234
0.234
0.234
0.234
0.234
0.234
0.234
0.234
0.234
0.234
0.234
0.234
0.234
0.234
0.234
0.234
0.234
0.234
0.234
0.234
0.234
0.234
0.234
0.234
0.234
0.234
0.234
0.234
0.234
0.234
0.234
0.234
0.234
0.234
0.234
0.234
0.234
0.234
0.234
0.234
0.234
0.234
0.234
0.234
0.234
0.234
0.234
0.234
0.234
0.234
0.234
0.234
0.234
0.234
0.234
0.234
0.234
0.234
0.234
0.234
0.234
0.234
0.234
0.234
0.234
0.234
0.234
0.234
0.234
0.234
0.234
0.234
0.234
0.234
0.234
0.234
0.234
0.234
0.234
0.234
0.234
0.234
0.234
0.234
0.234
0.234
0.234
0.234
0.234
0.234
0.234
0.234
0.234
0.234
0.234
0.234
0.234
0.234
0.234
0.234
0.234
0.234
0.234
0.234
0.234
0.234
0.234
0.234
0.234
0.234
0.234
0.234
0.234
0.234
0.234
0.234
0.234
0.234
0.234
0.234
0.234
0.234
0.234
0.234
0.234
0.234
0.234
0.234
0.234
0.234
0.234
0.234
0.234
0.234
0.234
0.234
0.234
0.234
0.234
0.234
0.234
0.234
0.234
0.234
0.234
0.234
0.234
0.234
0.234
0.234
0.234
0.234
0.234
0.234
0.234
0.234
0.234
0.234
0.234
0.234
0.234
0.234
0.234
0.234
0.234
0.234
0.234
0.234
0.234
0.234
0.234
0.234
0.234
0.234
0.234
0.234
0.234
0.234
0.234
0.234
0.234
0.234
0.234
0.234
0.234
0.234
0.234
0.234
0.234
0.234
0.234
0.234
0.234
0.234
0.234
0.234
0.234
0.234
0.234
0.234
0.234
0.234
0.234
0.234
0.234
0.234
0.234
0.234
0.234
0.234
0.234
0.234
0.234
0.234
0.234
0.234
0.234
0.234
0.234
0.234
0.234
0.234
0.234
0.234
0.234
0.234
0.234
0.234
0.234
0.234
0.234
0.234
0.234
0.234
0.234
0.234
0.234
0.234
0.234
0.234
0.234
0.234
0.234
0.234
0.234
0.234
0.234
0.234
0.234
0.234
0.234
0.234
0.234
0.234
0.234
0.234
0.234
0.234
0.234
0.234
0.234
0.234
0.234
0.234
0.234
0.234
0.234
0.234
0.234
0.234
0.234
0.234
0.234
0.234
0.234
0.234
0.234
0.234
0.234
0.234
0.234
0.234
0.234
0.234
0.234
0.234