/*--------------------------------*- C++ -*----------------------------------*\
| =========                 |                                                 |
| \\      /  F ield         | OpenFOAM: The Open Source CFD Toolbox           |
|  \\    /   O peration     | Version:  2.3.0                                 |
|   \\  /    A nd           | Web:      www.OpenFOAM.org                      |
|    \\/     M anipulation  |                                                 |
\*---------------------------------------------------------------------------*/
FoamFile
{
    version     2.0;
    format      ascii;
    class       surfaceScalarField;
    location    "0.1";
    object      phi;
}
// * * * * * * * * * * * * * * * * * * * * * * * * * * * * * * * * * * * * * //

dimensions      [1 0 -1 0 0 0 0];

internalField   nonuniform List<scalar> 
52739
(
4.50016e-05
6.19642e-07
4.60557e-05
-8.67682e-07
4.7883e-05
-1.65098e-06
5.01798e-05
-2.14274e-06
5.30125e-05
-2.71259e-06
5.62631e-05
-3.17253e-06
5.98544e-05
-3.55892e-06
6.37365e-05
-3.89435e-06
6.79031e-05
-4.21622e-06
7.23015e-05
-4.47606e-06
7.68636e-05
-4.65815e-06
8.15115e-05
-4.74891e-06
8.62022e-05
-4.78307e-06
9.09839e-05
-4.85164e-06
9.5749e-05
-4.79808e-06
0.000100424
-4.67148e-06
0.000105058
-4.59601e-06
0.000109555
-4.42948e-06
0.000113908
-4.27268e-06
0.000118274
-4.28977e-06
0.000122428
-4.09761e-06
0.000126523
-4.06914e-06
0.000130692
-4.17478e-06
0.000134574
-3.9286e-06
0.000138286
-3.7886e-06
0.000142071
-3.88736e-06
0.00014599
-4.06298e-06
0.000150002
-4.14587e-06
0.000154003
-4.09674e-06
0.000158212
-4.27441e-06
0.000162542
-4.37433e-06
0.000166883
-4.36604e-06
0.000170973
-4.11785e-06
0.000174642
-3.71148e-06
0.000177909
-3.34111e-06
0.00018085
-3.082e-06
0.000183289
-2.68948e-06
0.00018547
-2.61669e-06
0.000187796
-2.73662e-06
-1.71851e-06
0.000189097
4.49319e-05
1.52539e-07
4.66506e-05
-2.40298e-06
4.90426e-05
-3.86849e-06
5.20174e-05
-4.96449e-06
5.54353e-05
-6.00899e-06
5.92156e-05
-6.87091e-06
6.32992e-05
-7.60611e-06
6.76233e-05
-8.22671e-06
7.21035e-05
-8.74632e-06
7.66486e-05
-9.10512e-06
8.12041e-05
-9.32284e-06
8.56798e-05
-9.34264e-06
9.00508e-05
-9.28135e-06
9.4394e-05
-9.32242e-06
9.86433e-05
-9.0997e-06
0.000102766
-8.82746e-06
0.000106798
-8.63258e-06
0.000110577
-8.14841e-06
0.000114256
-7.8854e-06
0.00011775
-7.73371e-06
0.000120894
-7.24937e-06
0.000123952
-7.18808e-06
0.000126786
-7.00026e-06
0.000129219
-6.4746e-06
0.000131676
-6.19229e-06
0.000134129
-6.29208e-06
0.000135791
-6.52859e-06
0.000138232
-6.38253e-06
0.000141254
-6.71938e-06
0.000144277
-6.9939e-06
0.000147313
-7.24012e-06
0.000150592
-7.4561e-06
0.000153685
-6.97456e-06
0.000156343
-6.17868e-06
0.000158715
-5.64349e-06
0.000160896
-5.31874e-06
0.000162929
-4.87443e-06
0.000164866
-4.7948e-06
0.000166848
-5.00566e-06
-5.2526e-06
0.000170038
4.42372e-05
-7.75763e-07
4.56902e-05
-3.67895e-06
4.79015e-05
-5.91226e-06
5.06775e-05
-7.59414e-06
5.39415e-05
-9.15669e-06
5.76774e-05
-1.05278e-05
6.17614e-05
-1.1653e-05
6.60532e-05
-1.2523e-05
7.04224e-05
-1.31569e-05
7.47573e-05
-1.351e-05
7.89846e-05
-1.36433e-05
8.29187e-05
-1.34006e-05
8.66317e-05
-1.31524e-05
9.01825e-05
-1.30306e-05
9.34519e-05
-1.24641e-05
9.65245e-05
-1.19744e-05
9.92186e-05
-1.14016e-05
0.000101634
-1.05511e-05
0.000103998
-1.01622e-05
0.000105792
-9.48915e-06
0.000107225
-8.71348e-06
0.000108305
-8.43803e-06
0.000109449
-8.23915e-06
0.000111115
-8.12861e-06
0.000112808
-7.87923e-06
0.000114219
-7.90218e-06
0.000115304
-7.77312e-06
0.000116546
-7.52116e-06
0.000117466
-7.52147e-06
0.000117977
-7.29336e-06
0.000118776
-7.35694e-06
0.000120052
-7.51191e-06
0.000120837
-6.74907e-06
0.000121179
-5.87396e-06
0.000121474
-5.56202e-06
0.000121284
-4.95678e-06
0.000120802
-4.27294e-06
0.000119419
-3.41484e-06
0.000117004
-2.62679e-06
8.76599e-08
0.000111541
4.32172e-05
-1.84177e-06
4.4815e-05
-5.10651e-06
4.69782e-05
-7.9146e-06
4.96867e-05
-1.01617e-05
5.28484e-05
-1.22064e-05
5.63789e-05
-1.39823e-05
6.01762e-05
-1.54136e-05
6.41454e-05
-1.64939e-05
6.81429e-05
-1.71894e-05
7.20366e-05
-1.74564e-05
7.56841e-05
-1.73662e-05
7.88414e-05
-1.66751e-05
8.17069e-05
-1.61888e-05
8.42125e-05
-1.57217e-05
8.62645e-05
-1.46519e-05
8.79742e-05
-1.37945e-05
8.90914e-05
-1.26617e-05
9.00109e-05
-1.15124e-05
9.06085e-05
-1.07018e-05
9.12673e-05
-1.0107e-05
9.2195e-05
-9.73296e-06
9.27435e-05
-9.43959e-06
9.32554e-05
-8.9018e-06
9.31032e-05
-8.01206e-06
9.24625e-05
-7.32966e-06
9.16007e-05
-7.34626e-06
9.07038e-05
-6.98312e-06
9.00791e-05
-6.80898e-06
8.9373e-05
-6.6023e-06
8.91563e-05
-6.53873e-06
8.97037e-05
-7.05856e-06
9.108e-05
-7.11225e-06
9.10924e-05
-5.53892e-06
9.0565e-05
-4.5871e-06
8.96877e-05
-4.20756e-06
8.84881e-05
-3.546e-06
8.75603e-05
-3.21668e-06
8.63731e-05
-2.15575e-06
8.46067e-05
-8.51795e-07
2.38077e-06
8.22586e-05
4.20339e-05
-2.88216e-06
4.36919e-05
-6.60112e-06
4.58101e-05
-9.87848e-06
4.84333e-05
-1.26501e-05
5.14219e-05
-1.50879e-05
5.4707e-05
-1.71945e-05
5.82075e-05
-1.88788e-05
6.18207e-05
-2.01081e-05
6.53423e-05
-2.07411e-05
6.86184e-05
-2.07675e-05
7.14335e-05
-2.02226e-05
7.35629e-05
-1.88944e-05
7.5351e-05
-1.81323e-05
7.64816e-05
-1.7058e-05
7.70327e-05
-1.53777e-05
7.68469e-05
-1.37286e-05
7.65439e-05
-1.24707e-05
7.69701e-05
-1.20377e-05
7.71806e-05
-1.09092e-05
7.67128e-05
-9.5048e-06
7.56008e-05
-8.89486e-06
7.4455e-05
-8.49361e-06
7.32859e-05
-7.63388e-06
7.21933e-05
-6.90758e-06
7.15087e-05
-6.72288e-06
7.01454e-05
-6.23428e-06
6.86693e-05
-5.7028e-06
6.7163e-05
-5.34086e-06
6.52003e-05
-4.52634e-06
6.31529e-05
-4.12562e-06
6.15906e-05
-4.12983e-06
6.12023e-05
-1.81966e-06
5.91566e-05
-1.79045e-06
5.74583e-05
-2.02376e-06
5.59627e-05
-2.19942e-06
5.45963e-05
-1.90575e-06
5.34776e-05
-1.87608e-06
5.29187e-05
-1.53201e-06
5.33553e-05
-1.02882e-06
6.7697e-07
5.53406e-05
4.08969e-05
-3.94347e-06
4.25108e-05
-8.05878e-06
4.45474e-05
-1.17676e-05
4.70296e-05
-1.50035e-05
4.98161e-05
-1.77719e-05
5.285e-05
-2.01587e-05
5.60312e-05
-2.20277e-05
5.91916e-05
-2.32748e-05
6.20174e-05
-2.36045e-05
6.43612e-05
-2.3131e-05
6.59798e-05
-2.18209e-05
6.68097e-05
-1.97561e-05
6.72561e-05
-1.86668e-05
6.64904e-05
-1.64829e-05
6.56654e-05
-1.47218e-05
6.5199e-05
-1.35361e-05
6.43114e-05
-1.13587e-05
6.25729e-05
-1.04049e-05
6.11371e-05
-9.43527e-06
6.01676e-05
-8.46308e-06
5.87415e-05
-7.63128e-06
5.66718e-05
-6.68682e-06
5.45833e-05
-5.54559e-06
5.24435e-05
-4.76486e-06
5.0086e-05
-4.43964e-06
4.75806e-05
-4.00836e-06
4.52716e-05
-3.70854e-06
4.3171e-05
-3.44187e-06
4.13785e-05
-2.79432e-06
3.96593e-05
-2.16474e-06
3.87994e-05
-2.40054e-06
3.87668e-05
-2.44658e-06
3.90333e-05
-4.63096e-07
3.84007e-05
-1.54674e-06
3.81727e-05
-1.60406e-06
3.77999e-05
-1.59973e-06
3.7474e-05
-1.52381e-06
3.71991e-05
-1.25155e-06
3.72307e-05
-8.64136e-07
-7.57245e-07
3.87033e-05
3.97286e-05
-4.99445e-06
4.1297e-05
-9.47813e-06
4.32547e-05
-1.35843e-05
4.5552e-05
-1.7177e-05
4.81402e-05
-2.02606e-05
5.09141e-05
-2.28651e-05
5.37009e-05
-2.47879e-05
5.61946e-05
-2.57916e-05
5.79445e-05
-2.54238e-05
5.88733e-05
-2.4079e-05
5.89092e-05
-2.17531e-05
5.82726e-05
-1.90766e-05
5.70564e-05
-1.74249e-05
5.58918e-05
-1.53833e-05
5.47105e-05
-1.38363e-05
5.24793e-05
-1.1936e-05
4.99891e-05
-9.48817e-06
4.757e-05
-7.94361e-06
4.48775e-05
-6.66745e-06
4.2329e-05
-5.92613e-06
3.98109e-05
-5.21076e-06
3.76388e-05
-4.62483e-06
3.59694e-05
-4.06661e-06
3.42992e-05
-3.31397e-06
3.3264e-05
-3.12186e-06
3.23731e-05
-3.00659e-06
3.15054e-05
-2.95418e-06
3.05368e-05
-2.51866e-06
2.9989e-05
-2.23097e-06
3.01603e-05
-2.20812e-06
3.08422e-05
-2.64475e-06
3.04876e-05
-1.64003e-06
3.15978e-05
-9.62745e-07
3.22698e-05
-1.83398e-06
3.31389e-05
-2.22897e-06
3.40506e-05
-2.4139e-06
3.48495e-05
-2.29357e-06
3.57881e-05
-2.18055e-06
3.66466e-05
-1.73357e-06
-1.6996e-06
3.75729e-05
3.85391e-05
-6.0139e-06
4.00647e-05
-1.08617e-05
4.1916e-05
-1.53004e-05
4.40286e-05
-1.91684e-05
4.6408e-05
-2.25393e-05
4.88681e-05
-2.52551e-05
5.10902e-05
-2.69908e-05
5.25494e-05
-2.73088e-05
5.26729e-05
-2.56896e-05
5.16144e-05
-2.30537e-05
4.98915e-05
-1.98618e-05
4.83766e-05
-1.74987e-05
4.68939e-05
-1.60474e-05
4.46407e-05
-1.3142e-05
4.14484e-05
-1.07438e-05
3.82471e-05
-8.29732e-06
3.42675e-05
-6.33674e-06
3.17442e-05
-5.37859e-06
3.0142e-05
-4.99638e-06
2.88282e-05
-4.56386e-06
2.7693e-05
-4.07323e-06
2.67549e-05
-3.61987e-06
2.56692e-05
-3.10748e-06
2.47469e-05
-3.20556e-06
2.47674e-05
-2.80387e-06
2.47587e-05
-2.80735e-06
2.45889e-05
-2.70481e-06
2.46483e-05
-2.52456e-06
2.53197e-05
-2.76463e-06
2.63794e-05
-2.9058e-06
2.72693e-05
-2.96593e-06
2.86593e-05
-2.21584e-06
3.00816e-05
-1.95887e-06
3.07586e-05
-2.25531e-06
3.11545e-05
-2.52533e-06
3.13806e-05
-2.62486e-06
3.15885e-05
-2.54309e-06
3.19266e-05
-2.54975e-06
3.24373e-05
-2.27398e-06
-2.30336e-06
3.29875e-05
3.7342e-05
-6.99403e-06
3.88188e-05
-1.22031e-05
4.05294e-05
-1.68805e-05
4.24654e-05
-2.09831e-05
4.45856e-05
-2.45506e-05
4.65822e-05
-2.71687e-05
4.79052e-05
-2.82975e-05
4.77601e-05
-2.72808e-05
4.55853e-05
-2.37643e-05
4.33447e-05
-2.08601e-05
4.11701e-05
-1.7366e-05
3.88846e-05
-1.53051e-05
3.561e-05
-1.26482e-05
3.17125e-05
-9.16733e-06
2.83446e-05
-7.43921e-06
2.61977e-05
-6.1673e-06
2.35923e-05
-5.50969e-06
2.25409e-05
-4.62049e-06
2.19221e-05
-4.15932e-06
2.13342e-05
-3.91568e-06
2.09843e-05
-3.6962e-06
2.07696e-05
-3.38927e-06
2.07749e-05
-3.21886e-06
2.07849e-05
-3.33923e-06
2.13582e-05
-3.35961e-06
2.17912e-05
-3.27373e-06
2.21682e-05
-3.10544e-06
2.26125e-05
-2.92904e-06
2.30041e-05
-2.9388e-06
2.32881e-05
-2.87853e-06
2.35488e-05
-2.88352e-06
2.43295e-05
-2.67568e-06
2.52818e-05
-2.57136e-06
2.58482e-05
-2.66682e-06
2.61256e-05
-2.77647e-06
2.62919e-05
-2.8168e-06
2.64548e-05
-2.74734e-06
2.66115e-05
-2.72396e-06
2.67813e-05
-2.48461e-06
-2.31264e-06
2.67267e-05
3.61807e-05
-7.97053e-06
3.75915e-05
-1.34851e-05
3.91683e-05
-1.83313e-05
4.08818e-05
-2.25727e-05
4.25969e-05
-2.61403e-05
4.38006e-05
-2.82592e-05
4.36373e-05
-2.81066e-05
4.11769e-05
-2.5009e-05
3.82341e-05
-2.11085e-05
3.56603e-05
-1.85106e-05
3.1802e-05
-1.53949e-05
2.75063e-05
-1.15301e-05
2.37913e-05
-8.42431e-06
2.17493e-05
-6.87228e-06
2.01933e-05
-5.81145e-06
1.92099e-05
-5.093e-06
1.79106e-05
-4.28764e-06
1.74204e-05
-4.31654e-06
1.72988e-05
-4.10329e-06
1.74505e-05
-4.07503e-06
1.77974e-05
-4.06786e-06
1.81423e-05
-3.78161e-06
1.82653e-05
-3.42334e-06
1.81497e-05
-3.29515e-06
1.78863e-05
-3.10557e-06
1.76356e-05
-2.96315e-06
1.76973e-05
-3.03759e-06
1.81559e-05
-3.12057e-06
1.8706e-05
-3.09416e-06
1.91786e-05
-2.99092e-06
1.94323e-05
-2.87503e-06
1.96812e-05
-2.71042e-06
1.98399e-05
-2.6336e-06
1.98163e-05
-2.6366e-06
1.96837e-05
-2.67359e-06
1.95281e-05
-2.68063e-06
1.93811e-05
-2.64391e-06
1.92266e-05
-2.60613e-06
1.90675e-05
-2.35358e-06
-2.04497e-06
1.87532e-05
3.49982e-05
-8.92223e-06
3.64125e-05
-1.47778e-05
3.78684e-05
-1.96672e-05
3.92444e-05
-2.38239e-05
4.02484e-05
-2.6998e-05
4.00517e-05
-2.78946e-05
3.75588e-05
-2.55287e-05
3.47219e-05
-2.19651e-05
3.13962e-05
-1.81603e-05
2.63253e-05
-1.35962e-05
2.21253e-05
-9.73044e-06
1.89458e-05
-8.16272e-06
1.72708e-05
-6.57602e-06
1.58941e-05
-5.39933e-06
1.5104e-05
-4.98197e-06
1.47233e-05
-4.67114e-06
1.47445e-05
-4.33915e-06
1.46242e-05
-4.19304e-06
1.45414e-05
-3.98574e-06
1.4307e-05
-3.83256e-06
1.38239e-05
-3.62885e-06
1.34376e-05
-3.50663e-06
1.33944e-05
-3.5518e-06
1.35291e-05
-3.49568e-06
1.38377e-05
-3.32168e-06
1.41745e-05
-3.14278e-06
1.44082e-05
-3.0836e-06
1.4423e-05
-2.9873e-06
1.4406e-05
-2.93564e-06
1.43867e-05
-2.88019e-06
1.42972e-05
-2.77951e-06
1.42077e-05
-2.64741e-06
1.40805e-05
-2.56015e-06
1.38645e-05
-2.50454e-06
1.36107e-05
-2.46091e-06
1.33186e-05
-2.42202e-06
1.30151e-05
-2.3766e-06
1.27201e-05
-2.34025e-06
1.24986e-05
-2.14955e-06
-1.83559e-06
1.22535e-05
3.388e-05
-9.91332e-06
3.53131e-05
-1.60977e-05
3.65861e-05
-2.08315e-05
3.73832e-05
-2.45067e-05
3.71101e-05
-2.65675e-05
3.46139e-05
-2.51375e-05
3.14996e-05
-2.18337e-05
2.80153e-05
-1.665e-05
2.22769e-05
-1.26727e-05
1.79358e-05
-9.3183e-06
1.5801e-05
-7.6124e-06
1.39746e-05
-6.30502e-06
1.3092e-05
-5.64086e-06
1.26708e-05
-5.00234e-06
1.23836e-05
-4.73103e-06
1.19495e-05
-4.23375e-06
1.12953e-05
-3.63855e-06
1.05485e-05
-3.37611e-06
1.02298e-05
-3.63667e-06
1.02736e-05
-3.87139e-06
1.04498e-05
-3.94631e-06
1.07043e-05
-3.91391e-06
1.09741e-05
-3.8893e-06
1.11773e-05
-3.69843e-06
1.14679e-05
-3.56428e-06
1.18432e-05
-3.43743e-06
1.20878e-05
-3.27847e-06
1.21132e-05
-3.03215e-06
1.19638e-05
-2.83358e-06
1.17011e-05
-2.67497e-06
1.13389e-05
-2.51788e-06
1.09784e-05
-2.36079e-06
1.06156e-05
-2.24971e-06
1.02341e-05
-2.16575e-06
9.84368e-06
-2.10182e-06
9.44672e-06
-2.05187e-06
9.05499e-06
-2.00627e-06
8.65468e-06
-1.9555e-06
8.32579e-06
-1.83079e-06
-1.60001e-06
8.07505e-06
3.27962e-05
-1.09778e-05
3.42419e-05
-1.74415e-05
3.51796e-05
-2.16846e-05
3.48852e-05
-2.41424e-05
3.24073e-05
-2.39381e-05
2.91768e-05
-2.13965e-05
2.51092e-05
-1.65885e-05
1.9001e-05
-1.21263e-05
1.49161e-05
-8.63303e-06
1.30128e-05
-7.36695e-06
1.18621e-05
-6.45562e-06
1.10975e-05
-5.54261e-06
1.07091e-05
-5.26276e-06
1.01855e-05
-4.37353e-06
9.00936e-06
-3.65603e-06
8.02231e-06
-3.20954e-06
7.78517e-06
-3.30536e-06
8.13828e-06
-3.56124e-06
8.54763e-06
-4.00067e-06
8.83775e-06
-4.17944e-06
9.31404e-06
-4.48276e-06
9.98636e-06
-4.65217e-06
1.06289e-05
-4.55147e-06
1.11622e-05
-4.22587e-06
1.14326e-05
-3.84764e-06
1.13938e-05
-3.43682e-06
1.11328e-05
-3.07896e-06
1.07366e-05
-2.74474e-06
1.02666e-05
-2.46664e-06
9.74999e-06
-2.25041e-06
9.23138e-06
-2.07708e-06
8.7421e-06
-1.93107e-06
8.26814e-06
-1.82687e-06
7.82398e-06
-1.75994e-06
7.40547e-06
-1.714e-06
7.00832e-06
-1.68035e-06
6.63096e-06
-1.64981e-06
6.2685e-06
-1.60977e-06
5.96317e-06
-1.53937e-06
-1.39472e-06
5.73989e-06
3.16792e-05
-1.20822e-05
3.31053e-05
-1.87841e-05
3.32953e-05
-2.18391e-05
3.0921e-05
-2.17809e-05
2.74853e-05
-2.02269e-05
2.3234e-05
-1.63966e-05
1.71516e-05
-1.17947e-05
1.30204e-05
-8.16021e-06
1.11336e-05
-6.73088e-06
1.02858e-05
-6.46979e-06
9.60054e-06
-5.81056e-06
8.88931e-06
-4.75827e-06
7.66287e-06
-3.93527e-06
6.532e-06
-3.22148e-06
6.06457e-06
-3.17428e-06
6.29859e-06
-3.35053e-06
6.82066e-06
-3.72095e-06
7.64785e-06
-4.31767e-06
8.75176e-06
-5.01698e-06
9.85793e-06
-5.28305e-06
1.06872e-05
-5.33632e-06
1.10736e-05
-5.06531e-06
1.11201e-05
-4.62509e-06
1.09747e-05
-4.11515e-06
1.06487e-05
-3.56961e-06
1.01783e-05
-3.04315e-06
9.61123e-06
-2.60634e-06
9.01e-06
-2.24627e-06
8.40567e-06
-1.96792e-06
7.83688e-06
-1.77477e-06
7.31869e-06
-1.63548e-06
6.85623e-06
-1.52925e-06
6.43908e-06
-1.45552e-06
6.05465e-06
-1.41048e-06
5.6964e-06
-1.38392e-06
5.36025e-06
-1.36792e-06
5.044e-06
-1.35399e-06
4.75137e-06
-1.33588e-06
4.49847e-06
-1.3051e-06
-1.23346e-06
4.31693e-06
3.05215e-05
-1.31861e-05
3.16573e-05
-1.98646e-05
3.00186e-05
-2.02249e-05
2.64241e-05
-1.83136e-05
2.19333e-05
-1.54772e-05
1.58682e-05
-1.12271e-05
1.16783e-05
-7.82836e-06
9.80914e-06
-6.32548e-06
9.00103e-06
-5.86205e-06
8.23716e-06
-5.6906e-06
6.97218e-06
-4.62182e-06
5.64548e-06
-3.67994e-06
4.89346e-06
-3.26033e-06
4.96944e-06
-3.28783e-06
5.4439e-06
-3.62005e-06
6.38923e-06
-4.25618e-06
7.91517e-06
-5.1609e-06
9.4712e-06
-5.7569e-06
1.04237e-05
-5.92235e-06
1.08727e-05
-5.72197e-06
1.09e-05
-5.37104e-06
1.06756e-05
-4.86016e-06
1.0244e-05
-4.2245e-06
9.65212e-06
-3.5628e-06
8.98248e-06
-2.96306e-06
8.31698e-06
-2.4619e-06
7.68528e-06
-2.0695e-06
7.10858e-06
-1.76507e-06
6.59104e-06
-1.53774e-06
6.12312e-06
-1.38146e-06
5.70216e-06
-1.27542e-06
5.32663e-06
-1.20229e-06
4.98847e-06
-1.15572e-06
4.67838e-06
-1.13124e-06
4.39062e-06
-1.12202e-06
4.12251e-06
-1.12283e-06
3.87372e-06
-1.12681e-06
3.64853e-06
-1.13055e-06
3.44797e-06
-1.12277e-06
-1.09227e-06
3.29395e-06
2.93125e-05
-1.42376e-05
2.88003e-05
-1.93295e-05
2.59456e-05
-1.72867e-05
2.09577e-05
-1.55121e-05
1.48151e-05
-1.04878e-05
1.06876e-05
-7.2789e-06
8.75027e-06
-5.94752e-06
7.74563e-06
-5.30332e-06
7.03278e-06
-5.08805e-06
5.69476e-06
-4.35951e-06
4.65452e-06
-3.59743e-06
4.26288e-06
-3.43421e-06
4.44108e-06
-3.49821e-06
5.26216e-06
-4.10731e-06
6.73532e-06
-5.06863e-06
8.48509e-06
-5.97425e-06
9.75462e-06
-6.38159e-06
1.03644e-05
-6.32811e-06
1.05322e-05
-6.06951e-06
1.03963e-05
-5.57639e-06
9.94781e-06
-4.93456e-06
9.27175e-06
-4.21061e-06
8.49818e-06
-3.48562e-06
7.74371e-06
-2.85466e-06
7.05555e-06
-2.33416e-06
6.44608e-06
-1.92146e-06
5.91082e-06
-1.60705e-06
5.44538e-06
-1.37052e-06
5.04049e-06
-1.19731e-06
4.68194e-06
-1.07873e-06
4.36109e-06
-1.00143e-06
4.07318e-06
-9.5321e-07
3.81253e-06
-9.27345e-07
3.57334e-06
-9.19414e-07
3.35246e-06
-9.264e-07
3.15029e-06
-9.43816e-07
2.96453e-06
-9.60296e-07
2.79038e-06
-9.74021e-07
2.63549e-06
-9.80004e-07
-9.8426e-07
2.49984e-06
2.71705e-05
-1.43016e-05
2.47772e-05
-1.68889e-05
2.00538e-05
-1.25047e-05
1.41149e-05
-8.58216e-06
9.92344e-06
-6.42036e-06
8.01984e-06
-5.40463e-06
6.97322e-06
-4.89669e-06
6.20443e-06
-4.50402e-06
5.06605e-06
-3.90804e-06
4.31321e-06
-3.55047e-06
4.13856e-06
-3.41482e-06
4.38348e-06
-3.71003e-06
5.44195e-06
-4.56926e-06
7.14507e-06
-5.80515e-06
8.74595e-06
-6.63423e-06
9.65807e-06
-6.84552e-06
1.00043e-05
-6.69763e-06
1.00057e-05
-6.30546e-06
9.67411e-06
-5.72237e-06
9.04571e-06
-4.95071e-06
8.22031e-06
-4.13189e-06
7.36236e-06
-3.38288e-06
6.57375e-06
-2.73358e-06
5.88896e-06
-2.21155e-06
5.31263e-06
-1.80444e-06
4.82945e-06
-1.48891e-06
4.42e-06
-1.24983e-06
4.07056e-06
-1.07189e-06
3.76947e-06
-9.4317e-07
3.50467e-06
-8.55804e-07
3.26798e-06
-8.01335e-07
3.05442e-06
-7.71435e-07
2.86018e-06
-7.61902e-07
2.68238e-06
-7.68914e-07
2.52111e-06
-7.86952e-07
2.37021e-06
-8.09735e-07
2.22803e-06
-8.30216e-07
2.08681e-06
-8.58789e-07
1.96518e-06
-8.74639e-07
-9.10611e-07
1.87381e-06
2.48975e-05
-1.3244e-05
1.94571e-05
-1.151e-05
1.3206e-05
-6.57801e-06
9.38771e-06
-4.84862e-06
7.69045e-06
-4.73885e-06
6.64357e-06
-4.34652e-06
5.77821e-06
-4.00259e-06
4.81388e-06
-3.49736e-06
4.36081e-06
-3.34169e-06
4.26018e-06
-3.40974e-06
4.70236e-06
-3.87264e-06
6.07355e-06
-5.05315e-06
7.79878e-06
-6.29781e-06
8.94967e-06
-6.95337e-06
9.44292e-06
-7.10895e-06
9.55578e-06
-6.93548e-06
9.37235e-06
-6.49117e-06
8.89761e-06
-5.81319e-06
8.13429e-06
-4.9565e-06
7.23081e-06
-4.06022e-06
6.34631e-06
-3.27221e-06
5.55378e-06
-2.62121e-06
4.88629e-06
-2.09855e-06
4.3415e-06
-1.70026e-06
3.89971e-06
-1.39724e-06
3.53748e-06
-1.16288e-06
3.23508e-06
-9.84704e-07
2.97895e-06
-8.52543e-07
2.75894e-06
-7.58121e-07
2.56578e-06
-6.95064e-07
2.39338e-06
-6.59362e-07
2.23767e-06
-6.44828e-07
2.09689e-06
-6.46046e-07
1.96672e-06
-6.59053e-07
1.84704e-06
-6.79815e-07
1.72963e-06
-7.1257e-07
1.61749e-06
-7.38304e-07
1.51657e-06
-7.77407e-07
1.44336e-06
-8.13938e-07
-8.67847e-07
1.39832e-06
1.98758e-05
-8.32038e-06
1.2256e-05
-4.00178e-06
8.79938e-06
-3.16548e-06
7.39317e-06
-3.45855e-06
6.3123e-06
-3.6622e-06
5.33613e-06
-3.33875e-06
4.58648e-06
-3.21497e-06
4.47182e-06
-3.2732e-06
4.68924e-06
-3.51628e-06
5.5212e-06
-4.18136e-06
6.95221e-06
-5.38702e-06
8.24646e-06
-6.39715e-06
8.94141e-06
-7.00321e-06
9.18234e-06
-7.18952e-06
9.10576e-06
-7.01976e-06
8.76093e-06
-6.57445e-06
8.1656e-06
-5.87875e-06
7.32908e-06
-4.97167e-06
6.37868e-06
-4.00717e-06
5.47987e-06
-3.17608e-06
4.70413e-06
-2.5202e-06
4.06013e-06
-2.00441e-06
3.5442e-06
-1.6078e-06
3.13475e-06
-1.31687e-06
2.80631e-06
-1.09481e-06
2.5384e-06
-9.21535e-07
2.31599e-06
-7.89744e-07
2.12825e-06
-6.92588e-07
1.96776e-06
-6.25394e-07
1.8272e-06
-5.82411e-07
1.703e-06
-5.60621e-07
1.59089e-06
-5.53986e-07
1.48859e-06
-5.57615e-07
1.39012e-06
-5.7651e-07
1.29342e-06
-6.06125e-07
1.20964e-06
-6.46877e-07
1.13719e-06
-6.80408e-07
1.08583e-06
-7.25536e-07
1.04341e-06
-7.73498e-07
-8.29892e-07
1.00266e-06
1.61097e-05
-7.84413e-07
9.47618e-06
2.63741e-06
6.9412e-06
-7.48049e-07
5.83175e-06
-2.46474e-06
5.00716e-06
-2.87141e-06
4.7441e-06
-3.04708e-06
4.96577e-06
-3.38651e-06
5.42638e-06
-3.66781e-06
6.4206e-06
-4.42214e-06
7.68932e-06
-5.40792e-06
8.52039e-06
-6.21481e-06
8.87862e-06
-6.7561e-06
8.91064e-06
-7.03214e-06
8.69772e-06
-6.97127e-06
8.24452e-06
-6.55896e-06
7.54757e-06
-5.86524e-06
6.66169e-06
-4.98403e-06
5.68012e-06
-3.99881e-06
4.77149e-06
-3.10036e-06
4.0122e-06
-2.4316e-06
3.39746e-06
-1.92517e-06
2.9033e-06
-1.53177e-06
2.52119e-06
-1.24083e-06
2.21855e-06
-1.03561e-06
1.97341e-06
-8.71296e-07
1.77368e-06
-7.42537e-07
1.60883e-06
-6.46451e-07
1.47037e-06
-5.7746e-07
1.35424e-06
-5.31367e-07
1.25261e-06
-5.01001e-07
1.16111e-06
-4.86443e-07
1.07977e-06
-4.86084e-07
9.97691e-07
-4.99624e-07
9.21448e-07
-5.17637e-07
8.50825e-07
-5.51264e-07
8.17182e-07
-5.84226e-07
7.75238e-07
-6.34701e-07
7.35507e-07
-6.84839e-07
6.95829e-07
-7.36193e-07
-7.93943e-07
6.55563e-07
8.26491e-06
1.12398e-06
9.09645e-06
1.78606e-06
8.15311e-06
1.79433e-07
7.19439e-06
-1.5515e-06
6.72692e-06
-2.45098e-06
6.77101e-06
-3.09641e-06
7.18239e-06
-3.75017e-06
7.89446e-06
-4.31987e-06
8.43741e-06
-4.92359e-06
8.72045e-06
-5.67158e-06
8.78297e-06
-6.26987e-06
8.67323e-06
-6.64274e-06
8.36958e-06
-6.72565e-06
7.82648e-06
-6.42591e-06
7.05755e-06
-5.78626e-06
6.13073e-06
-4.92758e-06
5.15481e-06
-4.00646e-06
4.20966e-06
-3.06699e-06
3.46239e-06
-2.3543e-06
2.87657e-06
-1.86055e-06
2.4047e-06
-1.4738e-06
2.03334e-06
-1.17686e-06
1.75214e-06
-9.70738e-07
1.52413e-06
-8.25662e-07
1.33946e-06
-7.03961e-07
1.19003e-06
-6.10602e-07
1.06793e-06
-5.42007e-07
9.65563e-07
-4.919e-07
8.81077e-07
-4.59394e-07
8.04575e-07
-4.39547e-07
7.33016e-07
-4.37027e-07
6.71646e-07
-4.4138e-07
6.13281e-07
-4.59056e-07
5.65141e-07
-4.79897e-07
5.28164e-07
-5.13686e-07
5.01112e-07
-5.51286e-07
4.67115e-07
-5.99638e-07
4.30552e-07
-6.49898e-07
3.91103e-07
-7.00405e-07
-7.57324e-07
3.49207e-07
9.22508e-06
1.55153e-06
9.59837e-06
1.4475e-06
9.46802e-06
3.19563e-07
9.18634e-06
-1.26303e-06
8.9494e-06
-2.21319e-06
8.77865e-06
-2.90339e-06
8.6699e-06
-3.61245e-06
8.65291e-06
-4.2761e-06
8.67866e-06
-4.92957e-06
8.61517e-06
-5.59558e-06
8.44194e-06
-6.0895e-06
8.09094e-06
-6.28837e-06
7.49004e-06
-6.12422e-06
6.6803e-06
-5.61738e-06
5.72494e-06
-4.83232e-06
4.74694e-06
-3.94452e-06
3.82378e-06
-3.08821e-06
3.05947e-06
-2.30778e-06
2.47808e-06
-1.78947e-06
2.00739e-06
-1.4047e-06
1.64846e-06
-1.1285e-06
1.38243e-06
-9.19262e-07
1.17274e-06
-7.75101e-07
9.99013e-07
-6.67383e-07
8.60217e-07
-5.79303e-07
7.48517e-07
-5.11958e-07
6.57414e-07
-4.61004e-07
5.78614e-07
-4.26733e-07
5.13255e-07
-4.10299e-07
4.53488e-07
-3.95967e-07
4.01141e-07
-4.01194e-07
3.61979e-07
-4.05486e-07
3.27396e-07
-4.2469e-07
2.95195e-07
-4.4854e-07
2.62088e-07
-4.81099e-07
2.31722e-07
-5.20393e-07
1.99095e-07
-5.67793e-07
1.61402e-07
-6.15186e-07
1.24496e-07
-6.67298e-07
-7.18637e-07
8.1e-08
8.84036e-06
1.84241e-06
9.12607e-06
1.2087e-06
9.02464e-06
4.64882e-07
8.85554e-06
-1.05492e-06
8.61124e-06
-1.93449e-06
8.49699e-06
-2.75717e-06
8.46974e-06
-3.55811e-06
8.46177e-06
-4.24636e-06
8.40369e-06
-4.85486e-06
8.20856e-06
-5.38908e-06
7.82733e-06
-5.70127e-06
7.20272e-06
-5.66345e-06
6.37868e-06
-5.30132e-06
5.40895e-06
-4.65405e-06
4.42915e-06
-3.85136e-06
3.54043e-06
-3.05667e-06
2.76409e-06
-2.32497e-06
2.16124e-06
-1.72278e-06
1.70114e-06
-1.34183e-06
1.35744e-06
-1.07275e-06
1.09589e-06
-8.77899e-07
8.99059e-07
-7.29644e-07
7.37255e-07
-6.27869e-07
6.07236e-07
-5.48344e-07
5.01265e-07
-4.83561e-07
4.15762e-07
-4.35105e-07
3.43538e-07
-4.01733e-07
2.80528e-07
-3.78865e-07
2.33683e-07
-3.7641e-07
1.89193e-07
-3.62847e-07
1.56376e-07
-3.67311e-07
1.25325e-07
-3.77664e-07
9.79204e-08
-3.97487e-07
7.14512e-08
-4.23524e-07
4.30044e-08
-4.56268e-07
1.38199e-08
-4.92879e-07
-2.12013e-08
-5.34021e-07
-5.81181e-08
-5.80491e-07
-9.89133e-08
-6.2957e-07
-6.79912e-07
-1.41723e-07
8.40841e-06
2.04415e-06
8.59861e-06
1.06492e-06
8.79375e-06
3.15099e-07
8.70331e-06
-9.22576e-07
8.56687e-06
-1.76063e-06
8.45237e-06
-2.60968e-06
8.34007e-06
-3.41834e-06
8.18687e-06
-4.07134e-06
7.9617e-06
-4.61329e-06
7.55666e-06
-4.97289e-06
6.92094e-06
-5.05923e-06
6.10951e-06
-4.85156e-06
5.17341e-06
-4.37209e-06
4.22168e-06
-3.70701e-06
3.33155e-06
-2.97771e-06
2.53716e-06
-2.27733e-06
1.90859e-06
-1.70969e-06
1.46453e-06
-1.29221e-06
1.13271e-06
-1.02113e-06
8.80793e-07
-8.3106e-07
6.91114e-07
-6.93189e-07
5.39911e-07
-5.89434e-07
4.15491e-07
-5.13834e-07
3.162e-07
-4.55844e-07
2.32647e-07
-4.11729e-07
1.64939e-07
-3.79673e-07
1.04462e-07
-3.52992e-07
5.48223e-08
-3.41384e-07
3.08595e-08
-3.23031e-07
1.63042e-09
-3.30233e-07
-2.9948e-08
-3.34672e-07
-5.78581e-08
-3.49942e-07
-8.50875e-08
-3.71094e-07
-1.13934e-07
-3.979e-07
-1.46935e-07
-4.30024e-07
-1.78783e-07
-4.64521e-07
-2.11636e-07
-5.02979e-07
-2.48806e-07
-5.4542e-07
-2.90561e-07
-5.90778e-07
-6.3897e-07
-3.35483e-07
8.03906e-06
2.09409e-06
8.20222e-06
9.46285e-07
8.33227e-06
2.28695e-07
8.3097e-06
-8.59256e-07
8.21997e-06
-1.63374e-06
8.09691e-06
-2.45388e-06
7.92761e-06
-3.2215e-06
7.65886e-06
-3.78054e-06
7.21855e-06
-4.15642e-06
6.5903e-06
-4.33366e-06
5.81471e-06
-4.27786e-06
4.93541e-06
-3.97432e-06
4.02793e-06
-3.47024e-06
3.15965e-06
-2.85944e-06
2.37438e-06
-2.21326e-06
1.74737e-06
-1.66675e-06
1.28856e-06
-1.26519e-06
9.64238e-07
-9.79892e-07
7.22363e-07
-7.89409e-07
5.35383e-07
-6.53349e-07
3.9547e-07
-5.51444e-07
2.77133e-07
-4.78762e-07
1.80042e-07
-4.25567e-07
9.82683e-08
-3.8424e-07
3.07154e-08
-3.5543e-07
-1.96706e-08
-3.40204e-07
-6.32944e-08
-3.16188e-07
-1.00986e-07
-3.03001e-07
-1.25172e-07
-2.92629e-07
-1.56094e-07
-2.98171e-07
-1.82881e-07
-3.0781e-07
-2.09616e-07
-3.23659e-07
-2.36792e-07
-3.44785e-07
-2.65901e-07
-3.70901e-07
-2.98677e-07
-4.01255e-07
-3.31953e-07
-4.33703e-07
-3.67417e-07
-4.69387e-07
-4.06788e-07
-5.08459e-07
-4.50553e-07
-5.50359e-07
-5.95746e-07
-4.98174e-07
7.57202e-06
2.08985e-06
7.63539e-06
9.25305e-07
7.83472e-06
7.10707e-08
7.81638e-06
-8.01489e-07
7.72167e-06
-1.50281e-06
7.54402e-06
-2.24408e-06
7.22253e-06
-2.87268e-06
6.76385e-06
-3.29971e-06
6.17232e-06
-3.54775e-06
5.45553e-06
-3.60767e-06
4.65297e-06
-3.46946e-06
3.81807e-06
-3.14027e-06
3.00834e-06
-2.67824e-06
2.2546e-06
-2.13199e-06
1.6364e-06
-1.61641e-06
1.17657e-06
-1.22451e-06
8.45873e-07
-9.48535e-07
6.08599e-07
-7.53636e-07
4.29239e-07
-6.19167e-07
2.89278e-07
-5.21498e-07
1.80159e-07
-4.49931e-07
8.37714e-08
-3.96274e-07
5.75748e-09
-3.58119e-07
-5.95309e-08
-3.29182e-07
-1.14842e-07
-3.08812e-07
-1.46193e-07
-2.8437e-07
-1.84523e-07
-2.74302e-07
-2.18638e-07
-2.6808e-07
-2.45893e-07
-2.64616e-07
-2.75209e-07
-2.70114e-07
-3.02046e-07
-2.81468e-07
-3.28952e-07
-2.97403e-07
-3.56898e-07
-3.177e-07
-3.86859e-07
-3.42207e-07
-4.19812e-07
-3.70257e-07
-4.54722e-07
-4.00556e-07
-4.92576e-07
-4.33603e-07
-5.34394e-07
-4.69511e-07
-5.80566e-07
-5.08079e-07
-5.50348e-07
-6.30961e-07
7.03399e-06
2.10233e-06
7.01903e-06
9.80452e-07
7.09961e-06
3.03619e-08
7.03688e-06
-7.00899e-07
6.88405e-06
-1.31496e-06
6.60105e-06
-1.92977e-06
6.17582e-06
-2.42051e-06
5.64241e-06
-2.74438e-06
5.0134e-06
-2.90224e-06
4.29921e-06
-2.89069e-06
3.55888e-06
-2.71653e-06
2.82484e-06
-2.41422e-06
2.12357e-06
-2.0033e-06
1.52409e-06
-1.56111e-06
1.07791e-06
-1.19188e-06
7.58335e-07
-9.21219e-07
5.26847e-07
-7.29392e-07
3.54491e-07
-5.91433e-07
2.19864e-07
-4.93343e-07
1.11123e-07
-4.20876e-07
2.0221e-08
-3.67145e-07
-5.40848e-08
-3.32062e-07
-1.17041e-07
-3.05715e-07
-1.68875e-07
-2.84702e-07
-2.11277e-07
-2.64426e-07
-2.43385e-07
-2.46979e-07
-2.76887e-07
-2.39809e-07
-3.0793e-07
-2.37138e-07
-3.35377e-07
-2.38257e-07
-3.65168e-07
-2.45605e-07
-3.92016e-07
-2.55996e-07
-4.1944e-07
-2.70844e-07
-4.48352e-07
-2.89797e-07
-4.79387e-07
-3.1236e-07
-5.13184e-07
-3.37954e-07
-5.49707e-07
-3.65809e-07
-5.89652e-07
-3.96029e-07
-6.3375e-07
-4.2868e-07
-6.82325e-07
-4.63859e-07
-5.02843e-07
-7.35296e-07
6.23276e-06
2.3946e-06
6.17018e-06
1.08085e-06
6.1168e-06
1.21241e-07
5.97084e-06
-5.18891e-07
5.76634e-06
-1.07688e-06
5.43714e-06
-1.5703e-06
4.99816e-06
-1.95526e-06
4.47516e-06
-2.19982e-06
3.87907e-06
-2.28967e-06
3.23974e-06
-2.24169e-06
2.60458e-06
-2.07931e-06
1.99341e-06
-1.8189e-06
1.4449e-06
-1.48578e-06
1.01612e-06
-1.15913e-06
7.0366e-07
-9.00091e-07
4.76958e-07
-7.09931e-07
3.07606e-07
-5.71928e-07
1.77454e-07
-4.71023e-07
7.11436e-08
-3.95621e-07
-1.57662e-08
-3.42111e-07
-8.6946e-08
-3.04341e-07
-1.48377e-07
-2.80946e-07
-1.99625e-07
-2.6137e-07
-2.41929e-07
-2.41966e-07
-2.7957e-07
-2.26022e-07
-3.1191e-07
-2.14049e-07
-3.42931e-07
-2.09073e-07
-3.72267e-07
-2.08313e-07
-3.99818e-07
-2.1136e-07
-4.28252e-07
-2.18917e-07
-4.55766e-07
-2.29331e-07
-4.84126e-07
-2.4345e-07
-5.14093e-07
-2.60999e-07
-5.46227e-07
-2.81546e-07
-5.81077e-07
-3.04638e-07
-6.18985e-07
-3.29781e-07
-6.60611e-07
-3.56897e-07
-7.06643e-07
-3.8606e-07
-7.57379e-07
-4.17659e-07
-4.5324e-07
-8.12517e-07
4.04542e-06
9.22421e-07
4.52781e-06
6.33936e-07
4.6693e-06
1.50332e-08
4.6574e-06
-4.72961e-07
4.50082e-06
-8.88379e-07
4.21651e-06
-1.25698e-06
3.83972e-06
-1.5531e-06
3.38338e-06
-1.72247e-06
2.86911e-06
-1.76022e-06
2.34431e-06
-1.70769e-06
1.84187e-06
-1.58016e-06
1.3745e-06
-1.37481e-06
9.79716e-07
-1.11992e-06
6.78311e-07
-8.82765e-07
4.55389e-07
-6.96327e-07
2.88111e-07
-5.57148e-07
1.58907e-07
-4.54137e-07
5.48327e-08
-3.76464e-07
-2.97156e-08
-3.1958e-07
-1.00297e-07
-2.798e-07
-1.60231e-07
-2.54201e-07
-2.1045e-07
-2.37038e-07
-2.52317e-07
-2.19013e-07
-2.90478e-07
-2.03519e-07
-3.25032e-07
-1.91656e-07
-3.56316e-07
-1.83495e-07
-3.85713e-07
-1.80391e-07
-4.13912e-07
-1.8087e-07
-4.41273e-07
-1.8472e-07
-4.6896e-07
-1.92086e-07
-4.96927e-07
-2.02253e-07
-5.26011e-07
-2.15459e-07
-5.56807e-07
-2.31447e-07
-5.89807e-07
-2.49896e-07
-6.2549e-07
-2.7043e-07
-6.6434e-07
-2.9266e-07
-7.07083e-07
-3.16416e-07
-7.54533e-07
-3.41787e-07
-8.07016e-07
-3.69462e-07
-4.01506e-07
-8.63702e-07
2.81435e-06
4.58025e-07
3.28481e-06
1.96393e-07
3.46438e-06
-1.31704e-07
3.48069e-06
-4.5744e-07
3.36253e-06
-7.40171e-07
3.14799e-06
-1.01495e-06
2.84398e-06
-1.22482e-06
2.46694e-06
-1.32515e-06
2.06322e-06
-1.34149e-06
1.67036e-06
-1.30827e-06
1.29913e-06
-1.218e-06
9.59208e-07
-1.05948e-06
6.76999e-07