/*--------------------------------*- C++ -*----------------------------------*\
| =========                 |                                                 |
| \\      /  F ield         | OpenFOAM: The Open Source CFD Toolbox           |
|  \\    /   O peration     | Version:  2.3.0                                 |
|   \\  /    A nd           | Web:      www.OpenFOAM.org                      |
|    \\/     M anipulation  |                                                 |
\*---------------------------------------------------------------------------*/
FoamFile
{
    version     2.0;
    format      ascii;
    class       volScalarField;
    location    "0.1";
    object      T;
}
// * * * * * * * * * * * * * * * * * * * * * * * * * * * * * * * * * * * * * //

dimensions      [0 0 0 1 0 0 0];

internalField   nonuniform List<scalar> 
26600
(
413.399
415.879
418.016
419.84
421.349
422.577
423.541
424.247
424.682
424.872
424.944
425.026
425.23
425.586
426.145
426.916
427.934
429.128
430.518
432.028
433.754
435.573
437.557
439.584
441.706
443.877
446.24
448.833
451.433
454.034
456.738
459.554
462.406
465.28
468.16
471.151
474.301
478.013
481.653
487.043
411.152
411.264
411.367
411.474
411.591
411.71
411.832
411.978
412.198
412.582
413.23
414.169
415.768
417.763
420.377
423.145
426.742
430.448
435.154
439.092
445.309
450.111
457.131
463.655
471.583
476.886
485.393
496.547
501.344
506.053
512.899
519.323
524.458
531.073
536.521
543.841
550.446
558.286
569.174
526.506
411.061
411.104
411.128
411.148
411.171
411.206
411.291
411.464
411.839
412.591
413.985
416.231
420.207
424.31
430.59
436.67
444.555
454.44
462.568
473.286
486.187
496.061
515.814
525.947
534.85
544.147
556.324
570.216
580.176
598.061
612.081
631.972
647.465
666.941
681.071
701.976
717.682
737.844
750.768
776.41
411.051
411.085
411.1
411.112
411.133
411.193
411.362
411.772
412.667
414.566
417.522
422.642
429.792
437.368
449.604
460.025
476.721
494.075
507.473
533.645
545.359
562.219
581.927
600.466
623.827
648.14
680.02
704.551
732.741
765.975
783.928
809.518
833.317
863.887
885.893
932.108
961.298
989.118
1015.85
1044.49
411.049
411.081
411.094
411.108
411.153
411.304
411.717
412.685
414.743
418.977
425.056
435.401
447.066
460.958
483.458
500.958
535.423
559.026
574.245
604.249
634.54
668.808
707.115
750.185
777.51
806.6
867.444
894.255
959.469
1009.75
1078.23
1158.49
1232.36
1302.39
1371.81
1448.94
1517.98
1571.32
1654.91
1533.94
411.047
411.079
411.094
411.123
411.238
411.606
412.57
414.763
419.365
428.234
440.475
459.849
477.647
504.558
545.146
573.987
603.842
647.932
702.115
737.047
784.432
830.386
914.963
972.702
1046.37
1129.99
1231.12
1331.83
1428.44
1515.41
1600.42
1803.78
1810.76
1864.45
1910.22
1951.14
1991.71
1999.3
2095.92
2116.58
411.046
411.078
411.1
411.176
411.46
412.313
414.462
419.241
429.242
446.892
471.158
505.094
531.56
589.553
615.714
678.456
742.342
804.916
902.787
989.243
1092.41
1203.95
1321.06
1429.6
1503.57
1587.48
1655.99
1768.79
1839.16
1874.68
1894.65
1898.56
1989.88
1943.16
1881.91
1807.14
1732.32
1689.78
1621.28
1678.41
411.045
411.079
411.129
411.329
411.999
413.897
418.534
428.601
449.466
483.88
531.402
586.119
621.751
690.386
765.783
881.087
1020.19
1155.06
1296.77
1390
1512.78
1592.01
1716.42
1855.83
1849.4
1868.52
1844.54
1923.59
1851.58
1757.41
1643.08
1555.96
1498.73
1455.45
1376.91
1334.48
1300.24
1275.87
1229.49
1257.77
411.044
411.091
411.224
411.714
413.243
417.376
427.128
447.88
490.684
557.973
619.55
688.496
761.561
912.097
1072.15
1251.95
1442.99
1539.75
1677.2
1731.59
1807.15
1790.07
1901.54
1838.57
1747.51
1658.49
1531.65
1469.36
1337.01
1262.52
1200.82
1148.43
1075.37
1021.69
981.078
948.901
927.55
909.036
898.903
903.078
411.045
411.134
411.458
412.602
416.03
424.885
445.163
488.401
576.92
635.756
764.384
870.671
1125.75
1306.77
1435.89
1623.78
1745.97
1772.19
1834.43
1782.23
1700.95
1560.66
1501.18
1372.6
1291.77
1210.23
1117.2
984.983
878.623
806.588
764.086
742.749
727.181
724.596
724.82
728.069
734.673
743.826
756.657
784.411
411.051
411.231
411.967
414.573
422.155
441.103
483.979
578.21
653.611
782.804
1046.21
1287.14
1454.23
1676.94
1724.5
1823.19
1753.41
1660.6
1563.54
1366.48
1251.38
1161.37
1019.38
893.759
780.451
713.458
648.587
625.679
611.331
596.882
592.978
598.659
605.665
618.978
634.696
653.535
676.273
703.525
728.685
762.49
411.065
411.423
413.076
418.934
435.744
477.249
572.444
660.985
843.527
1158.16
1385.96
1650.46
1712.83
1804.57
1700.65
1609.7
1404.29
1276.52
1065.98
869.098
726.844
669.273
599.201
570.634
552.344
528.529
505.349
500.562
505.164
513.253
527.52
550.152
572.958
599.874
629.968
663.55
700.692
740.964
789.012
840.758
411.085
411.835
415.597
428.875
467.111
563.274
653.758
896.57
1267.67
1537.14
1636.17
1789.98
1672.05
1561
1359.59
1179.58
949.907
749.688
604.603
568.081
534.854
494.012
459.987
441.271
426.839
431.356
440.163
457.736
480.352
506.892
536.767
569.446
607.938
648.457
691.575
737.87
787.799
842.051
903.679
979.958
411.116
412.84
421.797
453.251
545.364
645.346
891.851
1302.12
1644.12
1689.19
1647.8
1567.55
1358.17
1164.72
927.145
715.317
577.608
544.48
476.709
436.678
394.721
379.81
381.342
388.299
400.804
421.048
446.412
475.938
512.538
551.283
591.717
633.766
678.422
725.889
776.77
831.687
891.383
957.369
1032.41
1121.09
411.163
415.741
439.751
521.313
625.524
871.348
1322.19
1612.55
1764.34
1555.63
1425.51
1216.08
1000.1
750.221
578.674
527.867
478.686
394.253
360.978
351.517
353.323
359.987
372.243
392.493
420.94
454.706
492.144
531.95
574.362
618.753
664.934
713.069
763.788
817.767
875.816
938.661
1007.28
1080.73
1163.71
1264.27
411.19
427.07
505.999
593.61
851.959
1327.55
1577.9
1768.32
1588.04
1308.98
1060.94
800.604
635.92
515.646
477.208
393.301
352.428
336.13
334.37
339.123
348.727
366.922
396.256
431.17
470.479
513.025
557.812
604.073
651.738
700.94
752.053
805.601
862.279
922.677
987.74
1056.72
1130.2
1206.42
1303.67
1407.72
411.061
488.183
590.476
824.241
1311.04
1569.67
1690.26
1557.91
1253.27
940.945
684.255
544.386
500.396
436.976
360.213
331.104
323.274
324.823
330.256
342.941
368.707
403.644
445.481
491.067
538.743
587.91
638.215
689.465
741.794
795.645
851.725
910.751
973.482
1040.07
1108.95
1178.58
1263.52
1350.68
1459.4
1566.24
411.416
580.722
834.512
1311.69
1524.43
1636.85
1428.91
1113.45
827.795
583.073
533.21
467.06
374.71
334.037
318.03
315.241
318.13
324.141
340.801
370.867
410.785
458.575
511.702
565.526
619.571
674.213
729.451
785.444
842.541
901.319
962.698
1027.46
1094.55
1163.85
1239.47
1318.74
1414.37
1506.55
1613.89
1663.8
410.64
961.098
1349.13
1527.7
1532.78
1338.96
981.632
703.607
531.741
487.593
393.48
343.282
319.142
309.917
309.67
312.839
319.525
337.32
371.084
415.843
467.932
527.375
590.443
649.873
709.055
769.114
829.526
890.657
952.973
1016.92
1082.21
1150.66
1222.72
1298.07
1384.56
1474.44
1570.01
1628.07
1685.22
1729.56
405.013
1228.47
1425.77
1414.57
1083.91
842.68
550.988
495.853
434.229
355.16
323.502
310.065
305.156
305.465
308.654
315.653
332.935
366.933
418.025
474.218
535.964
606.357
679.344
740.577
804.895
871.693
937.887
1004.6
1071.29
1137.92
1206.6
1284.13
1364.52
1452.51
1539
1614.56
1657.56
1701.47
1746.15
1788.01
300.942
448.323
468.137
476.186
468.966
440.936
404.722
347.797
322.138
309.831
304.304
302.27
302.689
305.002
311.954
328.87
357.744
410.603
479.28
541.357
610.358
693.634
772.83
837.339
909.36
982.372
1053.94
1123.28
1194.35
1267.35
1346.88
1433.32
1516.67
1607.43
1643.57
1686.33
1724.66
1763.49
1803.09
1842.07
299.724
310.183
321.317
321.342
318.798
313.767
308.822
304.9
302.469
301.129
300.629
301.052
302.525
308.291
323.397
351.525
392.519
468.18
532.538
617.505
702.056
791.445
866.876
942.96
1021.96
1098.19
1172.85
1248.24
1329.52
1414.48
1497.6
1585.77
1629.27
1677.13
1712.25
1748.11
1783.67
1819.88
1856.45
1892.69
299.628
300.274
301.643
301.72
301.586
301.167
300.755
300.448
300.15
300.018
300.194
301.133
304.779
316.204
344.304
382.851
435.799
522.111
610.483
703.218
796.516
889.334
970.125
1054.62
1134.37
1218.43
1303.47
1389.86
1477.02
1564.41
1616.16
1662.15
1699.12
1736.77
1771.1
1804.5
1838.01
1872.08
1906.25
1939.89
299.607
299.682
299.857
299.931
299.95
299.935
299.889
299.833
299.792
299.869
300.262
302.386
309.997
330.981
362.162
418.757
499.408
594.423
692.917
793.275
895.02
988.504
1077.97
1167.44
1258.85
1351.05
1444.46
1534.15
1608.31
1648.23
1686.21
1722.92
1757.27
1791.63
1824.88
1856.75
1888.55
1920.64
1952.52
1983.5
299.601
299.623
299.658
299.695
299.721
299.72
299.711
299.699
299.728
299.908
300.951
305.429
319.864
343.789
393.402
470.325
565.167
670.703
777.899
885.58
991.692
1090.02
1187.57
1289.98
1391.5
1490.82
1586.17
1631.92
1674.7
1710.24
1743.98
1777.19
1809.72
1842.17
1874.05
1904.8
1935.22
1965.44
1994.96
2023.08
299.6
299.614
299.629
299.644
299.661
299.663
299.661
299.669
299.747
300.235
302.49
311.304
328.553
366.134
434.446
525.323
630.328
745.579
861.905
975.842
1086.11
1197.12
1308.26
1418.94
1524.51
1611.16
1657.3
1695.22
1730.9
1764.2
1795.8
1827.08
1858.12
1889
1919.41
1948.98
1977.92
2006.13
2033.06
2058.06
299.599
299.613
299.626
299.633
299.645
299.647
299.649
299.676
299.856
300.976
305.494
316.448
345.125
407.172
493.864
596.362
707.714
822.361
943.472
1065.54
1189.49
1311.47
1432.35
1545.22
1618.74
1671.57
1712.1
1747.56
1781.06
1813.3
1843.31
1873.18
1902.92
1932.34
1961.22
1989.27
2016.39
2042.26
2066.3
2087.85
299.6
299.615
299.628
299.634
299.642
299.644
299.647
299.693
300.161
302.045
308.349
327.256
374.42
452.569
551.791
663.377
782.059
905.129
1032.62
1162.83
1295.09
1427.21
1550.52
1625.59
1678.32
1722.23
1759.95
1794.05
1826.25
1857.22
1886.61
1915.53
1944.03
1971.96
1999.14
2025.31
2050.21
2073.39
2094.22
2112.04
299.609
299.623
299.632
299.639
299.643
299.642
299.648
299.742
300.451
303.597
314.39
345.401
407.592
497.564
606.183
725.678
852.211
983.733
1119.54
1259.09
1400.94
1536.61
1624
1680.65
1726.75
1767.17
1803.16
1836.27
1867.54
1897.49
1926.19
1954.11
1981.25
2007.52
2032.74
2056.7
2079.05
2099.24
2116.58
2130.47
299.613
299.627
299.637
299.643
299.643
299.641
299.658
299.858
301.128
306.41
324.156
366.1
439.687
539.01
655.464
782.713
917.565
1057.91
1203.46
1353.26
1502.07
1613.79
1675.97
1725.74
1768.92
1807.63
1842.43
1874.76
1905.25
1934.31
1962.09
1988.78
2014.34
2038.7
2061.72
2083.19
2102.78
2119.84
2133.68
2143.84
299.613
299.63
299.641
299.644
299.642
299.641
299.685
300.09
302.233
310.784
334.674
385.861
468.148
575.223
699.073
834.246
977.679
1127.56
1283.59
1442.51
1592.31
1662.85
1717.73
1764.6
1806.19
1843.75
1877.9
1909.61
1939.38
1967.52
1994.17
2019.4
2043.16
2065.38
2085.97
2104.82
2121.64
2135.91
2146.62
2153.22
299.614
299.632
299.642
299.644
299.641
299.645
299.743
300.442
303.831
315.196
344.232
402.633
491.936
605.972
737.061
880.193
1032.28
1192.3
1359.87
1522.73
1635.03
1700.59
1753.01
1798.56
1839.24
1876.07
1909.71
1940.84
1969.84
1996.98
2022.33
2045.91
2067.67
2087.58
2105.65
2122
2136.64
2148.85
2156.75
2159.97
299.615
299.633
299.642
299.644
299.642
299.658
299.836
300.916
305.331
318.967
352.023
415.942
511.196
631.603
769.613
920.521
1081.31
1251.36
1427.75
1592.19
1671.64
1732.19
1783.37
1828.23
1868.38
1904.73
1937.9
1968.42
1996.6
2022.62
2046.55
2068.36
2088.01
2105.54
2121.29
2135.76
2149.14
2160.46
2164.51
2159.4
299.615
299.633
299.642
299.644
299.645
299.68
299.955
301.346
306.572
321.926
358.029
426.138
526.464
652.567
796.996
955.294
1124.74
1305.17
1486.27
1622.98
1699
1758.6
1809.39
1853.92
1893.74
1929.73
1962.45
1992.33
2019.64
2044.49
2066.92
2086.9
2104.4
2119.75
2133.64
2146.93
2160.29
2173.47
2169.72
2155.65
299.615
299.634
299.642
299.644
299.649
299.706
300.065
301.708
307.547
324.156
362.489
433.809
538.316
669.347
819.47
984.112
1161.28
1352.25
1536.29
1646.28
1721.37
1780.79
1831.38
1875.76
1915.38
1951.06
1983.34
2012.59
2039
2062.68
2083.61
2101.75
2117.25
2130.7
2142.98
2155.26
2169.45
2197.96
2163.6
2144.89
299.615
299.634
299.642
299.645
299.653
299.73
300.16
302.002
308.296
325.799
365.717
439.447
547.292
682.43
837.352
1007.15
1191.16
1389.92
1578.58
1669.29
1740.94
1799.64
1849.71
1893.9
1933.34
1968.75
2000.61
2029.23
2054.79
2077.33
2096.83
2113.24
2126.97
2138.6
2148.71
2157.08
2161.54
2162.49
2146.49
2131.78
299.615
299.634
299.642
299.645
299.657
299.75
300.237
302.23
308.854
326.978
367.99
443.474
553.874
692.276
851.136
1025.8
1215.38
1419.57
1609.97
1691.57
1758.05
1815.85
1864.67
1908.42
1947.66
1982.81
2014.29
2042.36
2067.14
2088.66
2106.82
2121.79
2133.96
2143.9
2152.28
2158.69
2154.02
2146.01
2133.35
2120.85
299.616
299.634
299.643
299.646
299.66
299.765
300.294
302.396
309.248
327.786
369.525
446.218
558.458
699.294
861.147
1039.43
1233.03
1441.67
1635.05
1708.59
1771.79
1829.95
1876.28
1919.34
1958.34
1993.27
2024.43
2052.04
2076.18
2096.86
2113.96
2127.79
2138.69
2147.48
2155.95
2173.4
2149.43
2136.67
2124.5
2112.93
299.616
299.634
299.643
299.646
299.662
299.776
300.332
302.503
309.497
328.289
370.469
447.918
561.341
703.779
867.647
1048.31
1244.72
1456.32
1651.98
1719.91
1780.28
1836.08
1883.29
1926.45
1965.36
2000.14
2031.07
2058.35
2082.03
2102.09
2118.5
2131.52
2141.32
2148.23
2152.8
2154.86
2142.65
2130.7
2119.02
2107.84
299.616
299.634
299.643
299.646
299.663
299.78
300.349
302.551
309.607
328.511
370.886
448.672
562.629
705.794
870.596
1052.33
1250.05
1463.02
1659.7
1725.1
1784.07
1838.64
1886.39
1929.66
1968.54
2003.25
2034.08
2061.19
2084.67
2104.44
2120.51
2133.15
2142.39
2148.31
2150.95
2149.32
2139.43
2128.04
2116.61
2105.56
1214.8
1388.9
1466.93
1516.67
1553.18
1582.09
1605.16
1624.41
1640.71
1654.7
1666.78
1677.38
1686.65
1694.82
1702.07
1708.52
1714.21
1719.27
1723.77
1727.77
1731.33
1734.48
1737.3
1739.78
1741.98
1743.92
1745.63
1747.13
1748.44
1749.59
1750.59
1751.44
1752.18
1752.8
1753.31
1753.73
1754.05
1754.29
1754.45
1754.52
1212.94
1388.13
1466.23
1516.55
1553.15
1581.89
1605.11
1624.48
1640.78
1654.78
1666.94
1677.48
1686.81
1694.98
1702.22
1708.69
1714.37
1719.44
1723.93
1727.93
1731.48
1734.64
1737.43
1739.92
1742.1
1744.04
1745.74
1747.24
1748.54
1749.69
1750.68
1751.53
1752.25
1752.87
1753.38
1753.79
1754.12
1754.35
1754.51
1754.58
1210.04
1386.98
1465.6
1516.09
1552.9
1581.8
1605.12
1624.52
1640.89
1655.01
1667.18
1677.74
1687.11
1695.29
1702.54
1708.99
1714.69
1719.74
1724.24
1728.23
1731.77
1734.91
1737.7
1740.17
1742.34
1744.26
1745.95
1747.43
1748.73
1749.86
1750.84
1751.68
1752.4
1753.01
1753.51
1753.92
1754.24
1754.47
1754.62
1754.69
1208.75
1386.01
1464.88
1515.68
1552.74
1581.69
1605.11
1624.72
1641.13
1655.3
1667.51
1678.14
1687.51
1695.7
1703.01
1709.42
1715.12
1720.17
1724.67
1728.64
1732.18
1735.3
1738.07
1740.52
1742.67
1744.57
1746.25
1747.71
1748.99
1750.11
1751.07
1751.9
1752.61
1753.2
1753.7
1754.1
1754.41
1754.64
1754.79
1754.85
1208.18
1385.66
1464.69
1515.4
1552.59
1581.75
1605.29
1624.89
1641.43
1655.68
1667.94
1678.65
1688.01
1696.25
1703.56
1709.97
1715.67
1720.71
1725.22
1729.16
1732.67
1735.78
1738.52
1740.95
1743.09
1744.97
1746.62
1748.06
1749.32
1750.42
1751.36
1752.18
1752.87
1753.45
1753.93
1754.32
1754.63
1754.85
1754.99
1755.06
1208.86
1385.62
1464.77
1515.39
1552.72
1581.88
1605.53
1625.2
1641.84
1656.14
1668.48
1679.22
1688.62
1696.87
1704.19
1710.62
1716.32
1721.37
1725.82
1729.77
1733.25
1736.33
1739.06
1741.46
1743.57
1745.43
1747.05
1748.47
1749.71
1750.78
1751.71
1752.5
1753.18
1753.74
1754.21
1754.59
1754.88
1755.1
1755.24
1755.3
1209.9
1386.29
1465.07
1515.67
1552.96
1582.15
1605.89
1625.65
1642.35
1656.71
1669.1
1679.88
1689.32
1697.61
1704.91
1711.34
1717.05
1722.08
1726.52
1730.44
1733.91
1736.96
1739.66
1742.04
1744.12
1745.95
1747.54
1748.93
1750.15
1751.2
1752.1
1752.87
1753.52
1754.07
1754.53
1754.9
1755.18
1755.39
1755.53
1755.59
1211.39
1387.33
1465.69
1516.13
1553.33
1582.62
1606.38
1626.19
1642.98
1657.34
1669.83
1680.65
1690.1
1698.39
1705.71
1712.15
1717.84
1722.85
1727.28
1731.18
1734.62
1737.66
1740.32
1742.66
1744.71
1746.51
1748.07
1749.44
1750.63
1751.65
1752.53
1753.28
1753.91
1754.45
1754.88
1755.24
1755.51
1755.71
1755.84
1755.9
1213.85
1388.7
1466.61
1516.83
1553.97
1583.18
1606.99
1626.89
1643.69
1658.11
1670.6
1681.47
1690.94
1699.25
1706.57
1713
1718.68
1723.7
1728.08
1731.97
1735.38
1738.38
1741.01
1743.33
1745.35
1747.12
1748.65
1749.98
1751.14
1752.13
1752.99
1753.72
1754.34
1754.85
1755.27
1755.61
1755.87
1756.06
1756.19
1756.24
1215.78
1390.42
1467.82
1517.76
1554.75
1583.91
1607.78
1627.66
1644.52
1658.97
1671.47
1682.35
1691.84
1700.17
1707.49
1713.92
1719.57
1724.57
1728.94
1732.8
1736.18
1739.15
1741.76
1744.04
1746.02
1747.75
1749.26
1750.56
1751.69
1752.65
1753.48
1754.19
1754.79
1755.28
1755.68
1756.01
1756.26
1756.44
1756.56
1756.62
1218.76
1392.28
1469.25
1518.86
1555.72
1584.84
1608.63
1628.53
1645.43
1659.9
1672.42
1683.31
1692.82
1701.15
1708.45
1714.87
1720.52
1725.48
1729.85
1733.67
1737.02
1739.96
1742.54
1744.77
1746.74
1748.44
1749.9
1751.18
1752.27
1753.21
1754.02
1754.69
1755.26
1755.74
1756.13
1756.44
1756.68
1756.86
1756.97
1757.02
1221.09
1394.36
1470.85
1520.19
1556.86
1585.86
1609.61
1629.54
1646.42
1660.9
1673.44
1684.33
1693.84
1702.17
1709.47
1715.86
1721.5
1726.43
1730.77
1734.56
1737.89
1740.8
1743.33
1745.55
1747.47
1749.14
1750.58
1751.81
1752.87
1753.79
1754.57
1755.22
1755.77
1756.22
1756.6
1756.89
1757.12
1757.29
1757.4
1757.44
1224.55
1396.69
1472.65
1521.63
1558.16
1587.05
1610.74
1630.62
1647.48
1661.99
1674.52
1685.42
1694.92
1703.24
1710.52
1716.9
1722.51
1727.42
1731.72
1735.49
1738.79
1741.66
1744.16
1746.35
1748.23
1749.86
1751.27
1752.49
1753.52
1754.39
1755.14
1755.77
1756.3
1756.74
1757.09
1757.38
1757.59
1757.75
1757.85
1757.9
1227.63
1399.26
1474.61
1523.26
1559.57
1588.35
1611.94
1631.82
1648.65
1663.14
1675.66
1686.53
1696.05
1704.36
1711.6
1717.99
1723.55
1728.43
1732.71
1736.46
1739.71
1742.54
1745.02
1747.16
1749.01
1750.61
1751.98
1753.16
1754.17
1755.02
1755.74
1756.35
1756.85
1757.27
1757.61
1757.87
1758.09
1758.24
1758.32
1758.37
1230.99
1401.96
1476.8
1525.11
1561.1
1589.78
1613.3
1633.07
1649.87
1664.37
1676.86
1687.73
1697.21
1705.51
1712.73
1719.09
1724.62
1729.48
1733.72
1737.43
1740.66
1743.45
1745.89
1748
1749.81
1751.37
1752.72
1753.86
1754.84
1755.66
1756.35
1756.94
1757.42
1757.81
1758.14
1758.4
1758.6
1758.74
1758.83
1758.87
1234.26
1404.66
1479.15
1527.02
1562.81
1591.29
1614.71
1634.45
1651.17
1665.69
1678.11
1688.99
1698.43
1706.69
1713.9
1720.21
1725.72
1730.54
1734.74
1738.42
1741.61
1744.38
1746.79
1748.85
1750.62
1752.15
1753.46
1754.58
1755.52
1756.32
1757
1757.55
1758.03
1758.41
1758.71
1758.95
1759.13
1759.26
1759.34
1759.38
1237.82
1407.98
1481.56
1529.05
1564.65
1592.93
1616.23
1635.91
1652.58
1667.01
1679.4
1690.28
1699.66
1707.9
1715.08
1721.36
1726.84
1731.62
1735.81
1739.44
1742.59
1745.33
1747.68
1749.72
1751.47
1752.96
1754.23
1755.32
1756.23
1757.01
1757.65
1758.19
1758.63
1758.99
1759.28
1759.5
1759.68
1759.8
1759.88
1759.92
1241.68
1410.84
1484.06
1531.25
1566.58
1594.63
1617.91
1637.41
1654.04
1668.42
1680.79
1691.58
1700.94
1709.14
1716.3
1722.54
1727.99
1732.74
1736.88
1740.46
1743.59
1746.27
1748.61
1750.6
1752.31
1753.77
1755.01
1756.07
1756.95
1757.7
1758.32
1758.83
1759.25
1759.59
1759.87
1760.08
1760.24
1760.36
1760.44
1760.47
1245.43
1413.95
1486.66
1533.57
1568.59
1596.52
1619.58
1639
1655.58
1669.86
1682.2
1692.92
1702.25
1710.41
1717.53
1723.73
1729.15
1733.86
1737.95
1741.5
1744.59
1747.24
1749.54
1751.5
1753.17
1754.59
1755.8
1756.83
1757.68
1758.41
1759
1759.49
1759.89
1760.21
1760.47
1760.67
1760.82
1760.93
1761
1761.03
1249.18
1417.31
1489.51
1536.03
1570.69
1598.4
1621.4
1640.66
1657.15
1671.36
1683.64
1694.3
1703.61
1711.7
1718.78
1724.95
1730.32
1735
1739.06
1742.58
1745.61
1748.23
1750.48
1752.4
1754.04
1755.44
1756.6
1757.6
1758.43
1759.12
1759.7
1760.16
1760.54
1760.85
1761.09
1761.27
1761.42
1761.52
1761.58
1761.61
1253.11
1420.66
1492.35
1538.48
1572.91
1600.39
1623.22
1642.36
1658.79
1672.91
1685.09
1695.74
1704.98
1713
1720.08
1726.17
1731.52
1736.15
1740.16
1743.64
1746.63
1749.22
1751.43
1753.33
1754.92
1756.28
1757.44
1758.39
1759.19
1759.86
1760.4
1760.84
1761.2
1761.48
1761.71
1761.9
1762.02
1762.11
1762.17
1762.2
1256.97
1424.09
1495.31
1541.04
1575.16
1602.52
1625.08
1644.14
1660.42
1674.51
1686.61
1697.2
1706.36
1714.38
1721.36
1727.43
1732.73
1737.31
1741.28
1744.71
1747.66
1750.2
1752.39
1754.24
1755.82
1757.15
1758.26
1759.17
1759.95
1760.59
1761.11
1761.55
1761.88
1762.15
1762.35
1762.52
1762.63
1762.71
1762.77
1762.79
1260.32
1427.66
1498.36
1543.6
1577.52
1604.63
1627.02
1645.96
1662.13
1676.11
1688.17
1698.67
1707.79
1715.73
1722.66
1728.69
1733.94
1738.47
1742.4
1745.79
1748.7
1751.22
1753.36
1755.18
1756.71
1758.01
1759.08
1760
1760.73
1761.34
1761.84
1762.23
1762.56
1762.81
1763.01
1763.15
1763.26
1763.35
1763.38
1763.42
1265.05
1431.25
1501.36
1546.36
1579.95
1606.77
1629.04
1647.82
1663.86
1677.77
1689.74
1700.14
1709.22
1717.1
1723.97
1729.96
1735.16
1739.66
1743.54
1746.88
1749.77
1752.22
1754.33
1756.12
1757.62
1758.88
1759.94
1760.81
1761.53
1762.12
1762.58
1762.96
1763.25
1763.49
1763.67
1763.8
1763.89
1763.97
1764.03
1764.04
1268.78
1434.48
1504.48
1549.1
1582.39
1609.01
1631.05
1649.73
1665.66
1679.41
1691.32
1701.64
1710.67
1718.48
1725.32
1731.24
1736.39
1740.84
1744.68
1748
1750.83
1753.25
1755.31
1757.07
1758.53
1759.77
1760.79
1761.62
1762.31
1762.87
1763.31
1763.66
1763.95
1764.17
1764.34
1764.47
1764.56
1764.62
1764.65
1764.67
1272.49
1437.99
1507.54
1551.85
1584.88
1611.24
1633.1
1651.66
1667.45
1681.11
1692.94
1703.18
1712.11
1719.88
1726.64
1732.53
1737.63
1742.05
1745.84
1749.11
1751.89
1754.28
1756.31
1758.01
1759.45
1760.65
1761.63
1762.46
1763.12
1763.64
1764.08
1764.41
1764.66
1764.87
1765.02
1765.13
1765.22
1765.27
1765.3
1765.31
1276.12
1441.53
1510.68
1554.64
1587.35
1613.51
1635.21
1653.57
1669.26
1682.82
1694.57
1704.72
1713.59
1721.28
1727.99
1733.82
1738.88
1743.23
1746.99
1750.21
1752.96
1755.31
1757.3
1758.98
1760.38
1761.54
1762.51
1763.28
1763.92
1764.43
1764.82
1765.15
1765.39
1765.57
1765.71
1765.8
1765.88
1765.93
1765.96
1765.97
1280.04
1444.94
1513.91
1557.36
1589.84
1615.78
1637.32
1655.51
1671.08
1684.54
1696.18
1706.27
1715.05
1722.7
1729.34
1735.11
1740.11
1744.42
1748.13
1751.3
1754.04
1756.35
1758.29
1759.93
1761.3
1762.43
1763.35
1764.12
1764.73
1765.21
1765.59
1765.89
1766.12
1766.28
1766.4
1766.49
1766.55
1766.6
1766.62
1766.63
1283.88
1448.24
1516.82
1560.1
1592.25
1618.05
1639.41
1657.5
1672.92
1686.25
1697.81
1707.82
1716.54
1724.12
1730.69
1736.41
1741.37
1745.62
1749.31
1752.44
1755.12
1757.38
1759.3
1760.9
1762.25
1763.35
1764.24
1764.97
1765.55
1766.02
1766.38
1766.65
1766.85
1767.01
1767.12
1767.19
1767.24
1767.28
1767.29
1767.3
1287.48
1452
1519.84
1562.84
1594.78
1620.29
1641.49
1659.48
1674.76
1687.98
1699.43
1709.37
1718.01
1725.52
1732.04
1737.72
1742.6
1746.83
1750.46
1753.55
1756.19
1758.44
1760.31
1761.88
1763.17
1764.25
1765.13
1765.82
1766.38
1766.81
1767.16
1767.41
1767.61
1767.73
1767.83
1767.9
1767.94
1767.96
1767.98
1767.98
1291.17
1455.4
1522.85
1565.55
1597.26
1622.53
1643.64
1661.38
1676.58
1689.7
1701.06
1710.91
1719.5
1726.93
1733.39
1739.04
1743.88
1748.03
1751.61
1754.68
1757.29
1759.46
1761.31
1762.86
1764.14
1765.17
1766.02
1766.7
1767.22
1767.64
1767.94
1768.18
1768.36
1768.47
1768.56
1768.62
1768.63
1768.66
1768.67
1768.67
1294.34
1458.74
1525.84
1568.21
1599.71
1624.88
1645.69
1663.3
1678.4
1691.42
1702.69
1712.46
1720.99
1728.36
1734.74
1740.34
1745.13
1749.26
1752.78
1755.81
1758.36
1760.54
1762.34
1763.86
1765.08
1766.08
1766.9
1767.56
1768.07
1768.46
1768.76
1768.96
1769.12
1769.23
1769.3
1769.34
1769.37
1769.37
1769.37
1769.38
1297.65
1461.92
1528.7
1570.85
1602.05
1627.09
1647.75
1665.23
1680.23
1693.13
1704.33
1714.01
1722.46
1729.76
1736.14
1741.63
1746.39
1750.47
1753.96
1756.94
1759.46
1761.59
1763.37
1764.84
1766.05
1767.05
1767.81
1768.44
1768.91
1769.29
1769.55
1769.74
1769.89
1769.98
1770.03
1770.06
1770.08
1770.09
1770.1
1770.09
1301.23
1464.9
1531.61
1573.43
1604.43
1629.3
1649.85
1667.15
1682
1694.83
1705.92
1715.54
1723.93
1731.18
1737.48
1742.92
1747.64
1751.68
1755.13
1758.07
1760.57
1762.66
1764.4
1765.85
1767.04
1767.98
1768.75
1769.33
1769.8
1770.13
1770.39
1770.55
1770.67
1770.75
1770.79
1770.82
1770.8
1770.8
1770.8
1770.79
1304.15
1467.93
1534.36
1575.94
1606.77
1631.46
1651.82
1669.03
1683.78
1696.51
1707.52
1717.09
1725.38
1732.59
1738.83
1744.24
1748.9
1752.88
1756.32
1759.22
1761.66
1763.73
1765.45
1766.85
1768
1768.93
1769.65
1770.23
1770.66
1770.98
1771.21
1771.38
1771.47
1771.51
1771.55
1771.56
1771.57
1771.55
1771.53
1771.54
1307.36
1470.97
1537.09
1578.54
1609.15
1633.55
1653.82
1670.9
1685.55
1698.17
1709.12
1718.6
1726.84
1733.98
1740.19
1745.55
1750.15
1754.11
1757.49
1760.35
1762.77
1764.79
1766.48
1767.86
1768.97
1769.88
1770.59
1771.13
1771.53
1771.84
1772.04
1772.18
1772.27
1772.32
1772.32
1772.32
1772.31
1772.3
1772.28
1772.27
1310.14
1474.08
1539.77
1580.98
1611.4
1635.67
1655.75
1672.73
1687.3
1699.82
1710.7
1720.11
1728.29
1735.38
1741.53
1746.85
1751.41
1755.32
1758.67
1761.5
1763.89
1765.88
1767.53
1768.88
1769.97
1770.84
1771.52
1772.03
1772.43
1772.7
1772.89
1773.01
1773.07
1773.1
1773.11
1773.08
1773.06
1773.04
1773.03
1773.01
1312.79
1476.59
1542.39
1583.35
1613.57
1637.76
1657.65
1674.55
1689.03
1701.48
1712.24
1721.62
1729.75
1736.77
1742.88
1748.14
1752.67
1756.54
1759.86
1762.67
1765.02
1766.98
1768.59
1769.91
1770.99
1771.82
1772.47
1772.97
1773.32
1773.56
1773.75
1773.85
1773.88
1773.9
1773.88
1773.86
1773.83
1773.8
1773.78
1773.77
1315.78
1479.51
1544.95
1585.73
1615.83
1639.75
1659.55
1676.35
1690.68
1703.1
1713.79
1723.13
1731.17
1738.16
1744.21
1749.42
1753.93
1757.77
1761.04
1763.81
1766.13
1768.06
1769.66
1770.95
1771.98
1772.79
1773.42
1773.89
1774.23
1774.47
1774.61
1774.69
1774.73
1774.72
1774.69
1774.64
1774.6
1774.57
1774.55
1774.53
1318.44
1482.16
1547.54
1588.07
1617.95
1641.79
1661.44
1678.13
1692.35
1704.69
1715.33
1724.59
1732.59
1739.54
1745.54
1750.72
1755.18
1758.99
1762.24
1764.97
1767.26
1769.15
1770.72
1771.99
1773
1773.79
1774.39
1774.82
1775.15
1775.36
1775.48
1775.53
1775.56
1775.54
1775.49
1775.45
1775.39
1775.34
1775.31
1775.29
1320.7
1484.76
1549.89
1590.22
1619.98
1643.75
1663.3
1679.85
1694.01
1706.26
1716.84
1726.01
1734
1740.91
1746.88
1752.02
1756.43
1760.22
1763.43
1766.13
1768.39
1770.27
1771.8
1773.04
1774.01
1774.78
1775.36
1775.78
1776.08
1776.26
1776.37
1776.41
1776.4
1776.36
1776.3
1776.24
1776.17
1776.14
1776.1
1776.08
1323.32
1487.21
1552.15
1592.39
1621.99
1645.62
1665.11
1681.58
1695.65
1707.81
1718.34
1727.49
1735.4
1742.25
1748.18
1753.31
1757.69
1761.45
1764.62
1767.3
1769.53
1771.37
1772.87
1774.09
1775.04
1775.77
1776.33
1776.73
1777
1777.17
1777.25
1777.28
1777.25
1777.18
1777.12
1777.06
1777
1776.94
1776.9
1776.88
1325.68
1489.32
1554.4
1594.5
1623.97
1647.48
1666.86
1683.24
1697.26
1709.36
1719.85
1728.92
1736.8
1743.62
1749.5
1754.6
1758.95
1762.66
1765.81
1768.46
1770.66
1772.5
1773.98
1775.14
1776.07
1776.8
1777.32
1777.7
1777.94
1778.07
1778.14
1778.15
1778.12
1778.06
1777.98
1777.89
1777.8
1777.74
1777.68
1777.66
1328.02
1491.81
1556.75
1596.56
1625.95
1649.29
1668.58
1684.89
1698.85
1710.88
1721.32
1730.35
1738.19
1744.96
1750.81
1755.89
1760.2
1763.88
1767.02
1769.63
1771.82
1773.6
1775.06
1776.23
1777.13
1777.81
1778.3
1778.66
1778.89
1779.02
1779.06
1779.04
1778.98
1778.91
1778.81
1778.7
1778.61
1778.54
1778.47
1778.47
1330.14
1493.98
1558.86
1598.58
1627.86
1651.06
1670.26
1686.49
1700.42
1712.41
1722.76
1731.79
1739.56
1746.31
1752.13
1757.15
1761.47
1765.13
1768.22
1770.8
1772.96
1774.74
1776.16
1777.29
1778.17
1778.84
1779.33
1779.63
1779.85
1779.94
1779.96
1779.93
1779.86
1779.76
1779.65
1779.54
1779.43
1779.36
1779.33
1779.28
1332.19
1496.23
1561
1600.61
1629.68
1652.82
1671.94
1688.1
1701.94
1713.92
1724.23
1733.16
1740.94
1747.65
1753.44
1758.43
1762.73
1766.36
1769.44
1772
1774.13
1775.87
1777.27
1778.38
1779.22
1779.85
1780.33
1780.62
1780.79
1780.87
1780.88
1780.82
1780.74
1780.62
1780.5
1780.38
1780.28
1780.21
1780.14
1780.11
1334.04
1498.07
1562.76
1602.55
1631.49
1654.53
1673.58
1689.68
1703.47
1715.37
1725.66
1734.57
1742.29
1749
1754.76
1759.71
1763.98
1767.59
1770.65
1773.19
1775.29
1777.02
1778.4
1779.48
1780.34
1780.95
1781.36
1781.65
1781.8
1781.84
1781.83
1781.73
1781.62
1781.5
1781.36
1781.22
1781.12
1781.02
1780.95
1780.93
1335.79
1500.27
1564.68
1604.29
1633.23
1656.19
1675.16
1691.2
1705
1716.82
1727.04
1735.98
1743.65
1750.32
1756.08
1761.03
1765.25
1768.83
1771.87
1774.39
1776.45
1778.15
1779.51
1780.57
1781.39
1781.98
1782.39
1782.63
1782.75
1782.77
1782.74
1782.66
1782.53
1782.38
1782.22
1782.1
1781.96
1781.86
1781.8
1781.76
1337.83
1502.43
1566.7
1606.09
1634.92
1657.85
1676.78
1692.75
1706.45
1718.25
1728.48
1737.34
1744.99
1751.64
1757.39
1762.31
1766.51
1770.08
1773.08
1775.58
1777.66
1779.33
1780.66
1781.69
1782.47
1783.02
1783.41
1783.63
1783.75
1783.78
1783.7
1783.59
1783.45
1783.28
1783.13
1782.95
1782.8
1782.69
1782.62
1782.58
1339.16
1504.35
1568.47
1607.83
1636.53
1659.49
1678.29
1694.25
1707.9
1719.67
1729.86
1738.7
1746.35
1752.98
1758.69
1763.59
1767.78
1771.32
1774.33
1776.8
1778.83
1780.47
1781.79
1782.81
1783.57
1784.1
1784.45
1784.68
1784.76
1784.73
1784.68
1784.53
1784.36
1784.16
1783.99
1783.81
1783.68
1783.55
1783.46
1783.44
1341.1
1506.05
1570.17
1609.5
1638.21
1661.01
1679.82
1695.73
1709.33
1721.07
1731.25
1740.07
1747.68
1754.31
1760
1764.88
1769.06
1772.6
1775.55
1778
1780.01
1781.66
1782.94
1783.93
1784.66
1785.19
1785.52
1785.69
1785.74
1785.71
1785.61
1785.45
1785.27
1785.09
1784.88
1784.71
1784.53
1784.39
1784.3
1784.27
1342.91
1507.81
1571.87
1611.19
1639.84
1662.56
1681.32
1697.17
1710.74
1722.47
1732.63
1741.41
1749
1755.65
1761.3
1766.15
1770.34
1773.86
1776.81
1779.24
1781.25
1782.83
1784.09
1785.07
1785.75
1786.24
1786.56
1786.71
1786.75
1786.7
1786.56
1786.38
1786.19
1785.98
1785.76
1785.57
1785.39
1785.27
1785.18
1785.12
1344.14
1509.28
1573.63
1612.77
1641.39
1664.09
1682.77
1698.62
1712.12
1723.86
1734.01
1742.75
1750.33
1756.96
1762.61
1767.46