/*--------------------------------*- C++ -*----------------------------------*\
| =========                 |                                                 |
| \\      /  F ield         | OpenFOAM: The Open Source CFD Toolbox           |
|  \\    /   O peration     | Version:  2.3.0                                 |
|   \\  /    A nd           | Web:      www.OpenFOAM.org                      |
|    \\/     M anipulation  |                                                 |
\*---------------------------------------------------------------------------*/
FoamFile
{
    version     2.0;
    format      ascii;
    class       volVectorField;
    location    "0.1";
    object      U;
}
// * * * * * * * * * * * * * * * * * * * * * * * * * * * * * * * * * * * * * //

dimensions      [0 1 -1 0 0 0 0];

internalField   nonuniform List<vector> 
26600
(
(9.94399 5.02942 -11.7315)
(9.71721 5.05054 -11.2804)
(9.55253 5.05027 -10.8729)
(9.56354 5.0593 -10.5178)
(9.67337 5.10519 -10.1743)
(9.82299 5.1683 -9.85318)
(10.0031 5.23881 -9.56492)
(10.2077 5.31509 -9.30509)
(10.4256 5.39996 -9.07315)
(10.6546 5.49443 -8.86639)
(10.8811 5.59363 -8.6743)
(11.1002 5.69268 -8.49111)
(11.3047 5.78886 -8.31184)
(11.4989 5.88207 -8.13671)
(11.6829 5.96618 -7.9661)
(11.8554 6.04301 -7.79583)
(12.0005 6.10975 -7.62768)
(12.1291 6.16916 -7.46516)
(12.2377 6.21379 -7.30249)
(12.3224 6.25508 -7.14674)
(12.4049 6.2882 -6.99605)
(12.464 6.31439 -6.84769)
(12.5104 6.34759 -6.70633)
(12.558 6.36441 -6.57239)
(12.5744 6.37956 -6.43628)
(12.5785 6.39741 -6.31334)
(12.5849 6.4144 -6.18744)
(12.6122 6.43996 -6.07053)
(12.6443 6.45488 -5.95107)
(12.662 6.46692 -5.82757)
(12.6905 6.47131 -5.71236)
(12.7363 6.4673 -5.59577)
(12.7778 6.4489 -5.47511)
(12.7935 6.422 -5.36184)
(12.7813 6.39512 -5.26835)
(12.7469 6.36333 -5.17718)
(12.6915 6.32289 -5.08991)
(12.616 6.27971 -5.00654)
(12.6169 6.2395 -4.92314)
(12.6062 5.7576 -4.89262)
(10.1154 4.56654 -11.844)
(9.94162 4.66386 -11.6064)
(9.88128 4.70964 -11.3265)
(9.96972 4.80793 -11.0569)
(10.1266 4.95909 -10.7886)
(10.3254 5.10991 -10.5239)
(10.5503 5.27119 -10.2619)
(10.7916 5.4426 -10.0073)
(11.0346 5.6172 -9.74705)
(11.2699 5.77866 -9.47927)
(11.4885 5.9174 -9.21204)
(11.6924 6.03246 -8.95217)
(11.8772 6.12519 -8.70469)
(12.0463 6.2112 -8.46786)
(12.2151 6.28092 -8.24243)
(12.3732 6.33828 -8.02786)
(12.5114 6.39343 -7.82496)
(12.6467 6.43159 -7.63149)
(12.7564 6.46367 -7.45152)
(12.8498 6.50196 -7.277)
(12.9438 6.51808 -7.11585)
(13.0062 6.54642 -6.96009)
(13.0622 6.58078 -6.81347)
(13.1333 6.58695 -6.67409)
(13.164 6.59046 -6.54256)
(13.1794 6.60718 -6.41286)
(13.1823 6.63016 -6.29157)
(13.2282 6.65244 -6.16965)
(13.2663 6.6867 -6.05684)
(13.3003 6.72662 -5.9382)
(13.3397 6.75041 -5.83235)
(13.4177 6.77555 -5.71859)
(13.4864 6.76084 -5.62162)
(13.5552 6.73906 -5.51101)
(13.564 6.69955 -5.42611)
(13.5744 6.68281 -5.31869)
(13.5459 6.63267 -5.24766)
(13.4994 6.618 -5.1405)
(13.3009 6.57591 -5.06206)
(13.0663 6.68645 -5.00259)
(10.0539 4.77095 -11.8503)
(9.9066 5.0183 -11.5554)
(9.81465 5.1558 -11.2676)
(9.87119 5.2912 -10.9845)
(10.0116 5.44091 -10.708)
(10.2081 5.60398 -10.4292)
(10.4476 5.77059 -10.1403)
(10.7034 5.92774 -9.84514)
(10.9577 6.06926 -9.5482)
(11.1991 6.18916 -9.25564)
(11.4209 6.29065 -8.97202)
(11.6269 6.36578 -8.70188)
(11.8053 6.42745 -8.44816)
(11.9701 6.49314 -8.20455)
(12.1433 6.53684 -7.97497)
(12.2976 6.57426 -7.75697)
(12.4414 6.61265 -7.5507)
(12.5862 6.62161 -7.35816)
(12.6884 6.64637 -7.17555)
(12.7925 6.67184 -7.00254)
(12.8926 6.67164 -6.84334)
(12.9494 6.68828 -6.68975)
(13.0269 6.70842 -6.54638)
(13.1063 6.72477 -6.40961)
(13.1257 6.73935 -6.2797)
(13.1185 6.76771 -6.15366)
(13.1246 6.79942 -6.03076)
(13.1624 6.81503 -5.91455)
(13.1784 6.86242 -5.79747)
(13.2147 6.90373 -5.68659)
(13.2659 6.92943 -5.57616)
(13.3705 6.96672 -5.47181)
(13.5032 6.93113 -5.3673)
(13.5975 6.88896 -5.27377)
(13.6033 6.85619 -5.17774)
(13.6034 6.8354 -5.09362)
(13.5582 6.77951 -5.00803)
(13.4634 6.72745 -4.93351)
(13.172 6.59245 -4.82907)
(13.2594 6.40663 -4.82034)
(10.1203 4.65313 -11.8375)
(9.9667 4.94772 -11.5222)
(9.86947 5.16192 -11.2112)
(9.91332 5.34838 -10.8975)
(10.0354 5.5542 -10.5949)
(10.2112 5.76264 -10.2854)
(10.4229 5.95627 -9.9654)
(10.6532 6.12761 -9.64007)
(10.8898 6.27669 -9.31488)
(11.12 6.39608 -8.99919)
(11.3384 6.4898 -8.69732)
(11.5443 6.54167 -8.41678)
(11.7125 6.58873 -8.1555)
(11.8759 6.63882 -7.90687)
(12.0538 6.65887 -7.67657)
(12.2068 6.67409 -7.45711)
(12.363 6.6896 -7.25361)
(12.5105 6.68015 -7.06364)
(12.6136 6.67307 -6.88202)
(12.7326 6.67725 -6.71478)
(12.828 6.68647 -6.55776)
(12.8715 6.70333 -6.40899)
(12.9376 6.71874 -6.26829)
(13.0104 6.73071 -6.13627)
(13.0314 6.72733 -6.01201)
(13.0253 6.74782 -5.88894)
(13.0491 6.75802 -5.77129)
(13.0802 6.77256 -5.65744)
(13.0985 6.8065 -5.54316)
(13.1528 6.84228 -5.43599)
(13.1851 6.90944 -5.3288)
(13.3571 6.95347 -5.21747)
(13.5571 6.84929 -5.12419)
(13.6539 6.77955 -5.03556)
(13.6228 6.73852 -4.93798)
(13.666 6.67539 -4.86379)
(13.6379 6.61155 -4.77643)
(13.6362 6.45233 -4.71241)
(13.4143 6.16381 -4.60349)
(13.5751 5.60742 -4.64758)
(10.0983 4.6992 -11.8299)
(9.94257 5.06235 -11.5056)
(9.85518 5.32603 -11.1595)
(9.89157 5.55084 -10.8121)
(10.0001 5.78788 -10.4755)
(10.1558 6.01655 -10.1337)
(10.3479 6.22253 -9.78264)
(10.5622 6.4014 -9.42702)
(10.7906 6.54484 -9.07459)
(11.0177 6.64959 -8.73652)
(11.2424 6.72013 -8.41671)
(11.4534 6.73436 -8.12696)
(11.6088 6.76268 -7.85746)
(11.7775 6.78175 -7.60607)
(11.9665 6.77433 -7.37628)
(12.1276 6.74296 -7.1582)
(12.2941 6.72265 -6.95898)
(12.4318 6.74625 -6.77027)
(12.5263 6.72475 -6.59371)
(12.6358 6.68794 -6.43081)
(12.7166 6.69509 -6.27952)
(12.7588 6.71137 -6.13451)
(12.853 6.70808 -5.99935)
(12.9613 6.69301 -5.87481)
(12.9581 6.70259 -5.7548)
(12.9337 6.70118 -5.63465)
(12.9528 6.69787 -5.52322)
(12.9675 6.70775 -5.4111)
(12.976 6.68878 -5.30111)
(12.9837 6.70583 -5.19662)
(13.0036 6.77163 -5.08163)
(13.3473 6.8818 -4.98331)
(13.7259 6.72388 -4.88722)
(13.7837 6.61587 -4.79856)
(13.7207 6.55968 -4.70045)
(13.7595 6.47509 -4.63356)
(13.673 6.41497 -4.53472)
(13.7296 6.30832 -4.46508)
(13.5825 6.09367 -4.37107)
(13.7381 5.56528 -4.42956)
(10.0973 4.71368 -11.8284)
(9.94227 5.12766 -11.4933)
(9.85027 5.4491 -11.1142)
(9.8699 5.73549 -10.7403)
(9.96233 6.00997 -10.3642)
(10.0995 6.26506 -9.98604)
(10.2768 6.48804 -9.6008)
(10.4815 6.67244 -9.2131)
(10.7061 6.80415 -8.83412)
(10.933 6.89048 -8.47447)
(11.171 6.9277 -8.13884)
(11.3853 6.90019 -7.84202)
(11.5264 6.90529 -7.56354)
(11.7083 6.87559 -7.31265)
(11.9221 6.83124 -7.08284)
(12.0749 6.79838 -6.86855)
(12.212 6.72203 -6.67019)
(12.3271 6.7516 -6.48622)
(12.4611 6.7486 -6.31779)
(12.5796 6.69328 -6.15838)
(12.6331 6.67702 -6.01218)
(12.6868 6.64501 -5.87169)
(12.814 6.58461 -5.74526)
(12.9005 6.55761 -5.62176)
(12.8553 6.59066 -5.50382)
(12.8396 6.55997 -5.38891)
(12.8463 6.53794 -5.27482)
(12.8747 6.5434 -5.16553)
(12.904 6.44431 -5.05341)
(12.8997 6.32706 -4.94526)
(12.9293 6.09267 -4.82792)
(13.5775 5.85319 -4.73411)
(14.0618 6.23958 -4.61733)
(13.8911 6.24646 -4.52444)
(13.67 6.1636 -4.40796)
(13.6021 6.06168 -4.33438)
(13.3794 5.97962 -4.20907)
(13.2626 5.87071 -4.15617)
(13.1515 5.73532 -4.00179)
(13.4672 5.66172 -4.08169)
(10.085 4.7334 -11.8347)
(9.93515 5.20735 -11.4649)
(9.84132 5.58248 -11.0747)
(9.84615 5.92436 -10.6786)
(9.92185 6.23193 -10.2601)
(10.0482 6.51273 -9.83969)
(10.2188 6.75025 -9.41676)
(10.4206 6.93764 -8.99703)
(10.6462 7.0482 -8.5953)
(10.8759 7.10907 -8.21879)
(11.1341 7.10112 -7.87253)
(11.3469 7.0415 -7.56984)
(11.4818 7.00152 -7.28187)
(11.6704 6.94306 -7.03386)
(11.8531 6.88833 -6.80154)
(11.9967 6.87789 -6.59335)
(12.1702 6.73462 -6.39591)
(12.2586 6.6779 -6.22232)
(12.4079 6.64757 -6.06052)
(12.5282 6.61596 -5.9022)
(12.5919 6.58305 -5.75571)
(12.6751 6.5081 -5.61753)
(12.8044 6.41766 -5.48682)
(12.8263 6.41873 -5.36709)
(12.7339 6.39365 -5.23796)
(12.687 6.30802 -5.12631)
(12.6142 6.25508 -4.99266)
(12.6119 6.21575 -4.87051)
(12.6652 6.09772 -4.75021)
(12.7579 5.92669 -4.60161)
(12.8372 5.62394 -4.4513)
(12.8422 5.27158 -4.29194)
(12.8319 5.64428 -4.17132)
(12.9256 5.8027 -4.00192)
(12.6465 5.70728 -3.84808)
(12.3355 5.62046 -3.72185)
(11.9436 5.41694 -3.55828)
(11.7476 5.26487 -3.46207)
(11.3728 4.9597 -3.27835)
(11.6415 5.1009 -3.36617)
(10.0791 4.75979 -11.8252)
(9.92559 5.28582 -11.442)
(9.82337 5.72274 -11.059)
(9.81912 6.10795 -10.6226)
(9.87916 6.45375 -10.1577)
(10.0045 6.76083 -9.68918)
(10.177 7.01317 -9.22616)
(10.3872 7.19182 -8.77772)
(10.6214 7.26425 -8.36153)
(10.8613 7.29043 -7.97453)
(11.1429 7.22553 -7.62302)
(11.3458 7.16408 -7.31513)
(11.4379 7.11204 -7.01792)
(11.5953 7.01528 -6.7724)
(11.7734 6.9304 -6.54703)
(12.0024 6.81027 -6.33896)
(12.1982 6.69729 -6.15457)
(12.2575 6.57302 -5.97939)
(12.3755 6.50667 -5.81905)
(12.4704 6.45215 -5.65209)
(12.5087 6.37447 -5.49521)
(12.5353 6.2732 -5.33929)
(12.5557 6.17026 -5.19206)
(12.5298 6.10267 -5.05694)
(12.3634 6.11115 -4.88336)
(12.1745 6.00997 -4.75058)
(11.8978 5.87443 -4.56089)
(11.7741 5.69958 -4.37587)
(11.6068 5.57754 -4.16798)
(11.3341 5.45957 -3.93138)
(10.9365 5.34682 -3.67312)
(10.69 5.12863 -3.42738)
(10.6676 4.8267 -3.24203)
(10.48 4.75816 -3.05871)
(10.0502 4.64877 -2.88212)
(9.68742 4.52266 -2.73767)
(9.29265 4.30948 -2.5805)
(9.06955 4.20122 -2.47966)
(8.6738 3.95275 -2.31029)
(8.85995 4.03104 -2.36049)
(10.0812 4.78481 -11.807)
(9.89418 5.36885 -11.4538)
(9.79796 5.862 -11.0459)
(9.78683 6.29034 -10.5604)
(9.83996 6.6782 -10.046)
(9.97206 7.01356 -9.52922)
(10.157 7.27169 -9.02794)
(10.3922 7.42085 -8.55934)
(10.6491 7.43701 -8.13672)
(10.909 7.41952 -7.74494)
(11.1769 7.33051 -7.39211)
(11.3127 7.29365 -7.08134)
(11.3778 7.24644 -6.79468)
(11.6105 6.99864 -6.55092)
(11.8436 6.81503 -6.33091)
(12.0514 6.59465 -6.11657)
(12.1674 6.51538 -5.94135)
(12.1868 6.4416 -5.74671)
(12.1612 6.40097 -5.57416)
(12.1833 6.31147 -5.36731)
(12.0714 6.1892 -5.14851)
(11.9449 5.94744 -4.92986)
(11.8526 5.75517 -4.72101)
(11.4984 5.6076 -4.49203)
(10.9153 5.4989 -4.23895)
(10.4528 5.33243 -3.98637)
(9.95705 5.01658 -3.69803)
(9.45526 4.69918 -3.39007)
(8.8882 4.48589 -3.05227)
(8.41402 4.24901 -2.72626)
(8.01452 3.98533 -2.43106)
(7.75784 3.69081 -2.20641)
(7.55397 3.4703 -2.04135)
(7.3107 3.37562 -1.91272)
(7.01826 3.27419 -1.79755)
(6.76766 3.17252 -1.69047)
(6.49882 3.04297 -1.5858)
(6.34057 2.97794 -1.50019)
(6.07135 2.83007 -1.4052)
(6.20154 2.87026 -1.44285)
(10.0593 4.80528 -11.8113)
(9.86118 5.45745 -11.4488)
(9.78493 6.00059 -10.9897)
(9.7663 6.47735 -10.4696)
(9.81829 6.90846 -9.91435)
(9.96171 7.26319 -9.35762)
(10.1699 7.51067 -8.82706)
(10.4521 7.61564 -8.34944)
(10.7416 7.56901 -7.92623)
(10.9671 7.54007 -7.52718)
(11.1313 7.57382 -7.20756)
(11.2821 7.41034 -6.89313)
(11.4455 7.20664 -6.62041)
(11.7453 6.89257 -6.38779)
(11.8406 6.66354 -6.1498)
(11.8984 6.48833 -5.91741)
(11.8066 6.33595 -5.71166)
(11.5601 6.24532 -5.46801)
(11.3481 6.0888 -5.17134)
(11.0876 5.87955 -4.85288)
(10.5395 5.61938 -4.44091)
(9.99282 5.23632 -4.07207)
(9.37477 4.85257 -3.72664)
(8.63888 4.62616 -3.38294)
(7.88774 4.22197 -3.02184)
(7.26112 3.82819 -2.67571)
(6.61996 3.46453 -2.28285)
(6.06587 3.17145 -1.91202)
(5.64782 2.91537 -1.61084)
(5.35483 2.69483 -1.38958)
(5.10863 2.53168 -1.22792)
(4.93079 2.40376 -1.11603)
(4.7878 2.31182 -1.0314)
(4.65641 2.25352 -0.960129)
(4.51426 2.20483 -0.893235)
(4.38378 2.15664 -0.828108)
(4.25934 2.10085 -0.779584)
(4.17589 2.06665 -0.737145)
(4.04464 1.97456 -0.724076)
(4.16525 1.96736 -0.763314)
(9.99191 4.84184 -11.8352)
(9.85436 5.5641 -11.3834)
(9.79772 6.15395 -10.8863)
(9.77981 6.67383 -10.3425)
(9.83412 7.1369 -9.76023)
(9.99104 7.49342 -9.17918)
(10.2329 7.70605 -8.63303)
(10.5744 7.77442 -8.15996)
(10.837 7.71615 -7.72571)
(10.9346 7.62572 -7.36655)
(11.1723 7.58891 -7.05961)
(11.4897 7.40786 -6.78079)
(11.5302 6.98864 -6.51368)
(11.5959 6.79117 -6.24958)
(11.4693 6.52683 -5.96025)
(11.054 6.31021 -5.66031)
(10.5485 6.0354 -5.27213)
(9.89811 5.62318 -4.8283)
(9.07616 5.14592 -4.25639)
(8.1014 4.58277 -3.6121)
(7.14088 4.02328 -3.0157)
(6.29465 3.51553 -2.52508)
(5.57183 3.10919 -2.13244)
(4.94201 2.74149 -1.77378)
(4.48874 2.41741 -1.45768)
(4.1727 2.20029 -1.19095)
(3.89151 2.06722 -0.945655)
(3.67702 1.97186 -0.75288)
(3.51693 1.89264 -0.616357)
(3.38501 1.81446 -0.523941)
(3.27177 1.73592 -0.458693)
(3.19021 1.65998 -0.41104)
(3.1206 1.5999 -0.373703)
(3.05064 1.55943 -0.344602)
(2.97772 1.53016 -0.323334)
(2.90881 1.50634 -0.307608)
(2.84288 1.48353 -0.302305)
(2.79116 1.46956 -0.29741)
(2.71765 1.41082 -0.317762)
(2.79916 1.37923 -0.345222)
(9.97329 4.9076 -11.7896)
(9.87587 5.69707 -11.2813)
(9.84592 6.33145 -10.753)
(9.84492 6.87252 -10.1884)
(9.90582 7.34774 -9.59356)
(10.0849 7.67641 -9.005)
(10.3649 7.8098 -8.46504)
(10.7387 7.77365 -8.00089)
(10.982 7.77765 -7.60745)
(11.1034 7.59906 -7.2853)
(11.2896 7.22866 -7.00372)
(11.3736 7.20633 -6.69568)
(11.1705 6.83938 -6.37248)
(10.8003 6.42304 -6.01058)
(10.0722 5.95447 -5.55402)
(8.91896 5.32704 -4.93278)
(7.62672 4.6113 -4.15501)
(6.35788 3.82472 -3.26622)
(5.18249 3.10255 -2.40145)
(4.31991 2.6105 -1.76864)
(3.81724 2.27368 -1.37667)
(3.48047 2.06352 -1.10618)
(3.23251 1.91712 -0.882499)
(3.05051 1.81266 -0.681102)
(2.93864 1.73742 -0.509229)
(2.86102 1.67031 -0.377319)
(2.7862 1.59718 -0.282381)
(2.71476 1.52098 -0.21665)
(2.64673 1.4594 -0.172044)
(2.57273 1.40508 -0.143251)
(2.49817 1.35057 -0.126301)
(2.43444 1.30104 -0.116852)
(2.37633 1.26483 -0.112637)
(2.3185 1.23775 -0.112458)
(2.26148 1.21568 -0.11548)
(2.20543 1.19808 -0.120856)
(2.14884 1.18294 -0.129431)
(2.09597 1.17065 -0.138818)
(2.03845 1.1347 -0.15914)
(2.07817 1.09811 -0.175457)
(9.9989 4.98953 -11.7254)
(9.90846 5.87406 -11.1746)
(9.94167 6.52443 -10.609)
(9.97405 7.05534 -10.0267)
(10.0525 7.51286 -9.43084)
(10.2737 7.77039 -8.85669)
(10.6108 7.77586 -8.33403)
(10.9228 7.71903 -7.93276)
(11.0686 7.68122 -7.58723)
(11.1592 7.51792 -7.29191)
(10.8889 7.17251 -6.94057)
(10.5799 6.83296 -6.53516)
(9.69289 6.2046 -5.91381)
(8.48753 5.39421 -5.22104)
(6.94118 4.38668 -4.32809)
(5.16574 3.26762 -3.1653)
(4.0028 2.39047 -2.15538)
(3.383 2.02244 -1.50483)
(2.98565 1.87382 -1.05016)
(2.77832 1.82272 -0.733894)
(2.6774 1.78782 -0.503347)
(2.61122 1.74189 -0.354969)
(2.5677 1.67735 -0.253645)
(2.54445 1.58822 -0.179336)
(2.51394 1.50892 -0.124282)
(2.4739 1.44529 -0.0859338)
(2.42143 1.38195 -0.0609605)
(2.3613 1.31806 -0.0481931)
(2.30116 1.26475 -0.0435381)
(2.2378 1.21573 -0.0432325)
(2.17026 1.16819 -0.0456201)
(2.10648 1.12391 -0.0495792)
(2.04837 1.08987 -0.0546774)
(1.99065 1.06425 -0.0610129)
(1.93186 1.04484 -0.0687304)
(1.87331 1.03015 -0.0779435)
(1.81504 1.01764 -0.0889471)
(1.75943 1.00419 -0.101674)
(1.70649 0.982796 -0.118769)
(1.71584 0.953118 -0.136569)
(10.0011 5.10183 -11.6994)
(9.95974 6.08616 -11.0842)
(10.0988 6.71677 -10.4776)
(10.1854 7.18864 -9.87992)
(10.2899 7.59186 -9.29703)
(10.5448 7.76156 -8.74162)
(10.8207 7.73284 -8.30534)
(10.9842 7.65992 -8.00282)
(11.012 7.45369 -7.69709)
(10.587 7.29615 -7.32167)
(9.65477 6.68085 -6.62365)
(8.4347 5.70195 -5.69617)
(6.7224 4.59141 -4.60646)
(4.78825 3.17886 -3.38078)
(3.49172 2.20626 -2.28326)
(2.79719 1.76938 -1.50535)
(2.49112 1.67053 -0.970741)
(2.44814 1.70227 -0.596872)
(2.48119 1.73159 -0.332483)
(2.51696 1.72421 -0.19958)
(2.51284 1.69702 -0.133153)
(2.48319 1.65015 -0.0917913)
(2.44726 1.58338 -0.0565664)
(2.4025 1.50458 -0.0353548)
(2.35196 1.4191 -0.0272987)
(2.29805 1.33279 -0.0244171)
(2.23527 1.25438 -0.0235248)
(2.16641 1.18207 -0.0238938)
(2.09931 1.12062 -0.0255012)
(2.03083 1.06982 -0.0283616)
(1.95968 1.02543 -0.0324798)
(1.89072 0.98583 -0.0378086)
(1.82564 0.95541 -0.0443204)
(1.76323 0.93372 -0.0521053)
(1.70232 0.91811 -0.0613081)
(1.643 0.906804 -0.0720915)
(1.58536 0.897589 -0.0846674)
(1.53154 0.888396 -0.0993079)
(1.48446 0.877232 -0.116871)
(1.4747 0.861415 -0.137426)
(9.96834 5.24258 -11.7049)
(10.0516 6.31632 -11.0173)
(10.3502 6.89754 -10.3862)
(10.506 7.23533 -9.78251)
(10.5729 7.6003 -9.20551)
(10.7396 7.69204 -8.73633)
(10.8818 7.61928 -8.4949)
(10.7559 7.32965 -8.22576)
(10.2174 7.13272 -7.7637)
(8.96755 6.53393 -6.75339)
(7.06544 5.22057 -5.2771)
(4.98711 3.57324 -3.76797)
(3.39186 2.36056 -2.54749)
(2.56414 1.73185 -1.71731)
(2.19351 1.5755 -1.08694)
(2.17279 1.58119 -0.619678)
(2.3499 1.681 -0.279149)
(2.46224 1.74132 -0.127753)
(2.50412 1.77033 -0.0679822)
(2.51139 1.74911 -0.0524757)
(2.49148 1.70053 -0.0396135)
(2.43119 1.61223 -0.0259021)
(2.3548 1.50815 -0.0195152)
(2.27665 1.40009 -0.0165289)
(2.1998 1.29672 -0.0153701)
(2.12447 1.20198 -0.0155554)
(2.0479 1.11935 -0.0168881)
(1.97098 1.0458 -0.0192309)
(1.89694 0.984402 -0.0225214)
(1.82507 0.935853 -0.0267923)
(1.7542 0.896065 -0.0321304)
(1.68608 0.862784 -0.0386344)
(1.62168 0.836923 -0.0464041)
(1.56026 0.81865 -0.0555671)
(1.50104 0.806501 -0.0662685)
(1.44407 0.799002 -0.0786663)
(1.38931 0.794152 -0.0929511)
(1.33795 0.790867 -0.10941)
(1.29442 0.788621 -0.128522)
(1.27569 0.783713 -0.150848)
(9.93879 5.37496 -11.6934)
(10.2173 6.58444 -10.9928)
(10.7649 7.04932 -10.387)
(10.8555 7.45554 -9.74543)
(10.7541 7.52529 -9.2468)
(10.7459 7.45861 -9.02149)
(10.5298 7.19894 -8.73387)
(9.83114 6.91395 -8.17188)
(8.45212 6.22093 -6.89066)
(6.10336 4.69971 -4.88904)
(3.87856 2.94029 -3.10446)
(2.74945 2.03203 -2.07829)
(2.11282 1.6746 -1.34456)
(1.98329 1.56177 -0.782491)
(2.17366 1.64437 -0.316828)
(2.38582 1.76915 -0.098732)
(2.51264 1.87302 -0.0383894)
(2.54836 1.85701 -0.0283814)
(2.53817 1.81192 -0.0287003)
(2.4908 1.72725 -0.0197503)
(2.40139 1.62134 -0.0147721)
(2.29858 1.50686 -0.0123363)
(2.19798 1.38785 -0.0112562)
(2.1009 1.27017 -0.0112549)
(2.00714 1.16162 -0.0121887)
(1.91923 1.06579 -0.0140066)
(1.83579 0.984091 -0.0167252)
(1.75629 0.914327 -0.0203614)
(1.68193 0.856368 -0.024934)
(1.61178 0.81071 -0.0304984)
(1.5445 0.775065 -0.0371527)
(1.48043 0.747369 -0.0450177)
(1.41984 0.727139 -0.0542217)
(1.36227 0.71394 -0.0648981)
(1.30693 0.706893 -0.077181)
(1.25376 0.704896 -0.0912066)
(1.20294 0.705926 -0.10712)
(1.15544 0.707974 -0.125162)
(1.1167 0.712269 -0.145674)
(1.09085 0.715967 -0.169146)
(9.91087 5.41949 -11.6609)
(10.5493 6.8792 -11.079)
(11.237 7.16554 -10.4256)
(11.1568 7.38696 -9.84277)
(10.7874 7.21601 -9.66691)
(10.2894 6.9803 -9.22291)
(9.56858 6.59303 -8.46027)
(8.07398 5.81047 -6.97788)
(5.60036 4.21365 -4.69407)
(3.54347 2.68403 -2.81188)
(2.49782 1.96394 -1.76858)
(2.03693 1.66537 -1.10405)
(2.0282 1.59631 -0.520112)
(2.34018 1.81668 -0.143931)
(2.51093 1.96958 -0.0410161)
(2.58981 1.99371 -0.0236409)
(2.58974 1.94865 -0.0216739)
(2.55807 1.87256 -0.0187824)
(2.46896 1.76703 -0.0133513)
(2.35235 1.63907 -0.010429)
(2.23005 1.50691 -0.00892705)
(2.11008 1.37355 -0.00849226)
(1.99478 1.24412 -0.00900451)
(1.88493 1.12524 -0.0104296)
(1.78284 1.01977 -0.0127236)
(1.69063 0.928633 -0.0158608)
(1.60651 0.851937 -0.0198627)
(1.52902 0.788082 -0.0247735)
(1.458 0.736145 -0.0306463)
(1.3923 0.695774 -0.0375567)
(1.33057 0.665459 -0.0456077)
(1.27242 0.643507 -0.0549149)
(1.21747 0.629232 -0.0656043)
(1.16492 0.622005 -0.0777929)
(1.11395 0.620856 -0.0915837)
(1.06557 0.623796 -0.107073)
(1.02127 0.629736 -0.124383)
(0.978113 0.638041 -0.143709)
(0.94103 0.647439 -0.165259)
(0.90978 0.658459 -0.189345)
(9.91365 5.26167 -11.6235)
(11.0119 6.97687 -11.1167)
(11.6572 6.6731 -10.4096)
(11.354 6.5851 -10.2326)
(10.4041 6.67712 -9.76363)
(9.385 6.25344 -8.76739)
(7.8813 5.47158 -7.03909)
(5.25192 3.74357 -4.51032)
(3.43757 2.48335 -2.62704)
(2.52833 1.91304 -1.54001)
(2.18874 1.65214 -0.888245)
(2.28889 1.72294 -0.329386)
(2.54407 1.96756 -0.0815143)
(2.66753 2.1067 -0.0374375)
(2.67906 2.09261 -0.0240786)
(2.6461 2.03956 -0.0200618)
(2.56649 1.94357 -0.013882)
(2.43851 1.80889 -0.00973945)
(2.29735 1.66206 -0.00750601)
(2.15495 1.50678 -0.00657755)
(2.01492 1.3568 -0.00665304)
(1.88372 1.21953 -0.00760803)
(1.76185 1.09354 -0.00942657)
(1.6474 0.980779 -0.0121217)
(1.54356 0.88345 -0.0156705)
(1.45241 0.800483 -0.020066)
(1.37139 0.731116 -0.0253412)
(1.29848 0.674211 -0.031549)
(1.23273 0.628826 -0.0387527)
(1.17274 0.594206 -0.0470346)
(1.11714 0.569572 -0.0564908)
(1.06502 0.553564 -0.067221)
(1.01553 0.545121 -0.079329)
(0.96836 0.543192 -0.0928991)
(0.923785 0.546807 -0.10801)
(0.881122 0.555529 -0.124736)
(0.840229 0.56568 -0.143188)
(0.799934 0.579427 -0.163461)
(0.764496 0.593164 -0.18558)
(0.729136 0.607595 -0.209402)
(10.1171 4.8187 -11.4824)
(11.4638 5.66064 -11.311)
(12.3093 5.67488 -10.528)
(11.3636 5.94242 -10.1659)
(9.39916 5.78545 -8.92757)
(7.46752 4.83176 -6.77509)
(4.83954 3.09679 -4.00016)
(3.35282 2.26222 -2.30915)
(2.68959 1.87127 -1.32009)
(2.49858 1.71869 -0.644172)
(2.64177 1.86516 -0.201027)
(2.77726 2.10271 -0.0624558)
(2.83438 2.19472 -0.0315425)
(2.79432 2.17578 -0.0246922)
(2.71505 2.11761 -0.0189038)
(2.58375 2.00776 -0.0115475)
(2.41313 1.85491 -0.00740208)
(2.24223 1.68471 -0.00540882)
(2.08004 1.51369 -0.00477299)
(1.92314 1.34731 -0.00517197)
(1.77331 1.19719 -0.00647951)
(1.63943 1.06564 -0.00864979)
(1.51781 0.948685 -0.0116966)
(1.40387 0.845455 -0.0156266)
(1.30235 0.758273 -0.0204037)
(1.21536 0.684711 -0.0260409)
(1.13928 0.623536 -0.0325848)
(1.07179 0.574026 -0.0400892)
(1.01169 0.53555 -0.0486157)
(0.957275 0.507045 -0.0582373)
(0.907123 0.488146 -0.0690286)
(0.860927 0.477611 -0.0810635)
(0.817939 0.473272 -0.0944279)
(0.776531 0.476166 -0.109177)
(0.735116 0.485206 -0.1254)
(0.696141 0.501284 -0.143116)
(0.659979 0.513614 -0.162365)
(0.621302 0.528219 -0.182958)
(0.586707 0.543691 -0.204774)
(0.55522 0.560018 -0.227626)
(9.92805 3.9679 -11.215)
(11.41 3.47864 -10.886)
(11.5293 4.62448 -10.1651)
(9.3846 5.01458 -8.77189)
(6.24864 3.93153 -5.59614)
(4.4224 2.75854 -3.255)
(3.44445 2.1956 -1.86132)
(3.00307 1.94766 -0.986233)
(2.93991 1.90932 -0.418872)
(3.005 2.04096 -0.137187)
(3.0609 2.19082 -0.0602435)
(3.02683 2.23866 -0.0315408)
(2.9354 2.23368 -0.0232518)
(2.80527 2.1848 -0.0162538)
(2.62778 2.06879 -0.00856545)
(2.4162 1.90103 -0.00494311)
(2.20233 1.71271 -0.00347505)
(2.01218 1.52603 -0.00321772)
(1.84042 1.34776 -0.0038668)
(1.67613 1.18292 -0.00540663)
(1.52327 1.04023 -0.00783532)
(1.39225 0.919629 -0.0111517)
(1.27483 0.815134 -0.0153861)
(1.16416 0.72408 -0.0205116)
(1.06685 0.647263 -0.0264859)
(0.985256 0.582894 -0.0333454)
(0.914556 0.530132 -0.0411337)
(0.852254 0.488246 -0.0498945)
(0.797449 0.45687 -0.059672)
(0.748598 0.43403 -0.0705209)
(0.704144 0.419845 -0.0824947)
(0.664446 0.413966 -0.0956596)
(0.625941 0.414672 -0.110088)
(0.587098 0.421653 -0.125794)
(0.546795 0.433787 -0.142869)
(0.514897 0.449373 -0.161124)
(0.48473 0.464871 -0.180422)
(0.450313 0.480482 -0.200573)
(0.418075 0.497414 -0.221575)
(0.388595 0.51696 -0.243347)
(4.71911 -0.0979227 -0.139914)
(6.30032 -0.215567 -2.93065)
(6.13226 1.02967 -3.25754)
(5.14478 1.77553 -2.73514)
(4.38823 1.88376 -1.91468)
(3.95641 1.95428 -1.12991)
(3.74436 2.00366 -0.567418)
(3.54572 1.97516 -0.275668)
(3.41534 2.06243 -0.121424)
(3.35889 2.17014 -0.0588321)
(3.26019 2.23293 -0.0274237)
(3.10285 2.2548 -0.0190202)
(2.93396 2.23225 -0.00972899)
(2.70657 2.12151 -0.00432884)
(2.45187 1.9451 -0.00230778)
(2.19429 1.74202 -0.00172247)
(1.95952 1.53676 -0.0018904)
(1.76517 1.34903 -0.00271639)
(1.5932 1.17456 -0.00435083)
(1.42794 1.02704 -0.00688787)
(1.277 0.896372 -0.0103595)
(1.15062 0.786819 -0.014783)
(1.03822 0.694846 -0.020166)
(0.932767 0.617747 -0.0264258)
(0.841231 0.550978 -0.0335519)
(0.764962 0.495491 -0.0415815)
(0.699255 0.45101 -0.0505374)
(0.641953 0.416146 -0.0604449)
(0.592986 0.391176 -0.0713323)
(0.550113 0.373768 -0.083244)
(0.509667 0.365501 -0.0962347)
(0.473111 0.364258 -0.110339)
(0.438354 0.369067 -0.125605)
(0.404937 0.377179 -0.141957)
(0.369496 0.387961 -0.159265)
(0.341761 0.399974 -0.177333)
(0.315188 0.418951 -0.196101)
(0.285906 0.438165 -0.215537)
(0.256051 0.457586 -0.235621)
(0.22841 0.479639 -0.256304)
(4.87518 1.29402 -0.0132064)
(5.55744 1.24437 -0.288365)
(5.56343 1.52662 -0.399688)
(5.19833 1.73699 -0.39791)
(4.62583 1.82669 -0.310918)
(4.2782 1.87184 -0.210215)
(4.02072 1.94422 -0.133133)
(3.78742 2.01845 -0.0714265)
(3.63016 2.08543 -0.0267779)
(3.48423 2.18267 -0.00842045)
(3.3012 2.24588 -0.00930566)
(3.09731 2.245 -0.00342581)
(2.8258 2.14755 -0.00156318)
(2.51807 1.97541 -0.000995832)
(2.21853 1.77018 -0.000838219)
(1.94283 1.55458 -0.00106296)
(1.70503 1.34544 -0.00184051)
(1.51519 1.16685 -0.00336449)
(1.34405 1.00894 -0.00583374)
(1.18475 0.881046 -0.00930067)
(1.04214 0.767356 -0.0137859)
(0.919835 0.670524 -0.0192737)
(0.811141 0.590799 -0.0257137)
(0.712158 0.52599 -0.0330254)
(0.627305 0.468829 -0.041226)
(0.556094 0.422102 -0.0503166)
(0.495805 0.384921 -0.0603058)
(0.443521 0.356773 -0.0712093)
(0.398758 0.339556 -0.0830515)
(0.359331 0.326958 -0.0958605)
(0.321511 0.324428 -0.109673)
(0.290378 0.324173 -0.124443)
(0.26021 0.32859 -0.140058)
(0.232371 0.335893 -0.156404)
(0.204123 0.346161 -0.173347)
(0.178387 0.360724 -0.190879)
(0.154212 0.381353 -0.20897)
(0.129195 0.402317 -0.227599)
(0.101087 0.424401 -0.246739)
(0.0743973 0.44689 -0.266351)
(4.94424 0.25576 0.0191618)
(5.60184 0.545697 -0.0569017)
(5.40854 0.794652 -0.0660279)
(4.87781 1.27343 -0.0699509)
(4.49549 1.51444 -0.0633367)
(4.25093 1.68914 -0.0582368)
(4.04813 1.85264 -0.0421012)
(3.88874 1.98249 -0.0174126)
(3.73121 2.1038 -0.00731511)
(3.52487 2.19326 -0.00571334)
(3.29001 2.22038 -0.00275373)
(2.97611 2.14291 -0.0016062)
(2.61673 1.98091 -0.000958413)
(2.26539 1.77678 -0.000634654)
(1.95409 1.56213 -0.00067746)
(1.68231 1.3561 -0.00123707)
(1.44969 1.1599 -0.00252422)
(1.26573 0.993202 -0.00474462)
(1.10415 0.859685 -0.00803508)
(0.951667 0.748435 -0.012413)
(0.816923 0.653554 -0.0178471)
(0.701107 0.570782 -0.024299)
(0.59755 0.503808 -0.031683)
(0.504943 0.448507 -0.039953)
(0.426438 0.399928 -0.0490982)
(0.360461 0.361276 -0.0591066)
(0.304678 0.332107 -0.0699792)
(0.254257 0.311156 -0.0817247)
(0.213127 0.30374 -0.094338)
(0.179145 0.290579 -0.107814)
(0.146172 0.287296 -0.122035)
(0.121785 0.286009 -0.136908)
(0.0976599 0.290339 -0.15231)
(0.0742006 0.298901 -0.168241)
(0.0486269 0.311835 -0.184649)
(0.0238457 0.328381 -0.20153)
(0.00205419 0.34917 -0.218867)
(-0.020883 0.371461 -0.236644)
(-0.0472781 0.395668 -0.254841)
(-0.0732044 0.418486 -0.273423)
(4.95594 0.381684 0.00985493)
(5.59016 0.851109 -0.00995576)
(5.42129 1.09613 -0.0136754)
(5.01089 1.40164 -0.0163862)
(4.73731 1.56803 -0.0141824)
(4.49239 1.74564 -0.00910533)
(4.2597 1.9068 -0.00719988)
(4.01838 2.03026 -0.00722153)
(3.78176 2.11629 -0.00516463)
(3.50657 2.15296 -0.00267221)
(3.14716 2.09945 -0.0013487)
(2.73984 1.95574 -0.000689528)
(2.34031 1.76143 -0.000408232)
(1.97955 1.54798 -0.000405327)
(1.67198 1.34021 -0.000790608)
(1.41891 1.15607 -0.00180002)
(1.20556 0.988019 -0.0036927)
(1.02885 0.841549 -0.00664988)
(0.874094 0.729775 -0.0107391)
(0.73162 0.635905 -0.0159484)
(0.606347 0.556656 -0.0222331)
(0.497188 0.486616 -0.0295272)
(0.398565 0.43053 -0.0377417)
(0.312641 0.383889 -0.0468355)
(0.239604 0.34469 -0.0567789)
(0.176434 0.31467 -0.0675525)
(0.124328 0.291582 -0.0791387)
(0.0742869 0.275401 -0.0915292)
(0.0430836 0.263941 -0.104597)
(0.0182148 0.254987 -0.118243)
(-0.0106849 0.249432 -0.132349)
(-0.0316546 0.251092 -0.146911)
(-0.0530143 0.258445 -0.161884)
(-0.0739205 0.270146 -0.177262)
(-0.0970683 0.285463 -0.193038)
(-0.12009 0.302562 -0.209202)
(-0.141495 0.32257 -0.225746)
(-0.164476 0.345493 -0.24266)
(-0.189738 0.369824 -0.259927)
(-0.216083 0.393921 -0.277523)
(5.04619 0.195839 0.00444898)
(5.69716 0.703553 -0.00102779)
(5.51563 0.907911 -0.00218598)
(5.09361 1.22159 -0.00404144)
(4.83797 1.45141 -0.00421578)
(4.60008 1.6768 -0.00323848)
(4.32603 1.86879 -0.00354396)
(4.0461 1.98011 -0.00234367)
(3.7155 2.02774 -0.00121758)
(3.31673 2.00006 -0.000536245)
(2.86901 1.88778 -0.000241559)
(2.42769 1.71643 -0.000144328)
(2.02353 1.51561 -0.000171675)
(1.6747 1.31084 -0.000439206)
(1.39492 1.12696 -0.00118441)
(1.16776 0.968584 -0.00269689)
(0.973096 0.831883 -0.00522405)
(0.808305 0.713972 -0.00887903)
(0.662575 0.620526 -0.0136899)
(0.529154 0.541207 -0.0196305)
(0.412406 0.473247 -0.0266451)
(0.309726 0.415723 -0.0346466)
(0.215384 0.369454 -0.0435579)
(0.133841 0.33155 -0.0533321)
(0.0639573 0.302734 -0.0639243)
(0.00530424 0.283122 -0.0752795)
(-0.0406398 0.259189 -0.0873525)
(-0.0819428 0.241107 -0.0999785)
(-0.107443 0.221738 -0.113014)
(-0.130242 0.219236 -0.12641)
(-0.153749 0.217237 -0.14016)
(-0.173563 0.222568 -0.154255)
(-0.192722 0.232284 -0.168678)
(-0.2121 0.245945 -0.183423)
(-0.233511 0.262638 -0.198497)
(-0.255498 0.280487 -0.213901)
(-0.277343 0.300686 -0.229629)
(-0.30098 0.323224 -0.245676)
(-0.326639 0.347283 -0.262032)
(-0.354219 0.371983 -0.278676)
(5.0915 0.0593825 0.00145336)
(5.7081 0.642342 0.000592388)
(5.48543 0.923042 0.000240777)
(5.10891 1.21641 -0.000625051)
(4.87173 1.42659 -0.00122025)
(4.61435 1.64013 -0.00088564)
(4.27432 1.79467 -0.000536234)
(3.88033 1.86055 -0.000338454)
(3.45182 1.85221 -0.000186164)
(2.98407 1.77337 -8.08896e-05)
(2.51045 1.63539 -3.34731e-05)
(2.07138 1.45858 -4.53124e-05)
(1.68955 1.26971 -0.000200706)
(1.38146 1.09502 -0.000698325)
(1.13824 0.941994 -0.00181448)
(0.936167 0.811066 -0.00383766)
(0.760197 0.700342 -0.00694958)
(0.607574 0.60586 -0.0112178)
(0.471219 0.528975 -0.0166467)
(0.346515 0.462526 -0.0231994)
(0.235887 0.405364 -0.0308045)
(0.136848 0.358422 -0.0393799)
(0.0461012 0.321667 -0.0488495)
(-0.0325645 0.29193 -0.0591467)
(-0.101074 0.268556 -0.0701953)
(-0.1489 0.247195 -0.0818613)
(-0.183313 0.224786 -0.0939918)
(-0.217458 0.206623 -0.106426)
(-0.242307 0.192509 -0.119139)
(-0.264284 0.190232 -0.132119)
(-0.285309 0.192383 -0.145376)
(-0.303703 0.199466 -0.1589)
(-0.321876 0.21048 -0.172689)
(-0.340751 0.225047 -0.186744)
(-0.36138 0.242297 -0.201073)
(-0.383205 0.260743 -0.215684)
(-0.406118 0.281124 -0.230579)
(-0.431153 0.303436 -0.245757)
(-0.458204 0.327211 -0.261213)