/*--------------------------------*- C++ -*----------------------------------*\
| =========                 |                                                 |
| \\      /  F ield         | OpenFOAM: The Open Source CFD Toolbox           |
|  \\    /   O peration     | Version:  2.3.0                                 |
|   \\  /    A nd           | Web:      www.OpenFOAM.org                      |
|    \\/     M anipulation  |                                                 |
\*---------------------------------------------------------------------------*/
FoamFile
{
    version     2.0;
    format      ascii;
    class       volScalarField;
    location    "10000";
    object      epsilon;
}
// * * * * * * * * * * * * * * * * * * * * * * * * * * * * * * * * * * * * * //

dimensions      [0 2 -3 0 0 0 0];

internalField   nonuniform List<scalar> 
26600
(
7.32507
12.436
18.942
25.3143
32.5012
40.5443
49.6324
59.3493
69.8665
80.6823
91.9815
103.205
114.573
125.524
136.318
146.425
156.147
165.006
173.335
180.725
187.509
193.366
198.604
202.972
206.744
209.761
212.211
214.059
215.37
216.274
216.652
216.844
216.451
216.108
215.036
214.298
212.586
211.598
209.137
264.109
0.325774
0.615081
1.00536
1.26939
1.74768
2.01579
2.44927
2.78819
3.16844
3.5853
4.03451
4.51029
5.00729
5.51904
6.03946
6.56061
7.07864
7.5865
8.08095
8.55635
9.01052
9.43959
9.84269
10.2175
10.5643
10.8821
11.1719
11.4338
11.6691
11.8796
12.0668
12.233
12.381
12.5117
12.6283
12.7291
12.8205
12.8936
12.9317
16.3122
0.158981
0.183795
0.221205
0.261766
0.30638
0.347713
0.391149
0.430217
0.47805
0.510036
0.565457
0.591905
0.642881
0.670449
0.705689
0.733335
0.76085
0.787944
0.814171
0.839428
0.863361
0.885865
0.906858
0.92639
0.944446
0.96112
0.97639
0.990406
1.00313
1.01473
1.02528
1.03497
1.04407
1.05246
1.06074
1.0682
1.07611
1.08348
1.0898
1.27812
0.151629
0.156356
0.165515
0.175133
0.184651
0.194001
0.203116
0.211828
0.220192
0.227886
0.23548
0.242392
0.248999
0.255015
0.261307
0.265977
0.2723
0.275599
0.280806
0.283433
0.286823
0.289021
0.291044
0.292936
0.294634
0.296208
0.297598
0.298891
0.300047
0.301178
0.302532
0.304025
0.305819
0.307769
0.310092
0.312623
0.315686
0.318997
0.322769
0.332491
0.150664
0.152475
0.155557
0.158758
0.161697
0.164625
0.167438
0.170197
0.172759
0.175101
0.177238
0.179127
0.180899
0.182441
0.183939
0.185242
0.186476
0.187549
0.188813
0.189687
0.191037
0.191823
0.193252
0.194053
0.195649
0.196624
0.198456
0.19986
0.202172
0.204455
0.207906
0.210674
0.215012
0.218549
0.224365
0.229022
0.237137
0.243253
0.256544
0.260961
0.150339
0.151301
0.15348
0.155719
0.157366
0.158884
0.16009
0.161353
0.162419
0.163438
0.164327
0.165048
0.165836
0.166402
0.167213
0.167818
0.168761
0.169537
0.170751
0.171638
0.173128
0.174283
0.176332
0.177957
0.180976
0.183381
0.18791
0.191523
0.198295
0.203709
0.21388
0.222202
0.237926
0.250582
0.274851
0.293571
0.330878
0.355996
0.427147
0.339113
0.150119
0.150817
0.152587
0.154684
0.156015
0.157362
0.158211
0.159294
0.160082
0.161063
0.161843
0.162638
0.163512
0.164214
0.165368
0.166283
0.16798
0.169419
0.172219
0.17459
0.179186
0.182957
0.190219
0.196161
0.207636
0.217054
0.235311
0.250256
0.279164
0.302919
0.348864
0.386981
0.461215
0.522678
0.643615
0.740445
0.93382
1.07331
1.44236
0.9183
0.14995
0.15072
0.15222
0.154551
0.155918
0.157552
0.158297
0.159752
0.160598
0.162422
0.163673
0.165907
0.167793
0.170287
0.173357
0.176438
0.181987
0.187103
0.197103
0.205606
0.222333
0.236316
0.263633
0.286804
0.332265
0.37141
0.448494
0.514775
0.645073
0.757321
0.979197
1.16949
1.55063
1.86998
2.51563
3.02916
4.07211
4.82272
6.73885
4.28321
0.149864
0.150769
0.15213
0.154978
0.156703
0.158946
0.160061
0.162271
0.163879
0.167565
0.170519
0.176896
0.181627
0.190593
0.197987
0.211338
0.22648
0.248287
0.281269
0.315804
0.378419
0.43718
0.54879
0.65191
0.853843
1.03862
1.40206
1.725
2.36206
2.91952
4.02875
4.97739
6.9127
8.49807
11.7691
14.2523
19.3712
22.8848
31.5191
20.4199
0.149617
0.151102
0.152687
0.156262
0.158891
0.162169
0.164205
0.168057
0.171798
0.180511
0.189254
0.208186
0.223352
0.251687
0.277705
0.328927
0.381272
0.488811
0.593927
0.791081
1.01849
1.33928
1.81172
2.34471
3.27521
4.2167
5.88879
7.50117
10.4509
13.1847
18.2349
22.7453
31.4939
38.3779
51.7399
60.7606
78.2587
89.1167
112.513
105.822
0.149752
0.151644
0.154185
0.158883
0.163452
0.16868
0.173467
0.181962
0.193413
0.219165
0.253537
0.318048
0.375507
0.478591
0.590327
0.809813
1.05866
1.56875
2.07906
3.0644
4.02501
5.80828
7.55338
10.7837
14.1007
19.6872
25.4658
34.8733
44.7881
59.0412
73.2686
94.2435
115.233
138.513
159.41
179.381
195.886
207.859
216.853
221.518
0.150037
0.152854
0.156714
0.163593
0.172434
0.183975
0.198402
0.228263
0.27243
0.373428
0.550161
0.802762
1.07853
1.52527
2.08496
3.15956
4.44291
6.88731
9.39082
13.6777
18.5913
25.5069
34.5904
47.0047
62.7686
80.7673
104.339
132.157
158.991
185.825
208.382
224.966
234.817
242.995
246.511
250.102
250.181
250.422
248.572
249.882
0.15086
0.154239
0.159683
0.173555
0.19391
0.237214
0.285019
0.427886
0.672271
1.20885
2.22821
3.34865
4.86712
6.8652
9.8362
14.7397
21.6684
31.2513
43.6784
60.8361
80.4125
105.838
138.734
174.332
208.102
238.702
257.523
268.852
273.014
272.527
271.129
268.624
265.195
262.191
256.769
253.075
246.534
242.62
231.05
237.504
0.150105
0.156797
0.16204
0.210684
0.269162
0.454521
0.677905
1.46824
3.20515
6.63112
11.8916
17.0615
24.6093
33.3397
47.5749
69.3289
95.3949
130.386
175.383
220.022
262.471
294.914
312.674
319.739
317.712
313.962
307.224
298.432
286.89
275.049
260.905
247.184
231.95
219.439
205.319
195.518
182.673
176.589
162.242
168.926
0.140344
0.155719
0.175204
0.390727
0.639511
1.55599
3.1604
7.7702
20.1349
38.2813
60.5748
84.2311
113.626
146.933
201.833
258.923
314.625
353.015
373.826
377.698
374.625
367.861
355.119
337.598
317.064
293.67
268.475
243.591
219.476
197.442
176.973
159.186
143.161
130.59
118.868
110.641
101.332
97.307
89.0541
93.7181
0.104915
0.181518
0.364802
1.53459
3.07119
8.34233
19.0276
47.9658
112.78
178.688
254.927
328.372
390.39
434.449
455.251
449.412
441.729
429.45
409.776
384.721
353.657
318.274
281.03
244.105
209.113
177.912
150.704
127.454
108.381
92.2637
79.8023
70.3294
62.9344
57.5659
52.94
50.2158
47.1662
46.1191
44.0537
46.8251
0.0903412
0.595569
2.94646
9.99393
21.9459
49.2496
108.065
255.952
415.975
529.049
587.327
589.782
577.039
542.155
496.509
448.625
395.762
340.192
287.091
239.309
197.422
161.603
130.413
106.364
87.0132
71.6881
59.5651
50.0027
42.7378
37.0043
32.7949
29.6777
27.4188
26.1096
25.0446
24.7397
24.1142
24.4964
24.3061
25.8352
0.51653
6.02279
32.9946
75.7492
145.499
265.074
497.402
632.48
678.197
678.813
658.819
607.655
519.176
413.437
316.04
237.77
178.783
140.444
113.698
93.5335
77.4319
64.1731
53.0983
44.0555
36.7378
31.0325
26.6304
23.264
20.7875
18.9319
17.6377
16.72
16.0659
15.904
15.8504
16.0411
16.0877
16.5183
16.6178
17.4388
8.19213
74.1216
287.088
451.187
655.748
716.806
762.506
737.55
673.772
569.459
445.229
325.214
220.865
153.488
111.216
84.7199
67.8042
56.3714
48.1876
41.8497
36.597
32.0789
28.1746
24.8564
22.0777
19.819
18.0005
16.5582
15.4616
14.6272
14.0322
13.5895
13.302
13.2113
13.2176
13.3088
13.3328
13.5352
13.5816
13.9618
12.431
396.268
814.798
954.935
889.654
705.566
500.196
339.2
234.278
168.349
122.168
88.0138
64.5757
49.6266
41.6166
36.9629
33.9782
31.6767
29.6416
27.691
25.7451
23.834
22.0228
20.3634
18.9229
17.5857
16.4213
15.4383
14.6379
13.9889
13.4881
13.0945
12.8018
12.5603
12.4121
12.2675
12.1963
12.1852
12.1502
12.2754
58.6115
330.087
322.617
280.301
209.634
145.452
97.923
66.5426
48.2147
35.6885
28.7597
25.6752
25.0378
24.6304
25.4473
25.7314
26.0628
25.9207
25.518
24.7129
23.6319
22.4071
21.1382
19.8922
18.7301
17.6709
16.6905
15.7957
14.9768
14.2257
13.5953
13.0797
12.6389
12.2625
11.9389
11.6669
11.4141
11.221
10.9905
10.9737
0.779445
13.7369
30.3002
31.0422
29.8453
23.6948
18.2809
14.7308
12.7794
12.6543
13.8677
16.3281
18.9805
21.3468
23.3541
24.6739
25.3178
25.4088
25.3626
24.9409
24.126
23.1139
21.9891
20.8053
19.5971
18.3816
17.1989
16.1155
15.1373
14.2538
13.459
12.7486
12.1243
11.5811
11.1074
10.7027
10.3451
10.0632
9.78447
9.70741
0.418317
1.9923
5.01127
6.98343
7.18855
7.24992
7.28078
7.66155
8.52647
10.2378
13.4038
17.1367
20.8158
23.83
25.9946
27.2352
27.5822
27.6111
27.3952
26.6925
25.6261
24.3496
22.9416
21.4723
20.0249
18.6293
17.2882
16.03
14.8365
13.7342
12.7375
11.8561
11.0909
10.4368
9.88118
9.42196
9.04282
8.76132
8.51948
8.42979
0.351529
0.754589
1.49979
2.33123
2.99724
4.04131
5.23336
6.93012
9.74577
14.3598
19.4915
24.0075
27.5258
29.6916
30.8885
31.11
30.973
30.4913
29.4161
28.0635
26.5236
24.902
23.2527
21.5859
19.9476
18.3268
16.7609
15.279
13.9017
12.6484
11.5321
10.5598
9.73186
9.043
8.48171
8.04411
7.71257
7.47643
7.28685
7.20259
0.271225
0.546354
0.969681
1.48362
2.39028
4.09554
7.41718
12.4219
18.7902
25.2714
30.4056
33.6625
35.6374
35.79
35.4868
34.677
33.3158
31.8025
30.1693
28.4293
26.6056
24.7303
22.8322
20.9411
19.088
17.296
15.5928
14.0031
12.5476
11.2416
10.0953
9.11084
8.29069
7.63064
7.1224
6.74823
6.48187
6.29995
6.15961
6.0851
0.280546
0.931794
1.86286
2.63934
5.26738
10.5496
18.9717
28.0567
35.5238
40.6688
42.8092
42.5704
41.6164
39.7537
37.7195
35.7745
33.785
31.7833
29.7107
27.631
25.5539
23.4907
21.4566
19.4692
17.5491
15.7192
14.0027
12.4199
10.9862
9.71149
8.60406
7.66608
6.90765
6.32907
5.90684
5.61146
5.41088
5.27727
5.17469
5.10859
1.28839
5.19233
8.06007
11.8842
19.2897
33.0132
43.8896
51.2957
52.788
51.9585
49.5609
46.3755
43.3063
40.3201
37.4138
34.6976
32.1933
29.8577
27.6256
25.4643
23.3586
21.3043
19.3078
17.3805
15.5377
13.7977
12.177
10.6905
9.34798
8.1601
7.13921
6.30956
5.67207
5.20712
4.881
4.66075
4.51491
4.41744
4.34029
4.28084
14.1258
27.5048
33.4102
42.7374
55.6787
63.1615
63.827
62.6562
59.5654
54.7911
49.9076
45.0997
40.7021
36.917
33.6822
30.8932
28.4644
26.2616
24.1969
22.219
20.3043
18.4455
16.6464
14.9159
13.2653
11.7077
10.2525
8.91551
7.70444
6.65771
5.79877
5.13137
4.63842
4.28917
4.04951
3.88964
3.78335
3.70974
3.64859
3.59524
46.9761
54.5867
60.5843
69.5968
71.6481
70.0433
66.6565
60.502
53.883
47.5537
41.9731
37.1631
33.1638
29.9658
27.3707
25.1855
23.3117
21.594
19.9561
18.3606
16.7956
15.2621
13.7667
12.3174
10.9215
9.59079
8.33214
7.17994
6.1702
5.33181
4.67183
4.17594
3.81741
3.56558
3.39254
3.27527
3.19454
3.13545
3.08459
3.03793
15.9589
30.3041
36.1172
41.3095
44.6537
43.2481
42.0067
38.6175
35.0757
31.6106
28.3597
25.6176
23.3471
21.5523
20.0975
18.8527
17.7505
16.6657
15.559
14.4242
13.27
12.1084
10.9495
9.80107
8.67013
7.5771
6.55424
5.64251
4.87407
4.25988
3.78965
3.44096
3.18831
3.00793
2.88041
2.79016
2.72463
2.67434
2.63112
2.59231
1.79381
7.95921
11.2618
12.6772
14.3
16.1033
16.3124
16.2343
15.9438
15.9304
15.3094
14.7829
14.3054
13.8944
13.5158
13.1403
12.7419
12.2363
11.6037
10.8847
10.1048
9.28196
8.42605
7.55004
6.67432
5.83255
5.06577
4.40755
3.87197
3.45338
3.13448
2.89488
2.71602
2.58262
2.48315
2.40858
2.35178
2.30746
2.2711
2.24108
0.218144
1.39334
2.20635
2.82851
3.06097
4.17873
5.07742
5.67948
6.02244
6.45758
6.91246
7.43593
7.94995
8.35944
8.64032
8.80236
8.88451
8.78214
8.46293
8.04146
7.53558
6.96427
6.34504
5.69934
5.05796
4.4586
3.93329
3.49749
3.14943
2.87677
2.66388
2.49665
2.36424
2.2588
2.175
2.10891
2.05741
2.01805
1.98844
1.96742
0.146113
0.367645
0.551834
0.724423
0.813906
1.13566
1.51596
1.83949
2.15816
2.59582
3.16252
3.81491
4.47883
5.09926
5.60069
5.96277
6.2342
6.31451
6.21366
5.95109
5.60947
5.20495
4.75957
4.30112
3.86177
3.4693
3.13835
2.86916
2.65286
2.4774
2.33183
2.20829
2.10225
2.01161
1.93561
1.87399
1.8263
1.79168
1.76868
1.75615
0.151341
0.202382
0.261693
0.321435
0.384008
0.513577
0.671579
0.828756
1.02269
1.32262
1.7544
2.29057
2.87165
3.43427
3.92394
4.30018
4.56927
4.70378
4.6825
4.50939
4.25933
3.95971
3.63889
3.32568
3.04402
2.80599
2.6118
2.4539
2.32177
2.2058
2.09936
1.9995
1.90644
1.82228
1.74959
1.69053
1.64613
1.61616
1.59938
1.59434
0.152212
0.167927
0.193681
0.228327
0.277236
0.354379
0.448905
0.553516
0.693894
0.916668
1.2475
1.67379
2.15192
2.62741
3.05046
3.38049
3.61087
3.71698
3.70044
3.56603
3.36212
3.12807
2.89506
2.68737
2.51674
2.38241
2.2762
2.1874
2.10553
2.02316
1.93706
1.84799
1.75965
1.67722
1.60558
1.54832
1.50704
1.48151
1.47029
1.47149
0.151584
0.158456
0.173171
0.199077
0.240634
0.300542
0.375256
0.464823
0.58844
0.77857
1.05598
1.41414
1.82003
2.22783
2.59029
2.87114
3.05397
3.11774
3.0891
2.96341
2.78532
2.59469
2.42288
2.28734
2.18967
2.12083
2.06846
2.02064
1.96701
1.90165
1.82416
1.73812
1.64988
1.56682
1.49531
1.4396
1.40128
1.37978
1.37328
1.37938
0.150857
0.155045
0.165663
0.186561
0.224055
0.277584
0.346694
0.434282
0.555295
0.732607
0.982021
1.29944
1.65833
2.01727
2.33401
2.57579
2.72057
2.74657
2.70605
2.58279
2.42161
2.26181
2.13226
2.0444
1.99298
1.96427
1.94379
1.91948
1.88062
1.82209
1.74642
1.65929
1.56899
1.48445
1.41285
1.3586
1.32295
1.30485
1.30211
1.31189
0.15033
0.153334
0.161905
0.179928
0.21476
0.266125
0.335146
0.425487
0.548566
0.721265
0.955407
1.24756
1.57414
1.89802
2.18224
2.39323
2.50542
2.5142
2.46459
2.3451
2.1979
2.06084
1.95998
1.9026
1.87942
1.87472
1.8722
1.86079
1.82894
1.77135
1.69427
1.60452
1.51171
1.42571
1.35412
1.30119
1.26775
1.25229
1.25232
1.26481
0.150009
0.152311
0.159813
0.176224
0.20947
0.260431
0.33117
0.425135
0.551087
0.721787
0.94674
1.2222
1.52642
1.82633
2.08905
2.27953
2.37278
2.37408
2.3221
2.20872
2.0732
1.95128
1.86725
1.82663
1.81904
1.82552
1.83297
1.82694
1.79831
1.74023
1.66133
1.56938
1.4748
1.38796
1.31658
1.26471
1.23284
1.21917
1.22095
1.23525
0.149779
0.151789
0.15887
0.174611
0.207129
0.258234
0.330326
0.42638
0.552986
0.720766
0.938222
1.20221
1.4931
1.78149
2.03546
2.21999
2.31027
2.31144
2.26279
2.15552
2.02658
1.91044
1.83148
1.79518
1.7913
1.80108
1.81156
1.80733
1.7801
1.72246
1.64345
1.55129
1.45661
1.36993
1.29899
1.24777
1.21666
1.20379
1.20632
1.22139
64.1829
24.8794
17.3017
14.3341
12.7664
11.8016
11.1508
10.6833
10.3317
10.0572
9.8361
9.65322
9.49831
9.36431
9.24624
9.14052
9.04457
8.95649
8.87491
8.7988
8.72744
8.6603
8.59702
8.53735
8.48112
8.42825
8.37868
8.3324
8.28944
8.24983
8.2136
8.18082
8.15153
8.12579
8.10364
8.08513
8.07029
8.05917
8.05178
8.04814
64.7652
25.1709
17.4837
14.465
12.8693
11.8873
11.2247
10.7488
10.3908
10.1111
9.88589
9.69949
9.54156
9.40491
9.28449
9.17667
9.0788
8.98898
8.9058
8.82822
8.7555
8.68711
8.62267
8.56192
8.5047
8.45091
8.4005
8.35347
8.30981
8.26956
8.23277
8.19948
8.16975
8.14362
8.12114
8.10236
8.08731
8.07602
8.06853
8.06484
65.0379
25.3154
17.6162
14.586
12.9792
11.9876
11.3171
10.8346
10.4709
10.1865
9.95702
9.76686
9.60553
9.46578
9.34251
9.23204
9.13172
9.0396
8.95426
8.87465
8.80004
8.72987
8.66376
8.60146
8.54279
8.48765
8.43599
8.3878
8.34309
8.30188
8.26422
8.23016
8.19974
8.17301
8.15003
8.13082
8.11544
8.10391
8.09625
8.09248
65.5217
25.5318
17.7659
14.7111
13.0918
12.0919
11.4151
10.9274
10.5593
10.2708
10.0377
9.84415
9.67968
9.53698
9.41092
9.2978
9.19495
9.10042
9.01279
8.931
8.85431
8.78217
8.7142
8.65013
8.58981
8.53312
8.48002
8.43049
8.38455
8.34222
8.30354
8.26855
8.23732
8.20989
8.18629
8.16659
8.1508
8.13897
8.13112
8.12726
65.8898
25.7105
17.9084
14.8355
13.2052
12.1979
11.5155
11.0233
10.6512
10.3593
10.123
9.92647
9.75915
9.61372
9.48502
9.36936
9.26406
9.16716
9.07723
8.99324
8.91443
8.84026
8.77036
8.70445
8.64239
8.58407
8.52944
8.47848
8.43122
8.38767
8.34789
8.31192
8.2798
8.2516
8.22735
8.2071
8.19088
8.17872
8.17065
8.16669
66.3456
25.9125
18.0558
14.9616
13.3198
12.3051
11.6174
11.1209
10.7453
10.4502
10.2109
10.0117
9.84168
9.69368
9.56249
9.44439
9.3367
9.23748
9.14529
9.05911
8.97818
8.90197
8.8301
8.76233
8.69849
8.63849
8.58228
8.52985
8.48122
8.43642
8.3955
8.35849
8.32546
8.29645
8.27151
8.25068
8.23401
8.22151
8.21322
8.20915
66.7616
26.1029
18.202
15.0883
13.4355
12.4135
11.7206
11.22
10.8409
10.5428
10.3007
10.0988
9.92624
9.77576
9.64214
9.52165
9.41163
9.31012
9.21569
9.12732
9.04428
8.96601
8.89218
8.82252
8.75688
8.69517
8.63736
8.58343
8.5334
8.48732
8.44522
8.40716
8.37318
8.34334
8.3177
8.29628
8.27913
8.26629
8.25776
8.25358
67.2114
26.3037
18.351
15.2166
13.5524
12.5232
11.825
11.3204
10.9379
10.6368
10.3919
10.1874
10.0124
9.85942
9.7234
9.60055
9.4882
9.3844
9.28773
9.19718
9.112
9.03167
8.95584
8.88427
8.81681
8.75338
8.69393
8.63848
8.58703
8.53964
8.49634
8.4572
8.42226
8.39158
8.36521
8.34319
8.32556
8.31235
8.30359
8.29929
67.652
26.5008
18.5006
15.346
13.6706
12.6342
11.9308
11.4221
11.0362
10.7321
10.4845
10.2773
10.0998
9.94442
9.80598
9.68076
9.56607
9.45997
9.36104
9.26827
9.18093
9.09851
9.02067
8.94716
8.87785
8.81265
8.75155
8.69454
8.64165
8.59292
8.54841
8.50816
8.47224
8.4407
8.41359
8.39096
8.37284
8.35926
8.35026
8.34584
68.107
26.7041
18.6525
15.477
13.7902
12.7465
12.0379
11.5251
11.1358
10.8287
10.5783
10.3686
10.1885
10.0306
9.88976
9.76213
9.64507
9.53662
9.43539
9.34037
9.25084
9.16629
9.08639
9.01091
8.93971
8.87273
8.80993
8.75134
8.69697
8.64689
8.60113
8.55976
8.52284
8.49042
8.46255
8.43929
8.42067
8.40672
8.39747
8.39294
68.5625
26.9067
18.8056
15.6095
13.9113
12.8603
12.1464
11.6295
11.2368
10.9266
10.6735
10.461
10.2784
10.118
9.97465
9.84458
9.72509
9.61426
9.51069
9.41337
9.32159
9.23487
9.15287
9.07536
9.00224
8.93342
8.8689
8.80869
8.75282
8.70134
8.65432
8.6118
8.57386
8.54054
8.51191
8.488
8.46887
8.45454
8.44503
8.44038
69.0256
27.1136
18.9609
15.7437
14.034
12.9755
12.2564
11.7353
11.3391
11.0258
10.7699
10.5547
10.3695
10.2065
10.0607
9.92807
9.80611
9.69284
9.58686
9.48718
9.39311
9.30416
9.22
9.14043
9.06533
8.99465
8.92836
8.86649
8.80908
8.75618
8.70785
8.66416
8.62517
8.59094
8.56152
8.53696
8.51731
8.50258
8.49282
8.48804
69.4937
27.3213
19.1177
15.8794
14.1582
13.0923
12.3678
11.8426
11.4429
11.1265
10.8676
10.6497
10.4618
10.2962
10.1478
10.0126
9.8881
9.77232
9.66387
9.56178
9.46535
9.37411
9.28775
9.20606
9.12893
9.05632
8.98822
8.92465
8.86566
8.81131
8.76166
8.71677
8.67671
8.64154
8.61131
8.58608
8.56589
8.55077
8.54074
8.53583
69.9656
27.5325
19.2766
16.0169
14.284
13.2106
12.4808
11.9514
11.5481
11.2285
10.9667
10.746
10.5553
10.3871
10.236
10.0982
9.97107
9.85271
9.74172
9.63715
9.5383
9.44471
9.35607
9.2722
9.193
9.11842
9.04845
8.98315
8.92254
8.86669
8.81568
8.76956
8.7284
8.69227
8.66122
8.63531
8.61457
8.59904
8.58874
8.5837
70.444
27.7453
19.4373
16.1562
14.4116
13.3306
12.5953
12.0617
11.6548
11.332
11.0672
10.8436
10.6502
10.4791
10.3253
10.1848
10.055
9.93399
9.8204
9.71327
9.61193
9.51592
9.42495
9.33884
9.2575
9.18089
9.10902
9.04193
8.97966
8.92228
8.86987
8.82249
8.78021
8.7431
8.71121
8.68459
8.66329
8.64734
8.63677
8.63159
70.9266
27.9611
19.6001
16.2974
14.5408
13.4523
12.7115
12.1735
11.763
11.4369
11.1691
10.9426
10.7462
10.5724
10.4157
10.2725
10.1399
10.0162
9.89991
9.79015
9.68624
9.58774
9.49437
9.40597
9.32243
9.24374
9.16991
9.10098
9.037
8.97806
8.92422
8.87554
8.83212
8.794
8.76124
8.73391
8.71203
8.69565
8.68479
8.67948
71.4142
28.1789
19.7648
16.4403
14.6719
13.5757
12.8294
12.2871
11.8728
11.5434
11.2724
11.0429
10.8437
10.6669
10.5074
10.3612
10.2258
10.0993
9.98025
9.86778
9.76123
9.66017
9.56433
9.47356
9.38776
9.30693
9.23109
9.16027
9.09455
9.034
8.97868
8.92869
8.88408
8.84493
8.81129
8.78322
8.76076
8.74394
8.73279
8.72734
71.9067
28.3996
19.9317
16.5853
14.8048
13.7009
12.949
12.4022
11.9842
11.6514
11.3773
11.1447
10.9424
10.7627
10.6002
10.4511
10.3128
10.1833
10.0614
9.94616
9.83689
9.7332
9.63482
9.54161
9.45349
9.37046
9.29255
9.2198
9.15228
9.09008
9.03326
8.98191
8.93609
8.89588
8.86134
8.83251
8.80945
8.79218
8.78073
8.77513
72.405
28.6227
20.1007
16.7321
14.9396
13.8279
13.0704
12.5191
12.0973
11.7611
11.4836
11.2479
11.0425
10.8597
10.6942
10.542
10.4007
10.2683
10.1434
10.0253
9.91324
9.80683
9.70583
9.61011
9.51961
9.43432
9.35428
9.27954
9.21019
9.14629
9.08792
9.03518
8.98813
8.94684
8.91136
8.88177
8.85808
8.84036
8.82861
8.82286
72.907
28.8485
20.2719
16.881
15.0764
13.9568
13.1936
12.6378
12.2121
11.8723
11.5916
11.3526
11.1441
10.9581
10.7894
10.6341
10.4897
10.3542
10.2263
10.1052
9.99026
9.88105
9.77737
9.67907
9.58611
9.4985
9.41627
9.33949
9.26825
9.20261
9.14266
9.08849
9.04017
8.99777
8.96135
8.93096
8.90665
8.88845
8.87639
8.87049
73.415
29.0768
20.4453
17.032
15.2151
14.0876
13.3187
12.7583
12.3287
11.9853
11.7011
11.4589
11.247
11.0578
10.8858
10.7273
10.5797
10.441
10.3101
10.1859
10.068
9.95588
9.84941
9.74846
9.65298
9.56298
9.47851
9.39964
9.32645
9.25903
9.19746
9.14183
9.09221
9.04867
9.01128
8.98008
8.95513
8.93644
8.92407
8.91801
73.9279
29.3079
20.621
17.1851
15.3558
14.2204
13.4457
12.8807
12.447
12.1
11.8123
11.5666
11.3514
11.1589
10.9836
10.8217
10.6708
10.5288
10.3946
10.2673
10.1463
10.0313
9.92197
9.81829
9.72021
9.62776
9.54098
9.45996
9.38478
9.31553
9.2523
9.19517
9.14423
9.09953
9.06114
9.02911
9.0035
8.98432
8.97162
8.9654
74.4454
29.5417
20.7991
17.3404
15.4987
14.3553
13.5747
13.005
12.5672
12.2164
11.9252
11.676
11.4574
11.2613
11.0826
10.9173
10.763
10.6176
10.4801
10.3496
10.2254
10.1073
9.99504
9.88855
9.7878
9.69282
9.60368
9.52045
9.44323
9.37211
9.30717
9.24851
9.1962
9.15031
9.11091
9.07803
9.05174
9.03206
9.01903
9.01265
74.9684
29.7784
20.9795
17.4979
15.6437
14.4922
13.7057
13.1312
12.6893
12.3347
12.0398
11.787
11.5648
11.3652
11.1829
11.0141
10.8562
10.7074
10.5665
10.4326
10.3052
10.1839
10.0686
9.95923
9.85573
9.75816
9.66659
9.5811
9.50178
9.42874
9.36206
9.30183
9.24812
9.20102
9.16057
9.12683
9.09985
9.07966
9.06628
9.05973
75.497
30.0178
21.1623
17.6577
15.7909
14.6313
13.8388
13.2595
12.8134
12.4548
12.1562
11.8997
11.6738
11.4706
11.2846
11.1121
10.9506
10.7982
10.6537
10.5164
10.3856
10.2611
10.1427
10.0303
9.924
9.82377
9.7297
9.64189
9.56042
9.48541
9.41694
9.3551
9.29997
9.25162
9.21011
9.17549
9.1478
9.12708
9.11335
9.10663
76.0297
30.2602
21.3477
17.8198
15.9404
14.7725
13.9741
13.3899
12.9394
12.5769
12.2744
12.0141
11.7845
11.5774
11.3877
11.2114
11.0461
10.89
10.7419
10.6009
10.4667
10.3389
10.2172
10.1018
9.9926
9.88963
9.793
9.7028
9.61914
9.54211
9.4718
9.40832
9.35173
9.3021
9.25951
9.22398
9.19557
9.17431
9.16023
9.15334
76.5685
30.5055
21.5356
17.9844
16.0922
14.9161
14.1115
13.5224
13.0675
12.7009
12.3945
12.1303
11.8967
11.6858
11.4921
11.3119
11.1428
10.9828
10.8309
10.6863
10.5485
10.4172
10.2923
10.1737
10.0615
9.95574
9.85647
9.76383
9.67791
9.59881
9.52663
9.46146
9.40338
9.35246
9.30875
9.2723
9.24315
9.22135
9.2069
9.19983
77.1127
30.7539
21.7261
18.1514
16.2464
15.062
14.2513
13.6571
13.1978
12.827
12.5165
12.2483
12.0107
11.7957
11.598
11.4138
11.2406
11.0767
10.9209
10.7725
10.631
10.4961
10.3678
10.246
10.1307
10.0221
9.92011
9.82496
9.73672
9.65551
9.58141
9.51452
9.45491
9.40266
9.35781
9.32042
9.29052
9.26815
9.25333
9.24608
77.6615
31.0053
21.9192
18.3209
16.4031
15.2103
14.3934
13.794
13.3302
12.9551
12.6404
12.3681
12.1263
11.9072
11.7053
11.5169
11.3396
11.1716
11.0118
10.8594
10.7141
10.5756
10.4438
10.3187
10.2003
10.0886
9.98389
9.88616
9.79556
9.71217
9.63611
9.56746
9.5063
9.45268
9.40668
9.36832
9.33766
9.31472
9.29952
9.29208
78.2163
31.2598
22.1152
18.4931
16.5623
15.3611
14.5379
13.9333
13.4649
13.0854
12.7664
12.4898
12.2437
12.0203
11.8141
11.6214
11.4398
11.2675
11.1036
10.9472
10.798
10.6557
10.5203
10.3917
10.2701
10.1554
10.0478
9.94744
9.8544
9.7688
9.69073
9.62028
9.55752
9.50252
9.45533
9.416
9.38455
9.36103
9.34544
9.33781
78.7768
31.5175
22.3139
18.6679
16.7241
15.5144
14.6848
14.075
13.6018
13.2178
12.8944
12.6135
12.363
12.1351
11.9244
11.7272
11.5412
11.3645
11.1963
11.0358
10.8825
10.7364
10.5972
10.4651
10.3401
10.2223
10.1118
10.0088
9.91324
9.82537
9.74524
9.67295
9.60857
9.55215
9.50375
9.46342
9.43117
9.40705
9.39107
9.38325
79.3419
31.7785
22.5155
18.8455
16.8886
15.6704
14.8344
14.2192
13.7412
13.3526
13.0246
12.7391
12.484
12.2515
12.0362
11.8344
11.6438
11.4626
11.29
11.1251
10.9677
10.8176
10.6746
10.5389
10.4104
10.2894
10.1759
10.0701
9.97204
9.88185
9.79963
9.72546
9.65941
9.60155
9.55192
9.51056
9.47751
9.45278
9.4364
9.42838
79.9133
32.0428
22.7201
19.026
17.0559
15.829
14.9866
14.366
13.883
13.4896
13.157
12.8668
12.607
12.3697
12.1496
11.943
11.7476
11.5618
11.3846
11.2153
11.0536
10.8993
10.7524
10.6129
10.481
10.3567
10.2401
10.1315
10.0308
9.93823
9.85386
9.77777
9.71003
9.65069
9.59981
9.55741
9.52353
9.49818
9.48139
9.47317
80.4905
32.3105
22.9277
19.2093
17.226
15.9905
15.1415
14.5153
14.0273
13.6291
13.2916
12.9965
12.7319
12.4896
12.2646
12.0531
11.8528
11.6621
11.4801
11.3063
11.1401
10.9816
10.8306
10.6873
10.5518
10.4241
10.3044
10.1928
10.0895
9.99449
9.90793
9.82988
9.76041
9.69957
9.64741
9.60395
9.56922
9.54325
9.52604
9.51761
81.0726
32.5817
23.1385
19.3957
17.3991
16.1548
15.2992
14.6674
14.1742
13.771
13.4285
13.1285
12.8587
12.6114
12.3812
12.1645
11.9592
11.7635
11.5767
11.398
11.2273
11.0644
10.9093
10.762
10.6228
10.4916
10.3687
10.2542
10.1481
10.0506
9.96181
9.88176
9.81053
9.74815
9.69469
9.65015
9.61456
9.58795
9.57032
9.56168
81.6611
32.8564
23.3525
19.5852
17.5752
16.3221
15.4598
14.8223
14.3237
13.9154
13.5679
13.2626
12.9876
12.735
12.4994
12.2775
12.0668
11.866
11.6741
11.4906
11.3152
11.1477
10.9883
10.837
10.694
10.5592
10.433
10.3154
10.2066
10.1066
10.0155
9.93339
9.86035
9.79642
9.74163
9.69599
9.65953
9.63227
9.61421
9.60536
82.2557
33.1348
23.5697
19.7778
17.7545
16.4925
15.6234
14.98
14.4761
14.0625
13.7096
13.399
13.1185
12.8604
12.6194
12.3919
12.1758
11.9697
11.7725
11.5839
11.4037
11.2316
11.0678
10.9123
10.7653
10.627
10.4974
10.3766
10.2649
10.1623
10.0689
9.98474
9.90988
9.84435
9.78821
9.74145
9.70411
9.67618
9.65768
9.64861
82.8554
33.4169
23.7904
19.9738
17.937
16.6661
15.79
15.1408
14.6313
14.2122
13.8539
13.5377
13.2516
12.9878
12.741
12.5079
12.2862
12.0744
11.8719
11.6781
11.4928
11.3159
11.1476
10.9878
10.8368
10.6947
10.5617
10.4378
10.3231
10.2179
10.1221
10.0358
9.95906
9.89193
9.8344
9.78651
9.74827
9.71967
9.70072
9.69143
83.4617
33.7028
24.0146
20.1732
18.1228
16.8429
15.9599
15.3046
14.7894
14.3647
14.0007
13.6788
13.3869
13.1171
12.8644
12.6254
12.3978
12.1804
11.9723
11.773
11.5826
11.4008
11.2277
11.0636
10.9085
10.7625
10.6259
10.4987
10.3811
10.2732
10.175
10.0865
10.0079
9.93911
9.88019
9.83115
9.79198
9.7627
9.7433
9.73379
84.0743
33.9927
24.2424
20.3761
18.3122
17.0232
16.1331
15.4716
14.9506
14.5201
14.1502
13.8223
13.5244
13.2485
12.9896
12.7444
12.5108
12.2874
12.0735
11.8688
11.6729
11.4861
11.3082
11.1396
10.9802
10.8303
10.6901
10.5596
10.439
10.3283
10.2276
10.1369
10.0564
9.9859
9.92556
9.87534
9.83524
9.80526
9.7854
9.77566
84.6923
34.2866
24.4739
20.5826
18.5051
17.207
16.3098
15.642
15.1149
14.6784
14.3025
13.9684
13.6641
13.3819
13.1166
12.8651
12.6252
12.3956
12.1758
11.9653
11.7639
11.5718
11.389
11.2157
11.052
10.8981
10.7542
10.6203
10.4965
10.383
10.2798
10.1869
10.1044
10.0322
9.97046
9.91905
9.87801
9.84733
9.827
9.81703
85.3171
34.5846
24.7094
20.793
18.7017
17.3944
16.4899
15.8157
15.2824
14.8397
14.4576
14.117
13.8062
13.5174
13.2455
12.9873
12.7409
12.505
12.279
12.0625
11.8555
11.658
11.4701
11.2921
11.1239
10.9659
10.8182
10.6808
10.5539
10.4375
10.3317
10.2365
10.152
10.0781
10.0149
9.96227
9.92027
9.88888
9.86808
9.85787
85.9486
34.8869
24.9487
21.0072
18.9022
17.5857
16.6738
15.9929
15.4533
15.0042
14.6155
14.2684
13.9508
13.655
13.3762
13.1112
12.858
12.6156
12.3832
12.1606
11.9477
11.7446
11.5515
11.3686
11.1959
11.0336
10.882
10.741
10.6109
10.4916
10.3832
10.2857
10.1992
10.1236
10.0588
10.005
9.962
9.92988
9.90861
9.89816
86.5857
35.1935
25.1922
21.2255
19.1067
17.7808
16.8615
16.1738
15.6276
15.172
14.7765
14.4224
14.0977
13.7948
13.5089
13.2367
12.9766
12.7273
12.4883
12.2593
12.0404
11.8317
11.6332
11.4452
11.2678
11.1012
10.9456
10.8011
10.6676
10.5454
10.4343
10.3345
10.2459
10.1685
10.1022
10.0471
10.0032
9.97032
9.94856
9.93788
87.2299
35.5047
25.44
21.448
19.3154
17.98
17.0531
16.3585
15.8056
15.3431
14.9406
14.5792
14.2472
13.9369
13.6435
13.364
13.0965
12.8401
12.5943
12.3588
12.1337
11.919
11.715
11.5219
11.3397
11.1687
11.0091
10.8608
10.724
10.5987
10.485
10.3828
10.2921
10.2128
10.1451
10.0887
10.0438
10.0102
9.98792
9.977
87.8813
35.8206
25.6922
21.6748
19.5283
18.1835
17.2488
16.5472
15.9872
15.5176
15.1078
14.739
14.3993
14.0812
13.7801
13.4929
13.2179
12.9542
12.7013
12.459
12.2275
12.0068
11.7971
11.5987
11.4116
11.2361
11.0723
10.9202
10.78
10.6517
10.5352
10.4305
10.3377
10.2566
10.1873
10.1297
10.0838
10.0494
10.0267
10.0155
88.5385
36.1412
25.949
21.9062
19.7458
18.3913
17.4488
16.7399
16.1727
15.6957
15.2783
14.9017
14.554
14.2279
13.9186
13.6235
13.3407
13.0694
12.8092
12.56
12.3218
12.0949
11.8794
11.6755
11.4834
11.3033
11.1352
10.9793
10.8356
10.7042
10.5849
10.4778
10.3828
10.2999
10.229
10.1701
10.1231
10.088
10.0648
10.0533
89.2033
36.4668
26.2105
22.1423
19.9679
18.6038
17.6532
16.9368
16.3622
15.8776
15.4522
15.0674
14.7114
14.3769
14.0593
13.7558
13.4649
13.1858
12.918
12.6616
12.4166
12.1833
11.9618
11.7523
11.5551
11.3702
11.1979
11.0381
10.8908
10.7562
10.634
10.5244
10.4273
10.3425
10.27
10.2098
10.1618
10.126
10.1022
10.0905
89.8758
36.7976
26.477
22.3834
20.1949
18.821
17.8623
17.1382
16.5558
16.0632
15.6296
15.2363
14.8717
14.5284
14.202
13.8899
13.5906
13.3033
13.0277
12.7639
12.5119
12.2719
12.0443
11.8291
11.6266
11.4369
11.2602
11.0964
10.9455
10.8076
10.6827
10.5705
10.4712
10.3845
10.3104
10.2489
10.1999
10.1632
10.139
10.127
90.5545
37.1337
26.7486
22.6295
20.427
19.0432
18.0761
17.3441
16.7537
16.2528
15.8106
15.4084
15.0347
14.6823
14.3469
14.0258
13.7177
13.422
13.1383
12.8668
12.6076
12.3608
12.1269
11.9058
11.698
11.5034
11.3221
11.1543
10.9998
10.8586
10.7307
10.616
10.5144
10.4258
10.3501
10.2873
10.2372
10.1998
10.175
10.1628
91.2413
37.4753
27.0257
22.881
20.6644
19.2705
18.2949
17.5547
16.956
16.4465
15.9953
15.5839
15.2007
14.8388
14.4938
14.1635
13.8463
13.5418
13.2498
12.9703
12.7036
12.4499
12.2095
11.9825
11.7691
11.5695
11.3837
11.2117
11.0534
10.9089
10.7781
10.6608
10.557
10.4664
10.3891
10.325
10.2738
10.2356
10.2103
10.1978
91.9363