/*--------------------------------*- C++ -*----------------------------------*\
| =========                 |                                                 |
| \\      /  F ield         | OpenFOAM: The Open Source CFD Toolbox           |
|  \\    /   O peration     | Version:  2.3.0                                 |
|   \\  /    A nd           | Web:      www.OpenFOAM.org                      |
|    \\/     M anipulation  |                                                 |
\*---------------------------------------------------------------------------*/
FoamFile
{
    version     2.0;
    format      ascii;
    class       volScalarField;
    location    "10000";
    object      k;
}
// * * * * * * * * * * * * * * * * * * * * * * * * * * * * * * * * * * * * * //

dimensions      [0 2 -2 0 0 0 0];

internalField   nonuniform List<scalar> 
26600
(
0.0475926
0.0688227
0.0925511
0.114075
0.136789
0.160894
0.186804
0.213439
0.2413
0.269233
0.297765
0.325753
0.353761
0.380724
0.407242
0.432353
0.456687
0.479397
0.501118
0.521143
0.540067
0.557336
0.573481
0.588081
0.601558
0.613695
0.624717
0.634654
0.64347
0.651548
0.658478
0.665064
0.670365
0.675795
0.679607
0.684107
0.686426
0.69026
0.690366
0.81396
0.0441209
0.0471075
0.0482031
0.0489187
0.0498825
0.0504249
0.0510911
0.0519044
0.052848
0.0539015
0.055048
0.0562744
0.0575637
0.0589011
0.0602743
0.0616681
0.063077
0.0644877
0.0658942
0.067286
0.0686572
0.0700004
0.0713117
0.0725866
0.0738231
0.0750195
0.0761743
0.077288
0.07836
0.0793945
0.0803925
0.0813585
0.0822999
0.0832158
0.0841165
0.0849918
0.0858615
0.0866946
0.0874464
0.100941
0.0390561
0.040084
0.0410597
0.0417769
0.0423389
0.0427745
0.0431279
0.0434043
0.0436357
0.0438011
0.0439576
0.0440625
0.0441801
0.0442244
0.0442578
0.0442831
0.0442989
0.0443099
0.0443024
0.0442987
0.044259
0.0442304
0.0441676
0.0441238
0.0440485
0.044
0.0439219
0.0438779
0.043806
0.0437705
0.043706
0.0436813
0.043631
0.0436155
0.0435763
0.0435714
0.0435171
0.0435456
0.0434676
0.0438497
0.0377573
0.0386453
0.039746
0.0405566
0.0411139
0.0415149
0.0418064
0.0420157
0.0421614
0.0422465
0.0422992
0.0423043
0.0423001
0.0422805
0.0422405
0.0421963
0.0421361
0.0420718
0.041991
0.0419154
0.0418288
0.041753
0.0416666
0.0415945
0.0415111
0.0414455
0.0413707
0.0413172
0.0412518
0.0412134
0.0411593
0.0411368
0.0410902
0.0410812
0.0410403
0.0410372
0.0410034
0.0410031
0.0409785
0.0410176
0.037613
0.0379611
0.0385198
0.0390267
0.0394308
0.0397651
0.0400387
0.0402675
0.0404439
0.0405794
0.040672
0.040738
0.0407791
0.0408095
0.0408273
0.0408437
0.040854
0.0408574
0.0408553
0.0408485
0.040836
0.0408234
0.0408072
0.0407946
0.0407785
0.0407685
0.0407501
0.0407376
0.0407182
0.0407066
0.0406939
0.0406814
0.0406751
0.0406748
0.0406758
0.0406815
0.0406867
0.0406997
0.0407222
0.0407152
0.0375607
0.037743
0.0381547
0.0385443
0.0388539
0.0391061
0.039317
0.0395082
0.0396718
0.0398153
0.0399315
0.04003
0.0401141
0.0401902
0.0402645
0.040331
0.0403959
0.0404525
0.0405106
0.0405582
0.0406085
0.0406479
0.0406913
0.0407252
0.0407635
0.0407948
0.0408328
0.0408653
0.040903
0.0409348
0.0409721
0.0410054
0.0410496
0.0410989
0.0411719
0.041257
0.0413963
0.041544
0.0418812
0.0412919
0.0375255
0.0376578
0.0380041
0.0383519
0.0386289
0.0388541
0.0390419
0.0392246
0.0393975
0.0395684
0.0397278
0.039876
0.0400179
0.0401487
0.0402843
0.0404137
0.040562
0.0406984
0.0408615
0.0409968
0.0411609
0.0412812
0.041433
0.0415346
0.0416748
0.0417684
0.0419125
0.0420107
0.0421734
0.0422907
0.0424963
0.0426746
0.0429982
0.0433139
0.0439187
0.0445029
0.045661
0.0466741
0.0492974
0.0453342
0.0374882
0.0376475
0.0379454
0.038321
0.0386202
0.0388738
0.0390706
0.0392905
0.0395172
0.0397903
0.0400741
0.0403683
0.0406549
0.0409214
0.0411808
0.0414226
0.0416796
0.0419191
0.0422007
0.0424324
0.0427291
0.0429298
0.0432295
0.0434057
0.0437268
0.0439443
0.0443513
0.0446761
0.0452889
0.0458485
0.0469295
0.0479953
0.0501488
0.0522496
0.0566428
0.060604
0.0690022
0.0756238
0.0928655
0.0713715
0.0374676
0.0376595
0.0379367
0.0383961
0.0387701
0.0391278
0.0393737
0.0397065
0.040036
0.0405185
0.041001
0.0415552
0.0420328
0.0425036
0.0428767
0.0432641
0.0435979
0.0439899
0.044373
0.0448004
0.0452616
0.0457033
0.0463116
0.0468182
0.047768
0.0486413
0.050322
0.0519916
0.0552662
0.0585755
0.0652776
0.0718184
0.0856484
0.0980648
0.124753
0.146125
0.191972
0.223805
0.302853
0.219965
0.0374464
0.0377105
0.0380329
0.0386371
0.0391676
0.0397077
0.0400365
0.0405375
0.0409855
0.0417739
0.0424931
0.0434177
0.0440794
0.0448337
0.0452699
0.0459193
0.0463298
0.0471248
0.0477072
0.0488562
0.0497772
0.051499
0.0532762
0.0560251
0.0603439
0.0654336
0.0746345
0.0846543
0.10333
0.122172
0.158065
0.191613
0.258232
0.311944
0.418367
0.491916
0.636337
0.722851
0.912976
0.864414
0.0374645
0.03781
0.038292
0.0391464
0.0399905
0.0407641
0.0411996
0.0418274
0.0423694
0.0435178
0.0445414
0.0459647
0.0468881
0.0480612
0.0487772
0.0500826
0.0512082
0.0534549
0.0556516
0.0599726
0.0643388
0.0725752
0.0817343
0.0994916
0.118262
0.152349
0.189985
0.250308
0.317579
0.412253
0.512376
0.654389
0.798513
0.962062
1.11214
1.26224
1.39806
1.5067
1.62027
1.66508
0.0375141
0.0380363
0.0388241
0.0401279
0.0414707
0.0424361
0.0429369
0.0435448
0.0442259
0.0459929
0.0477728
0.0502059
0.0519074
0.0543579
0.0567511
0.0613065
0.0667557
0.0774167
0.089004
0.111045
0.133766
0.173713
0.222695
0.297106
0.387564
0.498978
0.63904
0.805863
0.966328
1.13434
1.28301
1.40882
1.49594
1.58732
1.64614
1.72305
1.7617
1.82674
1.85547
1.91711
0.0376148
0.0384697
0.0399439
0.0419515
0.0437578
0.0447698
0.0452335
0.0461095
0.0475451
0.0518725
0.0567417
0.0629902
0.0687409
0.0776465
0.0896444
0.112316
0.142624
0.191571
0.252401
0.340654
0.44175
0.578675
0.750369
0.938547
1.12014
1.29749
1.42204
1.51208
1.57067
1.62103
1.64445
1.67838
1.6987
1.73585
1.75153
1.79001
1.78986
1.81018
1.81849
1.8748
0.0379033
0.0396761
0.0422252
0.0449115
0.0467364
0.0478584
0.0490023
0.0524219
0.0604537
0.0785051
0.0991018
0.123902
0.151337
0.189106
0.252166
0.351516
0.47091
0.642143
0.847535
1.0564
1.26809
1.43958
1.55006
1.62286
1.66231
1.67828
1.69128
1.69146
1.68472
1.67236
1.65339
1.62879
1.59995
1.57931
1.55515
1.53722
1.50669
1.50111
1.49714
1.55773
0.0390959
0.0425947
0.0458761
0.0488041
0.0507314
0.0545137
0.0609915
0.081289
0.136797
0.22005
0.307842
0.406483
0.51347
0.654311
0.874465
1.10331
1.35145
1.53995
1.65459
1.73648
1.76004
1.77914
1.77209
1.75232
1.7132
1.66326
1.59897
1.52741
1.45497
1.38147
1.3156
1.25679
1.20849
1.17177
1.13814
1.12342
1.08697
1.08677
1.08857
1.14156
0.042173
0.0464557
0.0501407
0.0552104
0.0620327
0.0824587
0.123629
0.253141
0.510942
0.794267
1.05396
1.31278
1.52919
1.68516
1.77271
1.80974
1.82975
1.84431
1.83396
1.80871
1.76134
1.6808
1.57411
1.46589
1.35063
1.23727
1.13021
1.03259
0.951322
0.876436
0.822464
0.777062
0.748856
0.727292
0.709816
0.718509
0.718825
0.74209
0.751004
0.801733
0.044112
0.0469295
0.0607402
0.0878574
0.131574
0.234829
0.444218
1.00008
1.5457
1.92375
2.11123
2.1842
2.14828
2.05813
1.96021
1.8601
1.75087
1.6428
1.51865
1.38881
1.26014
1.1325
1.01403
0.901434
0.799002
0.716775
0.649977
0.596217
0.556593
0.525097
0.506733
0.49388
0.491235
0.494348
0.501503
0.519611
0.535284
0.562897
0.577516
0.615285
0.0376952
0.0565832
0.176036
0.31448
0.532261
0.894564
1.60013
1.98781
2.23353
2.3408
2.32681
2.24315
2.02902
1.75384
1.48656
1.26275
1.10727
0.981669
0.895132
0.823907
0.758912
0.696254
0.638049
0.583846
0.534657
0.494007
0.460979
0.435178
0.417585
0.406289
0.402968
0.401924
0.404146
0.413456
0.426179
0.443811
0.461113
0.483858
0.500414
0.527872
0.0350818
0.274967
0.971661
1.41614
1.89766
1.97506
2.23177
2.21911
2.16258
2.02723
1.7873
1.46574
1.14864
0.906755
0.775464
0.706742
0.672562
0.648329
0.62801
0.606084
0.580659
0.552123
0.522571
0.493102
0.465953
0.441648
0.420353
0.403137
0.391569
0.38531
0.384329
0.384404
0.387035
0.396101
0.407287
0.421123
0.435454
0.452671
0.466916
0.487324
0.0462494
1.2
2.21219
2.51907
2.4008
2.01839
1.61432
1.28085
1.06649
0.854972
0.708293
0.597336
0.536499
0.505619
0.51469
0.534253
0.552107
0.561602
0.563861
0.559184
0.546639
0.528711
0.507825
0.485434
0.46379
0.4448
0.427992
0.413883
0.403006
0.395753
0.393072
0.391939
0.392709
0.398021
0.405604
0.415439
0.42629
0.439157
0.450529
0.466214
0.0884441
0.812225
0.91575
0.93532
0.799085
0.632011
0.499715
0.412093
0.374199
0.332813
0.321579
0.340961
0.3846
0.427645
0.47104
0.510303
0.540484
0.558768
0.566944
0.56848
0.56351
0.551413
0.534977
0.515916
0.49568
0.475671
0.456848
0.439962
0.425721
0.41434
0.406164
0.401237
0.399725
0.401284
0.405538
0.411728
0.419097
0.42837
0.43729
0.450224
0.0462699
0.0982765
0.187138
0.234915
0.238816
0.237785
0.229543
0.227445
0.233846
0.24538
0.270172
0.319754
0.379383
0.44111
0.498081
0.54421
0.577659
0.59735
0.605362
0.60668
0.601294
0.587612
0.569237
0.547758
0.524752
0.50071
0.477639
0.456421
0.437706
0.422544
0.411207
0.403536
0.399232
0.398246
0.399383
0.4025
0.407276
0.414504
0.42221
0.432798
0.0882254
0.109563
0.126326
0.149201
0.166586
0.181973
0.195474
0.210062
0.225619
0.251411
0.302441
0.371957
0.443403
0.507896
0.561727
0.60191
0.62905
0.643116
0.647603
0.646728
0.63672
0.618429
0.595057
0.568626
0.540711
0.512187
0.485829
0.461712
0.440283
0.422513
0.407745
0.396584
0.389258
0.385803
0.385567
0.386909
0.390639
0.396706
0.403419
0.412216
0.0787876
0.0986698
0.108242
0.121505
0.139155
0.16241
0.185587
0.21119
0.249637
0.310173
0.384727
0.461445
0.530039
0.586677
0.630387
0.659578
0.675906
0.681237
0.681646
0.674741
0.657175
0.633216
0.60565
0.575821
0.544844
0.513714
0.484539
0.457048
0.432226
0.410899
0.393413
0.380061
0.371055
0.366524
0.365886
0.366834
0.370195
0.375648
0.381697
0.388985
0.0618954
0.0883581
0.101152
0.112781
0.131914
0.163808
0.211914
0.272264
0.348447
0.42904
0.504748
0.569989
0.621265
0.659448
0.684029
0.697243
0.700842
0.701441
0.697556
0.683125
0.661525
0.634268
0.603663
0.570592
0.536456
0.502477
0.470062
0.440057
0.413245
0.390236
0.371537
0.357372
0.348138
0.343771
0.343224
0.344415
0.347855
0.35299
0.3586
0.364979
0.0529396
0.0922017
0.112606
0.132292
0.164548
0.239665
0.33573
0.431948
0.515864
0.580119
0.62689
0.658474
0.679637
0.693711
0.704555
0.705247
0.705737
0.702591
0.692736
0.67322
0.647787
0.617634
0.584332
0.549178
0.513416
0.478228
0.444814
0.414062
0.386828
0.363546
0.344963
0.331639
0.32356
0.32023
0.320078
0.32174
0.325353
0.330274
0.335602
0.341527
0.0763898
0.195664
0.246205
0.286947
0.351819
0.466475
0.568232
0.62612
0.658175
0.676026
0.682941
0.690955
0.694293
0.691764
0.694588
0.689037
0.684514
0.679145
0.663586
0.641651
0.614569
0.583502
0.549736
0.514518
0.479038
0.444382
0.411677
0.381586
0.355145
0.333359
0.316888
0.305839
0.29973
0.297675
0.298038
0.300189
0.303899
0.308647
0.313852
0.319775
0.329256
0.596036
0.64242
0.66671
0.672352
0.696219
0.709401
0.706495
0.701954
0.696468
0.683981
0.673324
0.659486
0.649786
0.647252
0.646179
0.637088
0.630055
0.61355
0.591646
0.565271
0.535448
0.503283
0.469904
0.436371
0.403609
0.372784
0.345051
0.321582
0.303233
0.290225
0.28213
0.278087
0.277268
0.278065
0.280529
0.284243
0.288884
0.294114
0.300122
0.65048
0.886636
0.870967
0.81219
0.776862
0.743581
0.710986
0.687436
0.656782
0.631105
0.608331
0.594193
0.576066
0.577288
0.573681
0.574518
0.568849
0.562868
0.548132
0.528587
0.504949
0.478134
0.449081
0.418814
0.388424
0.359039
0.331975
0.308556
0.289803
0.276055
0.266938
0.261676
0.259412
0.259287
0.260493
0.263092
0.266799
0.271462
0.276921
0.283325
0.278285
0.558468
0.646422
0.608
0.573264
0.545053
0.528087
0.513498
0.496061
0.484851
0.467483
0.472473
0.469578
0.476639
0.482141
0.486713
0.489631
0.486566
0.475273
0.459552
0.439797
0.416875
0.391809
0.36567
0.33965
0.315095
0.293443
0.275808
0.262618
0.253548
0.247854
0.244767
0.24369
0.243957
0.245355
0.247997
0.251759
0.256615
0.262509
0.269546
0.0691147
0.211514
0.268104
0.279747
0.262345
0.277952
0.296311
0.302566
0.304514
0.315379
0.325314
0.341147
0.35695
0.373231
0.387459
0.39924
0.408239
0.409843
0.403827
0.391821
0.375938
0.357103
0.336415
0.315077
0.294454
0.275973
0.260789
0.249355
0.241376
0.23613
0.232883
0.231141
0.230656
0.231087
0.232522
0.235209
0.239143
0.24436
0.250839
0.258621
0.0407966
0.0763531
0.0949429
0.102733
0.103764
0.119874
0.137714
0.153152
0.163917
0.182607
0.206944
0.234506
0.261603
0.286347
0.30716
0.323852
0.336216
0.341945
0.339958
0.331036
0.318488
0.303464
0.287242
0.271184
0.256677
0.244809
0.236006
0.229958
0.225958
0.22328
0.221442
0.220304
0.219957
0.220393
0.22181
0.224602
0.228835
0.234541
0.241682
0.250219
0.0390442
0.048361
0.0545506
0.059031
0.0629028
0.0710725
0.0801655
0.0896949
0.101473
0.119556
0.14378
0.171776
0.200617
0.227577
0.250378
0.268648
0.281967
0.288388
0.287751
0.280998
0.270983
0.25932
0.2475
0.23689
0.228506
0.222681
0.21905
0.216862
0.21538
0.214099
0.212826
0.211765
0.211267
0.211609
0.213015
0.215987
0.220622
0.226885
0.234691
0.243923
0.0385019
0.0421571
0.0456993
0.0498139
0.0546305
0.0606038
0.0670651
0.0745844
0.0849388
0.100338
0.121128
0.145673
0.171373
0.195642
0.21675
0.233713
0.245135
0.249943
0.24907
0.243208
0.234951
0.226204
0.218536
0.212975
0.209807
0.208595
0.208489
0.208628
0.208447
0.207702
0.206392
0.205077
0.204278
0.20448
0.205919
0.20915
0.214235
0.221062
0.229481
0.239311
0.038093
0.0400244
0.0427756
0.0469735
0.0522899
0.0583693
0.0650472
0.0728723
0.0831436
0.0974226
0.116123
0.137784
0.160329
0.181538
0.1999
0.213868
0.222168
0.224574
0.222677
0.216875
0.20984
0.203584
0.199538
0.198083
0.198704
0.200528
0.202452
0.203756
0.204011
0.203251
0.201604
0.199874
0.198727
0.198787
0.200316
0.203847
0.209383
0.216731
0.22568
0.235999
0.0378128
0.0390457
0.0412781
0.0453974
0.0510398
0.0576614
0.0652118
0.074162
0.0852389
0.0993846
0.116944
0.136967
0.157558
0.176527
0.192294
0.203253
0.208567
0.20885
0.205671
0.199702
0.193589
0.189347
0.188282
0.189664
0.192857
0.196449
0.199418
0.201162
0.201354
0.200213
0.198084
0.195888
0.194409
0.19435
0.195996
0.199835
0.205784
0.213581
0.222963
0.233667
0.0376673
0.0385205
0.0403651
0.0441475
0.0499228
0.0571153
0.0657023
0.0759401
0.0881323
0.10274
0.119872
0.138802
0.158037
0.175451
0.189087
0.197589
0.200409
0.199421
0.195111
0.189012
0.183677
0.18123
0.181974
0.185437
0.19013
0.194692
0.198131
0.199901
0.199835
0.198199
0.195564
0.192922
0.191154
0.191009
0.192779
0.196899
0.203195
0.211354
0.221071
0.232063
0.0375825
0.0382112
0.0397961
0.0431825
0.048932
0.0565804
0.0661142
0.0775481
0.0908136
0.106001
0.123043
0.141357
0.159664
0.175742
0.18775
0.194419
0.1955
0.19373
0.188706
0.182609
0.177858
0.176752
0.178744
0.183435
0.189006
0.194083
0.197708
0.199372
0.199023
0.196925
0.193851
0.190841
0.188846
0.188646
0.190524
0.194866
0.201427
0.209851
0.219809
0.231002
0.0375352
0.0380286
0.0394471
0.0425504
0.048222
0.0561872
0.0664384
0.0787784
0.0928414
0.108455
0.125443
0.143402
0.160998
0.176174
0.187114
0.192566
0.192933
0.19061
0.18528
0.179239
0.174913
0.174383
0.177112
0.182438
0.188473
0.19382
0.197529
0.19911
0.198568
0.196165
0.192802
0.189553
0.187415
0.187185
0.189138
0.193625
0.200352
0.208942
0.219048
0.230363
0.037513
0.0379354
0.0392793
0.0422476
0.047869
0.0559955
0.0666067
0.0793799
0.093787
0.10952
0.126369
0.144066
0.161286
0.176117
0.186764
0.191932
0.192144
0.189745
0.184386
0.178315
0.173934
0.173407
0.176168
0.181601
0.187767
0.193238
0.197037
0.198673
0.198136
0.1957
0.192283
0.188983
0.186816
0.186587
0.188574
0.193117
0.199905
0.208556
0.218717
0.230079
0.342217
0.582523
0.719972
0.816642
0.893226
0.957588
1.01351
1.06313
1.10775
1.14825
1.18526
1.21924
1.25054
1.27944
1.30616
1.3309
1.35382
1.37504
1.3947
1.41289
1.42972
1.44526
1.45961
1.47281
1.48495
1.49607
1.50624
1.51549
1.52387
1.53143
1.53819
1.54419
1.54945
1.55401
1.55787
1.56107
1.56361
1.56552
1.56678
1.56742
0.344285
0.586813
0.724331
0.820814
0.897196
0.96138
1.01716
1.06664
1.11115
1.15155
1.18847
1.22237
1.2536
1.28243
1.30909
1.33377
1.35662
1.37779
1.3974
1.41554
1.43232
1.44782
1.46212
1.47529
1.48739
1.49848
1.50861
1.51784
1.52619
1.53372
1.54046
1.54643
1.55168
1.55622
1.56007
1.56326
1.56579
1.56769
1.56895
1.56959
0.345249
0.589723
0.728367
0.825399
0.902043
0.966346
1.02217
1.07165
1.11614
1.15651
1.19339
1.22723
1.25841
1.28718
1.31378
1.3384
1.3612
1.38231
1.40185
1.41994
1.43666
1.45211
1.46636
1.47947
1.49152
1.50256
1.51265
1.52183
1.53015
1.53764
1.54434
1.55029
1.55551
1.56002
1.56386
1.56703
1.56955
1.57143
1.57269
1.57333
0.346959
0.593236
0.732637
0.830186
0.907196
0.971752
1.02774
1.07735
1.12191
1.16232
1.19922
1.23307
1.26423
1.29298
1.31955
1.34413
1.36689
1.38795
1.40745
1.42549
1.44216
1.45755
1.47175
1.48481
1.49681
1.5078
1.51784
1.52698
1.53525
1.54271
1.54937
1.55529
1.56048
1.56497
1.56878
1.57193
1.57444
1.57631
1.57756
1.5782
0.348259
0.596555
0.736903
0.835045
0.91248
0.977357
1.03359
1.08338
1.12808
1.16859
1.20556
1.23946
1.27065
1.29942
1.32599
1.35056
1.37329
1.39433
1.4138
1.4318
1.44843
1.46378
1.47793
1.49095
1.5029
1.51385
1.52385
1.53294
1.54118
1.54859
1.55522
1.56111
1.56627
1.57073
1.57452
1.57766
1.58015
1.58201
1.58325
1.58388
0.349862
0.600046
0.741251
0.839974
0.917851
0.983076
1.03959
1.0896
1.13448
1.17513
1.21221
1.24619
1.27744
1.30625
1.33285
1.35743
1.38017
1.4012
1.42064
1.43862
1.45522
1.47054
1.48466
1.49764
1.50956
1.52047
1.53042
1.53948
1.54768
1.55506
1.56166
1.56751
1.57264
1.57708
1.58085
1.58397
1.58645
1.5883
1.58954
1.59016
0.351323
0.60349
0.745625
0.844953
0.923286
0.988875
1.04569
1.09594
1.14102
1.18184
1.21906
1.25315
1.28448
1.31335
1.33999
1.3646
1.38735
1.40839
1.42783
1.4458
1.46238
1.47768
1.49177
1.50472
1.5166
1.52748
1.5374
1.54643
1.55459
1.56194
1.56851
1.57434
1.57944
1.58386
1.58761
1.59071
1.59318
1.59502
1.59625
1.59687
0.352901
0.607033
0.750057
0.849984
0.928778
0.994741
1.05186
1.10238
1.14767
1.18867
1.22603
1.26025
1.29168
1.32062
1.34732
1.37198
1.39476
1.41581
1.43526
1.45322
1.4698
1.48508
1.49915
1.51207
1.52393
1.53478
1.54467
1.55367
1.5618
1.56912
1.57567
1.58147
1.58655
1.59095
1.59468
1.59776
1.60022
1.60205
1.60328
1.6039
0.35444
0.610566
0.754522
0.855061
0.934324
1.00067
1.0581
1.10889
1.1544
1.1956
1.23312
1.26746
1.299
1.32803
1.3548
1.3795
1.40232
1.4234
1.44286
1.46083
1.4774
1.49267
1.50672
1.51963
1.53147
1.54229
1.55216
1.56112
1.56923
1.57653
1.58304
1.58882
1.59388
1.59826
1.60197
1.60504
1.60749
1.60931
1.61053
1.61115
0.356027
0.614171
0.759037
0.860188
0.939921
1.00665
1.06441
1.11546
1.16121
1.2026
1.24028
1.27477
1.30642
1.33554
1.36238
1.38715
1.41001
1.43111
1.45059
1.46857
1.48514
1.5004
1.51444
1.52734
1.53915
1.54995
1.5598
1.56874
1.57682
1.58409
1.59059
1.59634
1.60138
1.60574
1.60944
1.6125
1.61493
1.61675
1.61796
1.61858
0.357615
0.617782
0.763589
0.865361
0.94557
1.01269
1.07077
1.1221
1.16808
1.20967
1.24753
1.28215
1.31392
1.34314
1.37006
1.39488
1.41779
1.43893
1.45843
1.47641
1.49299
1.50825
1.52228
1.53516
1.54696
1.55774
1.56756
1.57648
1.58454
1.59179
1.59826
1.60399
1.60901
1.61336
1.61704
1.62008
1.6225
1.62431
1.62552
1.62614
0.359222
0.621453
0.768189
0.870582
0.951271
1.01878
1.07719
1.1288
1.17502
1.21681
1.25484
1.28961
1.3215
1.35082
1.37782
1.4027
1.42566
1.44683
1.46635
1.48435
1.50093
1.51619
1.53021
1.54308
1.55486
1.56562
1.57542
1.58432
1.59235
1.59958
1.60603
1.61174
1.61674
1.62107
1.62473
1.62776
1.63018
1.63198
1.63319
1.6338
0.360844
0.625139
0.772828
0.875851
0.957024
1.02493
1.08367
1.13556
1.18202
1.22402
1.26222
1.29714
1.32915
1.35857
1.38565
1.4106
1.4336
1.4548
1.47435
1.49236
1.50895
1.52421
1.53822
1.55107
1.56284
1.57358
1.58336
1.59223
1.60025
1.60745
1.61388
1.61957
1.62455
1.62886
1.63251
1.63553
1.63793
1.63972
1.64093
1.64154
0.362477
0.628875
0.777513
0.88117
0.96283
1.03113
1.09021
1.14238
1.18909
1.23129
1.26967
1.30473
1.33687
1.36639
1.39355
1.41856
1.44161
1.46285
1.48242
1.50045
1.51704
1.53229
1.54629
1.55913
1.57088
1.5816
1.59136
1.60021
1.6082
1.61538
1.62179
1.62746
1.63242
1.63671
1.64035
1.64335
1.64574
1.64753
1.64873
1.64934
0.364126
0.632636
0.782239
0.886536
0.968689
1.03739
1.09681
1.14927
1.19622
1.23863
1.27718
1.31239
1.34465
1.37427
1.40151
1.42659
1.44969
1.47096
1.49056
1.50859
1.52519
1.54044
1.55443
1.56726
1.57899
1.58969
1.59942
1.60825
1.61622
1.62337
1.62976
1.63541
1.64035
1.64462
1.64824
1.65123
1.65361
1.6554
1.65659
1.6572
0.365787
0.636441
0.787012
0.891953
0.974602
1.04371
1.10346
1.15621
1.20341
1.24602
1.28476
1.32012
1.3525
1.38222
1.40954
1.43468
1.45783
1.47913
1.49875
1.5168
1.53339
1.54864
1.56262
1.57543
1.58714
1.59782
1.60754
1.61634
1.62428
1.63141
1.63777
1.6434
1.64832
1.65258
1.65618
1.65916
1.66153
1.6633
1.66449
1.6651
0.367464
0.640273
0.791828
0.897421
0.980569
1.05008
1.11018
1.16322
1.21066
1.25349
1.2924
1.32791
1.36041
1.39023
1.41764
1.44284
1.46603
1.48737
1.507
1.52506
1.54166
1.5569
1.57087
1.58366
1.59535
1.60601
1.6157
1.62447
1.63239
1.6395
1.64583
1.65144
1.65634
1.66057
1.66416
1.66713
1.66948
1.67125
1.67243
1.67304
0.369149
0.64415
0.796689
0.902938
0.986592
1.05652
1.11696
1.17029
1.21798
1.26102
1.30011
1.33576
1.36839
1.39831
1.42579
1.45106
1.47429
1.49566
1.51531
1.53338
1.54998
1.56521
1.57917
1.59194
1.60361
1.61424
1.6239
1.63265
1.64054
1.64762
1.65393
1.65951
1.66439
1.66861
1.67218
1.67513
1.67747
1.67923
1.68041
1.68101
0.370853
0.648056
0.801596
0.908508
0.99267
1.06301
1.1238
1.17742
1.22536
1.26862
1.30788
1.34368
1.37643
1.40646
1.43401
1.45933
1.48261
1.50401
1.52368
1.54175
1.55835
1.57357
1.58751
1.60026
1.61191
1.62251
1.63215
1.64087
1.64873
1.65578
1.66207
1.66762
1.67248
1.67667
1.68023
1.68316
1.68549
1.68724
1.68841
1.68902
0.372566
0.652004
0.80655
0.914129
0.998805
1.06956
1.1307
1.18462
1.23282
1.27628
1.31572
1.35167
1.38454
1.41466
1.4423
1.46768
1.49099
1.51242
1.5321
1.55018
1.56677
1.58198
1.5959
1.60863
1.62025
1.63083
1.64043
1.64913
1.65696
1.66398
1.67024
1.67576
1.6806
1.68477
1.6883
1.69122
1.69355
1.69528
1.69645
1.69705
0.374294
0.655987
0.811549
0.919803
1.005
1.07618
1.13767
1.19189
1.24033
1.28401
1.32363
1.35973
1.39272
1.42293
1.45064
1.47608
1.49943
1.52088
1.54058
1.55866
1.57524
1.59043
1.60434
1.61705
1.62864
1.63919
1.64876
1.65742
1.66522
1.67221
1.67844
1.68394
1.68875
1.6929
1.69641
1.69932
1.70162
1.70335
1.70451
1.70511
0.376035
0.660008
0.816596
0.925531
1.01125
1.08286
1.1447
1.19922
1.24792
1.29181
1.33161
1.36785
1.40096
1.43127
1.45905
1.48454
1.50794
1.52941
1.54911
1.56719
1.58376
1.59894
1.61282
1.6255
1.63706
1.64758
1.65712
1.66575
1.67351
1.68047
1.68667
1.69214
1.69693
1.70105
1.70455
1.70743
1.70973
1.71145
1.7126
1.7132
0.377789
0.664066
0.82169
0.931314
1.01756
1.0896
1.1518
1.20662
1.25557
1.29967
1.33965
1.37604
1.40927
1.43968
1.46753
1.49307
1.5165
1.53799
1.5577
1.57577
1.59233
1.60749
1.62135
1.634
1.64553
1.65601
1.66552
1.67411
1.68184
1.68877
1.69493
1.70037
1.70513
1.70923
1.71271
1.71558
1.71786
1.71957
1.72071
1.72131
0.379555
0.668165
0.826833
0.937151
1.02393
1.0964
1.15896
1.21409
1.26329
1.30761
1.34777
1.38431
1.41765
1.44814
1.47607
1.50165
1.52511
1.54662
1.56634
1.58441
1.60095
1.61609
1.62992
1.64254
1.65403
1.66448
1.67395
1.6825
1.6902
1.69709
1.70322
1.70863
1.71336
1.71744
1.72089
1.72374
1.72601
1.72771
1.72885
1.72944
0.381337
0.672301
0.832026
0.943044
1.03036
1.10327
1.1662
1.22162
1.27109
1.31562
1.35595
1.39264
1.4261
1.45668
1.48467
1.5103
1.53379
1.55532
1.57504
1.5931
1.60962
1.62473
1.63853
1.65112
1.66258
1.67298
1.68241
1.69093
1.69859
1.70544
1.71154
1.71692
1.72162
1.72567
1.7291
1.73193
1.73418
1.73587
1.737
1.73759
0.383131
0.676477
0.837268
0.948993
1.03685
1.1102
1.1735
1.22923
1.27895
1.3237
1.36421
1.40104
1.43461
1.46528
1.49334
1.51902
1.54253
1.56407
1.58379
1.60183
1.61834
1.63342
1.64719
1.65974
1.67116
1.68152
1.69091
1.69939
1.707
1.71382
1.71988
1.72523
1.7299
1.73392
1.73733
1.74014
1.74238
1.74405
1.74518
1.74577
0.384937
0.680694
0.84256
0.955
1.04341
1.1172
1.18087
1.23691
1.28689
1.33185
1.37254
1.40951
1.4432
1.47395
1.50207
1.52779
1.55133
1.57287
1.59259
1.61062
1.6271
1.64216
1.65589
1.6684
1.67977
1.6901
1.69944
1.70787
1.71545
1.72223
1.72825
1.73356
1.7382
1.7422
1.74558
1.74837
1.75059
1.75226
1.75338
1.75396
0.386759
0.68495
0.847904
0.961065
1.05003
1.12427
1.18831
1.24466
1.2949
1.34008
1.38094
1.41805
1.45185
1.48269
1.51086
1.53662
1.56018
1.58173
1.60144
1.61946
1.63591
1.65093
1.66463
1.6771
1.68843
1.69871
1.708
1.71639
1.72392
1.73066
1.73664
1.74192
1.74652
1.75049
1.75385
1.75662
1.75882
1.76048
1.76159
1.76217
0.388593
0.689248
0.8533
0.96719
1.05671
1.1314
1.19582
1.25248
1.30299
1.34838
1.38941
1.42667
1.46057
1.49149
1.51973
1.54552
1.5691
1.59065
1.61035
1.62834
1.64477
1.65975
1.67341
1.68583
1.69712
1.70735
1.7166
1.72494
1.73242
1.73911
1.74506
1.7503
1.75487
1.75881
1.76214
1.76489
1.76708
1.76872
1.76982
1.7704
0.39044
0.693589
0.858748
0.973374
1.06346
1.13861
1.2034
1.26038
1.31115
1.35675
1.39796
1.43535
1.46937
1.50037
1.52865
1.55448
1.57807
1.59963
1.61931
1.63728
1.65367
1.66862
1.68223
1.6946
1.70584
1.71602
1.72522
1.73351
1.74095
1.7476
1.7535
1.7587
1.76323
1.76714
1.77045
1.77317
1.77534
1.77697
1.77807
1.77864
0.392303
0.69797
0.86425
0.97962
1.07027
1.14589
1.21106
1.26836
1.31938
1.3652
1.40659
1.44411
1.47823
1.50931
1.53764
1.5635
1.58711
1.60865
1.62832
1.64626
1.66262
1.67752
1.69108
1.70341
1.71459
1.72472
1.73387
1.74211
1.7495
1.7561
1.76196
1.76712
1.77162
1.77549
1.77877
1.78148
1.78363
1.78524
1.78633
1.7869
0.394178
0.702395
0.869806
0.985927
1.07716
1.15323
1.21879
1.27641
1.32769
1.37373
1.41529
1.45295
1.48717
1.51832
1.5467
1.57259
1.5962
1.61774
1.63738
1.65529
1.67161
1.68647
1.69998
1.71225
1.72338
1.73345
1.74254
1.75073
1.75807
1.76462
1.77044
1.77556
1.78002
1.78386
1.78711
1.78979
1.79193
1.79353
1.79461
1.79517
0.396067
0.706865
0.875418
0.992297
1.08411
1.16065
1.2266
1.28453
1.33608
1.38234
1.42406
1.46186
1.49618
1.5274
1.55583
1.58173
1.60535
1.62688
1.6465
1.66437
1.68065
1.69545
1.70891
1.72112
1.7322
1.74221
1.75125
1.75938
1.76667
1.77317
1.77894
1.78401
1.78844
1.79225
1.79547
1.79813
1.80024
1.80183
1.8029
1.80346
0.397972
0.711377
0.881086
0.998732
1.09113
1.16815
1.23448
1.29274
1.34456
1.39102
1.43292
1.47084
1.50526
1.53655
1.56502
1.59094
1.61456
1.63607
1.65566
1.6735
1.68972
1.70448
1.71788
1.73003
1.74104
1.751
1.75997
1.76805
1.77528
1.78173
1.78745
1.79249
1.79687
1.80065
1.80384
1.80647
1.80857
1.81014
1.8112
1.81176
0.39989
0.715935
0.886811
1.00523
1.09822
1.17572
1.24244
1.30103
1.35311
1.39978
1.44185
1.47991
1.51442
1.54576
1.57427
1.60021
1.62382
1.64532
1.66487
1.68267
1.69884
1.71354
1.72688
1.73897
1.74992
1.75981
1.76873
1.77674
1.78392
1.79032
1.79599
1.80098
1.80532
1.80906
1.81222
1.81483
1.8169
1.81846
1.81951
1.82006
0.401821
0.72054
0.892593
1.0118
1.10539
1.18337
1.25049
1.30939
1.36174
1.40863
1.45086
1.48904
1.52364
1.55505
1.58359
1.60955
1.63315
1.65461
1.67414
1.69188
1.708
1.72264
1.73592
1.74794
1.75882
1.76865
1.7775
1.78545
1.79257
1.79892
1.80454
1.80948
1.81378
1.81749
1.82062
1.8232
1.82525
1.82679
1.82784
1.82838
0.403769
0.72519
0.898436
1.01843
1.11263
1.19109
1.25861
1.31784
1.37045
1.41755
1.45995
1.49826
1.53295
1.56441
1.59298
1.61894
1.64253
1.66397
1.68345
1.70114
1.7172
1.73178
1.74499
1.75694
1.76776
1.77751
1.7863
1.79419
1.80124
1.80753
1.8131
1.818
1.82226
1.82593
1.82902
1.83158
1.83361
1.83514
1.83617
1.83671
0.405731
0.729888
0.904339
1.02513
1.11994
1.1989
1.26682
1.32638
1.37925
1.42656
1.46912
1.50755
1.54232
1.57384
1.60244
1.6284
1.65197
1.67337
1.6928
1.71044
1.72644
1.74095
1.75409
1.76597
1.77671
1.7864
1.79511
1.80294
1.80993
1.81616
1.82168
1.82653
1.83075
1.83437
1.83744
1.83997
1.84198
1.84349
1.84451
1.84505
0.407706
0.734635
0.910302
1.03191
1.12733
1.20678
1.27511
1.335
1.38813
1.43566
1.47838
1.51692
1.55177
1.58334
1.61196
1.63791
1.66146
1.68283
1.70221
1.71979
1.73572
1.75015
1.76322
1.77503
1.78569
1.79531
1.80395
1.81171
1.81864
1.82481
1.83027
1.83507
1.83924
1.84283
1.84586
1.84836
1.85035
1.85185
1.85286
1.85339
0.409699
0.73943
0.916328
1.03875
1.1348
1.21475
1.28348
1.3437
1.3971
1.44483
1.48771
1.52637
1.5613
1.59291
1.62154
1.64749
1.67101
1.69233
1.71166
1.72917
1.74504
1.75939
1.77238
1.78411
1.7947
1.80423
1.8128
1.82049
1.82736
1.83346
1.83887
1.84362
1.84775
1.8513
1.85429
1.85677
1.85873
1.86021
1.86121
1.86174
0.411705
0.744276
0.922419
1.04567
1.14235
1.22281
1.29194
1.35249
1.40616
1.4541
1.49713
1.5359
1.5709
1.60255
1.63119
1.65713
1.68061
1.70189
1.72116
1.7386
1.75439
1.76866
1.78157
1.79322
1.80372
1.81318
1.82167
1.82929
1.83609
1.84213
1.84748
1.85217
1.85626
1.85977
1.86273
1.86518
1.86712
1.86858
1.86957
1.8701
0.413726
0.749174
0.928574
1.05266
1.14998
1.23094
1.30049
1.36138
1.41531
1.46345
1.50664
1.54551
1.58058
1.61226
1.64091
1.66682
1.69027
1.71149
1.7307
1.74806
1.76377
1.77796
1.79078
1.80235
1.81277
1.82214
1.83056
1.8381
1.84483
1.85081
1.8561
1.86074
1.86478
1.86825
1.87118
1.87359
1.87551
1.87696
1.87794
1.87846
0.415765
0.754123
0.934796
1.05973
1.15769
1.23917
1.30913
1.37035
1.42454
1.47289
1.51622
1.5552
1.59033
1.62204
1.65069
1.67658
1.69999
1.72115
1.74028
1.75757
1.77319
1.78729
1.80002
1.8115
1.82183
1.83112
1.83946
1.84692
1.85358
1.8595
1.86472
1.86931
1.8733
1.87673
1.87962
1.88201
1.88391
1.88533
1.8863
1.88682
0.417819
0.759125
0.941086
1.06687
1.16548
1.24748
1.31787
1.37942
1.43387
1.48242
1.5259
1.56497
1.60016
1.63189
1.66053
1.68639
1.70975
1.73085
1.7499
1.76711
1.78264
1.79665
1.80928
1.82067
1.83091
1.84011
1.84837
1.85575
1.86234
1.86819
1.87336
1.87789
1.88183
1.88522
1.88807
1.89043
1.8923
1.89371
1.89467
1.89518
0.419887
0.764183
0.947445
1.07409
1.17337
1.25589
1.32669
1.38858
1.44329
1.49203
1.53566
1.57483
1.61007
1.64182
1.67044
1.69627
1.71957
1.74059
1.75957
1.77668
1.79212
1.80603
1.81857
1.82986
1.84
1.84912
1.85729
1.86459
1.87111
1.87689
1.88199
1.88647
1.89036
1.8937
1.89652
1.89885
1.9007
1.90209
1.90304
1.90355
0.421974
0.769296
0.953876
1.0814
1.18134
1.26439
1.33561
1.39783
1.45281
1.50174
1.54551
1.58476
1.62005
1.65181
1.68042
1.7062
1.72944
1.75038
1.76927