/*--------------------------------*- C++ -*----------------------------------*\
| =========                 |                                                 |
| \\      /  F ield         | OpenFOAM: The Open Source CFD Toolbox           |
|  \\    /   O peration     | Version:  2.3.0                                 |
|   \\  /    A nd           | Web:      www.OpenFOAM.org                      |
|    \\/     M anipulation  |                                                 |
\*---------------------------------------------------------------------------*/
FoamFile
{
    version     2.0;
    format      ascii;
    class       volScalarField;
    location    "10000";
    object      nut;
}
// * * * * * * * * * * * * * * * * * * * * * * * * * * * * * * * * * * * * * //

dimensions      [0 2 -1 0 0 0 0];

internalField   nonuniform List<scalar> 
26600
(
2.78298e-05
3.42787e-05
4.06987e-05
4.62659e-05
5.18137e-05
5.74638e-05
6.32775e-05
6.90838e-05
7.50044e-05
8.08577e-05
8.67541e-05
9.25373e-05
9.83058e-05
0.000103929
0.000109495
0.000114896
0.000120212
0.000125352
0.000130388
0.000135251
0.000139996
0.000144576
0.000149037
0.000153349
0.000157531
0.000161593
0.000165517
0.000169349
0.000173027
0.000176657
0.00018012
0.000183578
0.000186855
0.000190196
0.000193307
0.00019655
0.000199478
0.000202654
0.000205102
0.00022577
0.000537794
0.000324706
0.000208003
0.000169667
0.000128138
0.000113524
9.59173e-05
8.69619e-05
7.9333e-05
7.29321e-05
6.75982e-05
6.31918e-05
5.95577e-05
5.65752e-05
5.41387e-05
5.21698e-05
5.05865e-05
4.93349e-05
4.83586e-05
4.76216e-05
4.70831e-05
4.67186e-05
4.64997e-05
4.641e-05
4.64288e-05
4.65454e-05
4.67447e-05
4.70192e-05
4.7358e-05
4.77554e-05
4.82037e-05
4.86986e-05
4.92362e-05
4.98126e-05
5.04267e-05
5.10739e-05
5.17529e-05
5.24629e-05
5.32197e-05
5.62165e-05
0.000863524
0.000786778
0.000685929
0.000600069
0.000526575
0.000473577
0.000427972
0.000394113
0.00035847
0.000338541
0.000307547
0.000295208
0.000273254
0.000262543
0.00024981
0.000240667
0.00023213
0.000224259
0.00021696
0.000210398
0.000204199
0.000198755
0.000193602
0.000189145
0.000184896
0.000181288
0.00017782
0.000174953
0.000172169
0.000169925
0.000167681
0.000165923
0.000164097
0.000162674
0.000161114
0.000159953
0.000158383
0.00015751
0.000156037
0.000135396
0.00084618
0.00085965
0.000858998
0.000845277
0.00082389
0.000799551
0.000774431
0.000750037
0.000726557
0.000704866
0.000683837
0.000664498
0.000646739
0.000630895
0.00061454
0.000602486
0.000586817
0.000578025
0.00056513
0.000557877
0.000549008
0.00054286
0.000536857
0.000531548
0.000526366
0.000521916
0.000517606
0.000514033
0.000510432
0.00050757
0.000503973
0.000500951
0.000496884
0.00049352
0.000488845
0.000484816
0.000479321
0.00047434
0.000468234
0.00045541
0.000845104
0.000850589
0.000858459
0.000863439
0.000865391
0.000864476
0.000861687
0.000857437
0.000852137
0.000846377
0.000839994
0.000833837
0.000827333
0.000821566
0.000815586
0.000810503
0.000805544
0.000801068
0.000795625
0.000791693
0.000785618
0.000781915
0.000775517
0.000771842
0.00076494
0.000760771
0.000753069
0.000747324
0.000738071
0.000729413
0.00071686
0.000707009
0.000692526
0.000681311
0.000663683
0.000650366
0.000628274
0.000612866
0.000581759
0.000571715
0.000844571
0.00084737
0.000853662
0.000858658
0.000863376
0.000866263
0.000869039
0.000870643
0.000872106
0.00087295
0.000873301
0.000873784
0.000873287
0.000873626
0.000872602
0.000872329
0.000870251
0.000868698
0.000865001
0.000862552
0.000857254
0.000853228
0.000845112
0.000838794
0.000826351
0.000816764
0.000798567
0.00078475
0.00075935
0.000740319
0.000706397
0.000681044
0.000637408
0.00060667
0.000555069
0.000521824
0.000466121
0.000436329
0.000369576
0.00045251
0.000844229
0.000846255
0.000851894
0.000855799
0.000860797
0.000863406
0.000867096
0.000869279
0.000872643
0.000874868
0.000877683
0.00087992
0.000881454
0.000883435
0.000883204
0.000884002
0.000881505
0.000879902
0.00087255
0.00086641
0.000850959
0.0008383
0.000812234
0.000791499
0.000752811
0.000723387
0.000671876
0.000634712
0.000573404
0.00053138
0.000465894
0.000423537
0.000360779
0.000323045
0.000269721
0.000240728
0.000200942
0.00018267
0.000151641
0.000201424
0.000843501
0.000846335
0.000851315
0.000855155
0.000860944
0.000863246
0.0008679
0.000869705
0.000875132
0.000877307
0.000883063
0.000884011
0.000886532
0.000885037
0.000880421
0.000875234
0.000859111
0.000845251
0.000813183
0.000788138
0.000739071
0.000701887
0.000637974
0.000591224
0.000517908
0.000467943
0.000394729
0.00034896
0.000286165
0.000249812
0.000202425
0.000177273
0.000145968
0.000131393
0.000114785
0.000109125
0.000105232
0.000106725
0.000115177
0.000107034
0.00084306
0.000846606
0.000851423
0.000856144
0.00086329
0.00086689
0.000871702
0.000874433
0.000880279
0.000881793
0.000887275
0.00087857
0.000875466
0.000853076
0.000835696
0.000797117
0.000755344
0.000701446
0.000630027
0.000571991
0.000487225
0.000430009
0.000351736
0.000302611
0.000240513
0.00020502
0.000162551
0.000141032
0.000116378
0.00010577
9.51921e-05
9.32635e-05
9.55067e-05
0.000101847
0.000119014
0.000134836
0.000171223
0.000196986
0.000261899
0.000213254
0.000843491
0.00084703
0.000852627
0.0008598
0.000868955
0.000875033
0.000878556
0.000880037
0.000880006
0.000870058
0.000858684
0.000814938
0.000782933
0.00071877
0.000664168
0.000576944
0.000506673
0.000408885
0.000344888
0.000271557
0.000218951
0.000178225
0.000141
0.000120481
0.000100062
9.13845e-05
8.51326e-05
8.59827e-05
9.19479e-05
0.000101886
0.000123313
0.000145279
0.000190561
0.000228199
0.000304461
0.000358428
0.000465677
0.000527693
0.000666745
0.000635492
0.000843547
0.000848459
0.000855886
0.000868057
0.000880571
0.000886616
0.000880667
0.000865334
0.000835336
0.000777688
0.000704252
0.000597859
0.000526927
0.000434378
0.00036273
0.000278761
0.000222928
0.000163932
0.00013407
0.000105634
9.25595e-05
8.16153e-05
7.95995e-05
8.26127e-05
8.92674e-05
0.000106106
0.000127563
0.000161696
0.000202667
0.000259068
0.00032248
0.000408943
0.000498
0.000601391
0.000698305
0.000799377
0.000898036
0.000982942
0.00108956
0.00112643
0.000844175
0.000851847
0.000865639
0.000885875
0.000897642
0.000880957
0.000836293
0.000747619
0.000646161
0.000509821
0.000373348
0.000282595
0.000224838
0.00017435
0.000139025
0.000107061
9.02719e-05
7.83182e-05
7.59204e-05
8.11388e-05
8.66206e-05
0.000106475
0.000129035
0.000169014
0.000215371
0.00027744
0.000352251
0.000442257
0.000528591
0.000623195
0.000710957
0.000794032
0.000857708
0.000933204
0.00098933
0.00106836
0.00111648
0.00119929
0.00124651
0.00132373
0.00084408
0.000863547
0.000899256
0.000912641
0.000888696
0.000760456
0.000646086
0.000447193
0.000302629
0.000200329
0.000130045
0.000106639
8.73779e-05
7.90375e-05
7.35295e-05
7.7026e-05
8.4489e-05
0.000105689
0.000131268
0.000171676
0.00021841
0.000284754
0.000365268
0.000454754
0.000542639
0.000634735
0.000706726
0.000765387
0.000813257
0.000867792
0.000897656
0.000943795
0.000979286
0.00103431
0.00107531
0.00113948
0.00116951
0.0012155
0.00128813
0.00133193
0.000861392
0.000903574
0.000990291
0.000861639
0.000730364
0.000453528
0.000318792
0.00016845
0.000102622
8.36471e-05
7.433e-05
8.09812e-05
8.3759e-05
9.65368e-05
0.000120292
0.000160405
0.000209215
0.000284626
0.000368614
0.000456492
0.000551391
0.000632443
0.000691585
0.000741323
0.000782771
0.000807413
0.000837945
0.000862817
0.000890401
0.000915153
0.000942995
0.000965951
0.000993255
0.00102297
0.00106013
0.00108775
0.00111844
0.00114843
0.00124337
0.00129279
0.00098019
0.00104861
0.00108111
0.000548633
0.0003622
0.000171889
0.000105935
7.65373e-05
8.36467e-05
0.000113841
0.000140801
0.000176545
0.000208832
0.000262236
0.000340984
0.000423123
0.000522458
0.000604591
0.000659101
0.000718521
0.000744202
0.000774422
0.000795867
0.000818599
0.000833122
0.000847822
0.000857071
0.000861977
0.000868089
0.000869932
0.000880204
0.000893023
0.000918133
0.000946271
0.000980775
0.00102663
0.00104938
0.00109237
0.00119758
0.00125147
0.00152572
0.00107004
0.00062025
0.000178769
0.000112766
7.33547e-05
7.22936e-05
0.000120236
0.000208331
0.000317747
0.000392168
0.000472347
0.0005391
0.000588284
0.000621249
0.000655888
0.000682135
0.000712853
0.000738712
0.000765303
0.000789493
0.000798868
0.000793523
0.000792264
0.00078512
0.0007744
0.000762849
0.000752916
0.000751526
0.000749293
0.000762888
0.000772712
0.000801956
0.000826979
0.000856544
0.000925266
0.000985958
0.00107467
0.00115224
0.00123544
0.00193852
0.000332815
0.000112692
6.95125e-05
7.09956e-05
0.000100773
0.000164343
0.000351686
0.000516919
0.000629573
0.000683023
0.000728004
0.000719815
0.000703179
0.000696496
0.000694115
0.000697135
0.000713982
0.000723003
0.000725382
0.000723911
0.000714282
0.000709616
0.000687569
0.000660318
0.000645002
0.000638332
0.000639819
0.000652388
0.00067061
0.000704684
0.000739698
0.000792086
0.000842382
0.000903805
0.000982214
0.00106939
0.00116412
0.00123497
0.00131882
0.000247582
4.78431e-05
8.45287e-05
0.000117503
0.00017524
0.000271706
0.000463283
0.00056227
0.000662021
0.000726475
0.0007396
0.000745248
0.000713676
0.000669592
0.000629313
0.000603558
0.000617193
0.000617546
0.000634257
0.000653178
0.000669431
0.000679869
0.000690032
0.000696368
0.000700293
0.000707769
0.00071817
0.000732643
0.000754971
0.000784726
0.000828598
0.000869549
0.000914982
0.000967373
0.0010313
0.0011051
0.0011895
0.0012756
0.00135621
0.00143808
1.3521e-05
9.18037e-05
0.000295976
0.000400035
0.000494243
0.000489781
0.000587895
0.000600908
0.000624707
0.000649512
0.000645733
0.000594552
0.00053763
0.000482112
0.000486628
0.000530614
0.000600413
0.000671081
0.000736614
0.00078998
0.000829162
0.000855253
0.00087232
0.000880395
0.000885061
0.000885752
0.000883459
0.000883356
0.000892493
0.000913484
0.000947378
0.000978619
0.0010135
0.00106883
0.00112952
0.00119928
0.00127999
0.00136252
0.00144467
0.00153087
1.54863e-05
0.000327053
0.00054055
0.000598066
0.000583085
0.000519657
0.000468903
0.000435293
0.000436946
0.000390783
0.000369584
0.000364862
0.000401154
0.000463633
0.000572884
0.000694977
0.0008074
0.000896106
0.000965351
0.00101628
0.0010446
0.00105556
0.0010539
0.00104148
0.00102305
0.00101254
0.00100394
0.000998611
0.000998588
0.00100764
0.00103094
0.00105582
0.00108421
0.00113516
0.00119289
0.0012662
0.00134099
0.00142446
0.00150351
0.00159359
1.20115e-05
0.000179874
0.000233943
0.000280891
0.000274136
0.000247157
0.000229511
0.000229685
0.000261378
0.000279327
0.000323619
0.000407511
0.000531699
0.000668249
0.000784722
0.000910825
0.00100876
0.00108407
0.00113365
0.00117692
0.00120933
0.00122127
0.00121856
0.00120426
0.00118061
0.00115238
0.00112543
0.00110289
0.00108912
0.00108614
0.00109208
0.00110777
0.00113777
0.00118186
0.00123977
0.0013077
0.00138493
0.0014718
0.00156589
0.00166244
0.000247203
6.32781e-05
0.000104021
0.000159997
0.000171986
0.000214762
0.000259403
0.00031606
0.000385114
0.000428238
0.000473716
0.000563558
0.000682481
0.000820358
0.000956049
0.00108028
0.0011862
0.00126391
0.00130041
0.00132816
0.00134875
0.00134447
0.00132624
0.00129791
0.00126462
0.00122753
0.00119383
0.0011634
0.00113909
0.00112734
0.00113071
0.00114959
0.00118314
0.00123252
0.00129244
0.00136232
0.00144307
0.00153661
0.00163969
0.00173664
0.00167465
0.000542267
0.000286604
0.000286889
0.00034744
0.000411078
0.000472327
0.000518348
0.000537309
0.000555652
0.000614182
0.00072661
0.000850053
0.000974245
0.00109247
0.00119722
0.00129117
0.00134814
0.0013778
0.00141026
0.00142383
0.00141361
0.00138911
0.00135524
0.00131402
0.00126737
0.00122874
0.00119688
0.00117591
0.00116982
0.00117472
0.0011939
0.00122957
0.00128353
0.00135405
0.00142994
0.00151877
0.00161663
0.00171927
0.00181416
0.00158927
0.00116118
0.000703078
0.000569966
0.000581459
0.000587415
0.000592319
0.000579224
0.000575496
0.000602979
0.000683444
0.000798244
0.000918584
0.00104329
0.00115787
0.00125856
0.00132749
0.00136982
0.00142159
0.00146007
0.00146545
0.00144915
0.00141975
0.00138244
0.00133936
0.00129598
0.00126067
0.00123048
0.00120948
0.00120137
0.0012079
0.00123111
0.00127328
0.00133701
0.00142053
0.00150558
0.00159921
0.00169867
0.00179945
0.00189069
0.00127125
0.00128606
0.000949641
0.000771595
0.000655207
0.000589658
0.000544905
0.000537074
0.000581549
0.000655553
0.000754116
0.000868621
0.000974744
0.00109356
0.00118665
0.00126174
0.00132688
0.0013924
0.00145156
0.00147733
0.00148034
0.00146406
0.00143643
0.00139925
0.00135691
0.0013138
0.00127535
0.00124461
0.0012249
0.00121918
0.00123063
0.00126161
0.00131569
0.00139386
0.00148858
0.00158204
0.00168012
0.00178005
0.00187893
0.0019702
0.000899084
0.000821108
0.000612608
0.000596777
0.000462631
0.00049002
0.000534707
0.000598506
0.000674206
0.000744759
0.000826204
0.000916669
0.000998923
0.00108949
0.00118442
0.00125127
0.0013268
0.00139781
0.00145367
0.00147625
0.00147792
0.00146154
0.00143219
0.00139419
0.00135184
0.00130943
0.00127171
0.00124239
0.00122583
0.00122483
0.00124475
0.00129122
0.00136402
0.00145823
0.00156099
0.00166026
0.00176069
0.00186029
0.00195888
0.0020549
0.000407631
0.000663592
0.000676857
0.000623557
0.000577506
0.000593215
0.000662113
0.000687822
0.000738567
0.000791614
0.000846973
0.000926517
0.00100179
0.00106816
0.00116055
0.00123148
0.00130991
0.00139031
0.00143458
0.00145515
0.00145525
0.00143833
0.0014087
0.00137083
0.00132921
0.0012881
0.00125262
0.00122582
0.00121433
0.00122567
0.00126592
0.00133423
0.00142548
0.00153154
0.00163786
0.00174011
0.00184099
0.00194087
0.00204255
0.00214982
0.000690711
0.00116246
0.00111173
0.000936071
0.000730714
0.000690688
0.000709614
0.000716962
0.000744503
0.000796774
0.000843652
0.000904726
0.000961693
0.00102933
0.00111941
0.00121643
0.00128333
0.00136044
0.00140018
0.00141789
0.00141634
0.0013989
0.00136945
0.00133233
0.00129193
0.00125225
0.00121991
0.00120189
0.00120805
0.001243
0.00130731
0.00139607
0.00150049
0.00161313
0.00171844
0.00182091
0.00192196
0.00202463
0.00213378
0.00225482
0.000810649
0.00129612
0.0011269
0.000853039
0.000758097
0.000710448
0.00068253
0.000702971
0.0007205
0.000753808
0.000793508
0.000855037
0.00090058
0.00100092
0.00108217
0.00117951
0.00124929
0.00132045
0.00135499
0.00136958
0.00136629
0.00134811
0.00131844
0.00128164
0.00124329
0.00120968
0.00119041
0.00119341
0.00122504
0.00128635
0.0013727
0.00147576
0.00158656
0.00169697
0.00180015
0.00190201
0.00200541
0.00211525
0.00223747
0.00237812
0.000436736
0.000926269
0.00104126
0.000805379
0.000662362
0.000618234
0.000597495
0.00061452
0.000631402
0.000669308
0.000693542
0.000784256
0.000850011
0.0009487
0.001041
0.00113088
0.00121554
0.0012785
0.00130661
0.00131771
0.00131183
0.00129172
0.00126183
0.00122785
0.00119751
0.0011793
0.00118241
0.00121335
0.0012735
0.00135821
0.00145894
0.00156701
0.00167631
0.00178074
0.00188095
0.00198383
0.00209366
0.00221611
0.00235716
0.00252243
0.000239667
0.000505885
0.000574434
0.000555584
0.000433162
0.000431784
0.000484416
0.000507517
0.000523436
0.000561928
0.000622141
0.00070854
0.000801601
0.000902314
0.000999659
0.00109171
0.00117716
0.00123545
0.00126484
0.00126941
0.00125877
0.00123649
0.00120884
0.00118339
0.00116915
0.00117522
0.0012083
0.00126964
0.00135425
0.00145312
0.00155723
0.00166099
0.00176295
0.00186094
0.00195961
0.00206724
0.00218858
0.00232899
0.00249343
0.00268605
0.000686667
0.000376564
0.0003677
0.000335818
0.000316573
0.000309489
0.00033617
0.000371686
0.000401528
0.000464739
0.00055759
0.000665602
0.000774752
0.000882774
0.000982749
0.00107235
0.00114511
0.00119827
0.00122906
0.00122648
0.00121147
0.00119009
0.00117032
0.0011613
0.0011723
0.00120976
0.00127448
0.00136077
0.00145904
0.00155969
0.00165671
0.00174956
0.00184173
0.00193536
0.00203584
0.00215285
0.00229069
0.00245328
0.00264374
0.00286409
0.000939002
0.000572537
0.000485326
0.000432923
0.000437531
0.000400312
0.00038153
0.000393624
0.000429398
0.000495577
0.000588311
0.000696122
0.000808746
0.000914094
0.00100738
0.00108934
0.00114778
0.00118538
0.0011993
0.00119413
0.00117816
0.00116278
0.00115831
0.00117424
0.0012169
0.00128637
0.00137603
0.00147521
0.00157377
0.00166523
0.00174822
0.00182766
0.00191083
0.0020034
0.00210983
0.00224042
0.00239865
0.00258581
0.00280277
0.00304921
0.000881557
0.000790338
0.000718239
0.000694787
0.000699475
0.00064363
0.000602752
0.000604104
0.000634907
0.000685077
0.000752671
0.000833788
0.000920443
0.00100307
0.00107756
0.0011432
0.0011836
0.0011953
0.00119236
0.00118054
0.00116643
0.001163
0.00118119
0.00122749
0.00130148
0.00139561
0.00149785
0.00159636
0.00168428
0.00176018
0.00182617
0.00189301
0.00196999
0.00206505
0.00218122
0.00232882
0.00250935
0.00272137
0.00296336
0.00323288
0.000857994
0.000858565
0.000850252
0.000869745
0.000887622
0.000865254
0.000848292
0.00086345
0.000896616
0.000931859
0.000972835
0.00102079
0.00107508
0.00112888
0.00117897
0.00121774
0.00123025
0.00122116
0.00120598
0.00118707
0.00117871
0.00119248
0.00123776
0.00131405
0.00141194
0.00151906
0.0016206
0.00170818
0.00177905
0.0018377
0.00188841
0.00194562
0.0020199
0.00212046
0.00224926
0.00241542
0.0026182
0.00285351
0.00311762
0.00340649
0.000848918
0.000865925
0.000885534
0.000931718
0.000974324
0.00099565
0.00101992
0.00106492
0.00111126
0.00114178
0.00116559
0.00119393
0.00122757
0.00125887
0.00128477
0.00129497
0.00128194
0.00125914
0.00123241
0.0012112
0.00121096
0.00124358
0.00131683
0.00141541
0.00152874
0.00163771
0.00173032
0.00180238
0.00185504
0.00189713
0.00193589
0.00198691
0.00206169
0.00216966
0.00231209
0.00249658
0.00271983
0.00297549
0.00325798
0.00356248
0.000846463
0.000861329
0.000885177
0.00094023
0.00100112
0.00105768
0.00112062
0.00119512
0.00125889
0.00129672
0.00131692
0.00133437
0.00135548
0.00137337
0.00137868
0.00136413
0.00132867
0.00130315
0.00126611
0.00124489
0.00125385
0.00130691
0.00139772
0.0015138
0.00163245
0.00173675
0.00181759
0.00187366
0.00191111
0.00194032
0.00197094
0.00201876
0.00209598
0.00221201
0.00236737
0.00256825
0.00280883
0.00308106
0.003378
0.00369451
0.000845603
0.00085701
0.000880362
0.00093274
0.0010034
0.00108265
0.00117381
0.00127203
0.00135305
0.00140206
0.00142616
0.00144151
0.00145751
0.00146451
0.00145378
0.00142147
0.00137295
0.0013435
0.00130038
0.00127976
0.00129534
0.00136435
0.00146708
0.00159169
0.00171067
0.00180834
0.00187906
0.00192253
0.00194917
0.00197034
0.00199618
0.00204286
0.00212319
0.00224649
0.00241259
0.00262649
0.00288034
0.0031649
0.00347232
0.00379709
0.000845286
0.000854536
0.000876316
0.000924668
0.000999108
0.001091
0.00119958
0.0013138
0.00140768
0.00146667
0.0014959
0.0015143
0.00152829
0.00152949
0.00150837
0.00146405
0.00141188
0.00137733
0.00133051
0.00130908
0.00132815
0.0014026
0.00151194
0.00163992
0.00175751
0.00185205
0.00191579
0.00195301
0.00197332
0.00199013
0.00201377
0.00206051
0.00214348
0.002272
0.00244543
0.00266795
0.00293038
0.00322277
0.00353688
0.00386647
0.000845581
0.000853279
0.000874035
0.000919975
0.000995659
0.00109279
0.00120875
0.00133005
0.00143157
0.00149774
0.00153187
0.00155377
0.001568
0.00156698
0.00154229
0.00149344
0.00143824
0.00140185
0.00135224
0.00132759
0.00134353
0.00141659
0.00152509
0.00165338
0.00177138
0.00186592
0.00192879
0.00196556
0.00198483
0.00200113
0.00202473
0.00207202
0.00215639
0.00228722
0.00246379
0.00268999
0.0029561
0.00325189
0.00356896
0.00390068
0.00016422
0.00122752
0.00269641
0.00418732
0.00562466
0.0069929
0.00829084
0.00952154
0.0106894
0.0117989
0.0128543
0.0138596
0.0148181
0.0157328
0.0166063
0.0174407
0.0182378
0.0189992
0.0197259
0.0204191
0.0210793
0.0217072
0.0223031
0.0228673
0.0233998
0.0239008
0.0243699
0.0248072
0.0252124
0.0255853
0.0259255
0.0262328
0.0265069
0.0267474
0.0269542
0.027127
0.0272655
0.0273695
0.027439
0.0274738
0.000164717
0.00123124
0.00270075
0.00419194
0.00562938
0.00699763
0.0082955
0.00952613
0.0106939
0.0118035
0.012859
0.0138644
0.0148231
0.0157382
0.016612
0.0174468
0.0182445
0.0190063
0.0197337
0.0204275
0.0210884
0.021717
0.0223136
0.0228785
0.0234118
0.0239134
0.0243833
0.0248213
0.0252272
0.0256007
0.0259415
0.0262494
0.0265239
0.026765
0.0269721
0.0271452
0.027284
0.0273883
0.0274579
0.0274928
0.000164946
0.00123639
0.00271038
0.00420372
0.00564221
0.00701093
0.00830902
0.00953975
0.0107076
0.0118172
0.0128729
0.0138785
0.0148376
0.015753
0.0166274
0.0174629
0.0182613
0.019024
0.0197523
0.020447
0.021109
0.0217387
0.0223365
0.0229025
0.023437
0.0239398
0.0244109
0.02485
0.025257
0.0256315
0.0259733
0.0262821
0.0265575
0.0267993
0.0270071
0.0271807
0.02732
0.0274246
0.0274945
0.0275295
0.000165354
0.00124055
0.00271915
0.00421646
0.00565778
0.00702844
0.00832784
0.0095595
0.0107281
0.0118383
0.0128945
0.0139007
0.0148605
0.0157766
0.0166519
0.0174883
0.0182877
0.0190515
0.019781
0.0204771
0.0211404
0.0217715
0.0223708
0.0229384
0.0234743
0.0239786
0.0244512
0.0248918
0.0253001
0.025676
0.0260191
0.0263291
0.0266056
0.0268483
0.027057
0.0272314
0.0273712
0.0274763
0.0275464
0.0275816
0.000165665
0.00124576
0.00272902
0.00423018
0.00567472
0.00704799
0.00834946
0.00958278
0.0107527
0.0118641
0.0129215
0.0139288
0.0148896
0.0158069
0.0166834
0.017521
0.0183218
0.0190871
0.0198181
0.0205158
0.0211808
0.0218137
0.0224147
0.0229841
0.0235219
0.024028
0.0245023
0.0249446
0.0253546
0.0257321
0.0260767
0.026388
0.0266658
0.0269097
0.0271194
0.0272946
0.0274352
0.0275408
0.0276113
0.0276467
0.000166044
0.00125055
0.00273878
0.00424421
0.00569233
0.00706857
0.00837256
0.00960805
0.0107799
0.011893
0.0129519
0.0139607
0.014923
0.0158419
0.0167199
0.0175592
0.0183617
0.0191288
0.0198617
0.0205613
0.0212283
0.0218632
0.0224662
0.0230377
0.0235775
0.0240857
0.024562
0.0250063
0.0254182
0.0257975
0.0261438
0.0264567
0.0267359
0.0269811
0.027192
0.0273682
0.0275095
0.0276157
0.0276866
0.0277222
0.000166391
0.00125572
0.00274894
0.00425859
0.00571035
0.00708975
0.00839649
0.00963441
0.0108084
0.0119236
0.0129844
0.0139951
0.0149593
0.01588
0.0167599
0.0176012
0.0184057
0.0191749
0.0199099
0.0206117
0.021281
0.0219181
0.0225235
0.0230973
0.0236395
0.0241499
0.0246285
0.0250749
0.025489
0.0258702
0.0262184
0.0265331
0.0268139
0.0270605
0.0272726
0.0274499
0.0275921
0.027699
0.0277704
0.0278062
0.000166765
0.00126081
0.00275912
0.00427315
0.00572862
0.00711128
0.0084209
0.0096614
0.0108378
0.0119552
0.0130182
0.0140311
0.0149973
0.0159202
0.0168023
0.0176458
0.0184525
0.0192241
0.0199615
0.0206658
0.0213375
0.0219772
0.0225852
0.0231615
0.0237062
0.0242192
0.0247002
0.025149
0.0255653
0.0259488
0.026299
0.0266155
0.0268981
0.0271463
0.0273597
0.0275382
0.0276813
0.0277889
0.0278608
0.0278969
0.000167127
0.00126604
0.00276949
0.00428787
0.00574711
0.00713303
0.00844559
0.00968878
0.0108677
0.0119875
0.0130528
0.0140679
0.0150365
0.0159617
0.0168461
0.0176921
0.0185014
0.0192754
0.0200155
0.0207224
0.0213969
0.0220394
0.0226501
0.0232291
0.0237766
0.0242922
0.0247759
0.0252272
0.025646
0.0260318
0.0263842
0.0267027
0.0269872
0.027237
0.0274519
0.0276316
0.0277757
0.0278841
0.0279565
0.0279928
0.000167501
0.00127129
0.00277991
0.0043027
0.00576572
0.00715495
0.00847047
0.00971639
0.0108979
0.0120201
0.0130879
0.0141054
0.0150764
0.016004
0.016891
0.0177395
0.0185515
0.0193283
0.0200712
0.0207809
0.0214583
0.0221037
0.0227173
0.0232993
0.0238497
0.0243682
0.0248546
0.0253087
0.02573
0.0261183
0.026473
0.0267937
0.0270801
0.0273317
0.0275481
0.0277291
0.0278742
0.0279834
0.0280564
0.028093
0.000167875
0.00127659
0.00279045
0.00431765
0.00578443
0.00717698
0.00849547
0.00974411
0.0109282
0.0120529
0.0131232
0.0141432
0.0151167
0.0160469
0.0169365
0.0177878
0.0186025
0.0193822
0.020128
0.0208408
0.0215212
0.0221696
0.0227864
0.0233714
0.0239248
0.0244463
0.0249357
0.0253926
0.0258167
0.0262075
0.0265646
0.0268876
0.027176
0.0274295
0.0276475
0.0278298
0.0279761
0.0280862
0.0281597
0.0281966
0.000168251
0.00128195
0.00280104
0.00433268
0.00580325
0.00719908
0.00852053
0.00977193
0.0109586
0.0120859
0.0131586
0.0141811
0.0151572
0.0160901
0.0169824
0.0178365
0.0186541
0.0194368
0.0201856
0.0209015
0.0215851
0.0222368
0.0228567
0.023445
0.0240016
0.0245262
0.0250187
0.0254785
0.0259054
0.026299
0.0266586
0.0269839
0.0272745
0.0275298
0.0277496
0.0279333
0.0280808
0.0281917
0.0282658
0.0283031
0.00016863
0.00128734
0.00281172
0.00434779
0.00582212
0.00722124
0.00854565
0.00979977
0.010989
0.0121188
0.0131941
0.0142192
0.0151979
0.0161335
0.0170286
0.0178855
0.0187061
0.0194919
0.0202439
0.020963
0.0216499
0.0223048
0.0229281
0.0235197
0.0240796
0.0246075
0.0251031
0.025566
0.0259959
0.0263922
0.0267545
0.0270822
0.027375
0.0276323
0.0278538
0.028039
0.0281877
0.0282995
0.0283743
0.0284119
0.000169013
0.00129278
0.00282246
0.00436297
0.00584105
0.00724345
0.00857078
0.00982761
0.0110195
0.0121518
0.0132296
0.0142573
0.0152386
0.0161769
0.0170749
0.0179348
0.0187584
0.0195473
0.0203025
0.021025
0.0217152
0.0223736
0.0230003
0.0235954
0.0241586
0.0246898
0.0251887
0.0256548
0.0260877
0.0264869
0.0268519
0.0271822
0.0274773
0.0277367
0.0279599
0.0281467
0.0282966
0.0284093
0.0284847
0.0285227
0.000169395
0.00129826
0.00283326
0.0043782
0.00586003
0.00726567
0.00859592
0.00985546
0.0110499
0.0121847
0.0132651
0.0142953
0.0152793
0.0162204
0.0171212
0.0179841
0.0188108
0.0196029
0.0203615
0.0210873
0.021781
0.0224429
0.0230731
0.0236717
0.0242385
0.0247731
0.0252754
0.0257448
0.0261808
0.026583
0.0269507
0.0272836
0.027581
0.0278425
0.0280677
0.028256
0.0284072
0.0285209
0.028597
0.0286352
0.000169781
0.00130378
0.00284412
0.00439349
0.00587905
0.00728792
0.00862105
0.00988325
0.0110802
0.0122176
0.0133005
0.0143333
0.01532
0.0162638
0.0171676
0.0180335
0.0188634
0.0196587
0.0204207
0.02115
0.0218472
0.0225126
0.0231465
0.0237487
0.024319
0.0248573
0.0253629
0.0258357
0.0262749
0.0266801
0.0270508
0.0273863
0.0276862
0.0279499
0.0281769
0.0283668
0.0285193
0.0286341
0.0287108
0.0287494
0.000170171
0.00130933
0.00285503
0.00440884
0.00589809
0.00731017
0.00864615
0.00991099
0.0111105
0.0122504
0.0133358
0.0143712
0.0153606
0.0163072
0.0172139
0.0180828
0.0189159
0.0197146
0.02048
0.0212128
0.0219136
0.0225828
0.0232203
0.0238262
0.0244002
0.0249421
0.0254513
0.0259275
0.02637
0.0267784
0.027152
0.0274902
0.0277926
0.0280585
0.0282874
0.028479
0.0286329
0.0287487
0.0288261
0.0288651
0.00017056
0.00131493
0.002866
0.00442422
0.00591717
0.0073324
0.00867122
0.00993869
0.0111407
0.0122831
0.013371
0.014409
0.015401
0.0163505
0.0172601
0.0181322
0.0189685
0.0197706
0.0205394
0.0212759
0.0219804
0.0226532
0.0232945
0.0239042
0.024482
0.0250275
0.0255404
0.0260201
0.026466
0.0268776
0.0272542
0.0275952
0.0279001
0.0281683
0.0283993
0.0285926
0.0287478
0.0288646
0.0289428
0.0289822
0.000170953
0.00132056
0.00287701
0.00443965
0.00593626
0.00735463
0.00869624
0.00996629
0.0111708
0.0123156
0.013406
0.0144466
0.0154413
0.0163936
0.0173062
0.0181814
0.0190211
0.0198266
0.020599
0.021339
0.0220473
0.022724
0.0233691
0.0239827
0.0245643
0.0251136
0.0256302
0.0261134
0.0265628
0.0269777
0.0273574
0.0277013
0.0280088
0.0282793
0.0285124
0.0287074
0.0288641
0.028982
0.0290609
0.0291006
0.000171349
0.00132623
0.00288808
0.00445511
0.00595535
0.00737684
0.00872121
0.0099938
0.0112008
0.012348
0.0134409
0.014484
0.0154815
0.0164366
0.0173523
0.0182306
0.0190736
0.0198825
0.0206585
0.0214023
0.0221144
0.022795
0.0234441
0.0240615
0.0246471
0.0252003
0.0257206
0.0262076
0.0266605
0.0270787
0.0274616
0.0278084
0.0281186
0.0283915
0.0286267
0.0288235
0.0289816
0.0291006
0.0291802
0.0292203
0.000171744
0.00133195
0.00289919
0.00447061
0.00597447
0.00739901
0.0087461
0.0100212
0.0112306
0.0123803
0.0134756
0.0145213
0.0155215
0.0164795
0.0173981
0.0182797
0.019126
0.0199385
0.0207182
0.0214657
0.0221817
0.0228662
0.0235193
0.0241408
0.0247303
0.0252875
0.0258117
0.0263024
0.0267589
0.0271806
0.0275667
0.0279165
0.0282294
0.0285048
0.0287421
0.0289408
0.0291003
0.0292205
0.0293009
0.0293414
0.000172143
0.00133769
0.00291036
0.00448614
0.00599357
0.00742115
0.00877092
0.0100485
0.0112603
0.0124123
0.0135101
0.0145584
0.0155613
0.0165222
0.0174438
0.0183286
0.0191784
0.0199944
0.0207778
0.0215292
0.0222491
0.0229377
0.0235949
0.0242204
0.024814
0.0253752
0.0259034
0.026398
0.0268582
0.0272833
0.0276727
0.0280256
0.0283414
0.0286193
0.0288588
0.0290593
0.0292204
0.0293417
0.0294229
0.0294638
0.000172546
0.00134347
0.00292156
0.0045017
0.00601266
0.00744324
0.00879565
0.0100757
0.0112898
0.0124442
0.0135444
0.0145953
0.0156009
0.0165646
0.0174894
0.0183774
0.0192306
0.0200503
0.0208374
0.0215928
0.0223167
0.0230094
0.0236707
0.0243005
0.0248982
0.0254635
0.0259958
0.0264942
0.0269582
0.027387
0.0277798
0.0281358
0.0284544
0.0287348
0.0289766
0.029179
0.0293416
0.0294641
0.0295461
0.0295874
0.000172947
0.0013493
0.00293281
0.00451727
0.00603175
0.00746527
0.00882027
0.0101027
0.0113192
0.0124759
0.0135785
0.0146319
0.0156402
0.0166069
0.0175347
0.0184261
0.0192827
0.0201061
0.0208971
0.0216564
0.0223844
0.0230813
0.0237468
0.0243808
0.0249829
0.0255524
0.0260887
0.0265912
0.0270591
0.0274915
0.0278877
0.0282469
0.0285685
0.0288515
0.0290956
0.0292999
0.0294642
0.0295879
0.0296707
0.0297124
0.000173353
0.00135516
0.0029441
0.00453286
0.00605081
0.00748724
0.00884479
0.0101296
0.0113483
0.0125074
0.0136124
0.0146683
0.0156793
0.0166489
0.0175799
0.0184745
0.0193347
0.0201618
0.0209567
0.0217201
0.0224522
0.0231534
0.0238232
0.0244616
0.025068
0.0256418
0.0261823
0.0266889
0.0271607
0.0275969
0.0279966
0.0283591
0.0286836
0.0289694
0.0292158
0.0294221
0.029588
0.0297129
0.0297966
0.0298388
0.000173761
0.00136106
0.00295543
0.00454848
0.00606984
0.00750913
0.00886918
0.0101563
0.0113773
0.0125386
0.013646
0.0147044
0.0157182
0.0166906
0.0176248
0.0185228
0.0193866
0.0202174
0.0210163
0.0217837
0.0225202
0.0232256
0.0238999
0.0245427
0.0251535
0.0257317
0.0262766
0.0267873
0.0272631
0.0277031
0.0281065
0.0284723
0.0287999
0.0290884
0.0293372
0.0295456
0.0297131
0.0298393
0.0299238
0.0299664
0.000174169
0.001367
0.0029668
0.00456409
0.00608885
0.00753093
0.00889343
0.0101828
0.011406
0.0125695
0.0136793
0.0147403
0.0157567
0.0167321
0.0176694
0.0185709
0.0194382
0.0202729
0.0210758
0.0218475
0.0225882
0.0232981
0.0239769
0.0246242
0.0252395