/*--------------------------------*- C++ -*----------------------------------*\
| =========                 |                                                 |
| \\      /  F ield         | OpenFOAM: The Open Source CFD Toolbox           |
|  \\    /   O peration     | Version:  2.3.0                                 |
|   \\  /    A nd           | Web:      www.OpenFOAM.org                      |
|    \\/     M anipulation  |                                                 |
\*---------------------------------------------------------------------------*/
FoamFile
{
    version     2.0;
    format      ascii;
    class       volScalarField;
    location    "10000";
    object      p;
}
// * * * * * * * * * * * * * * * * * * * * * * * * * * * * * * * * * * * * * //

dimensions      [0 2 -2 0 0 0 0];

internalField   nonuniform List<scalar> 
26600
(
-9.17883
-7.30665
-5.82573
-5.06608
-4.52129
-4.0205
-3.58396
-3.21803
-2.90698
-2.63805
-2.40459
-2.20163
-2.02442
-1.86894
-1.73168
-1.60969
-1.50043
-1.40173
-1.31173
-1.22881
-1.15142
-1.07844
-1.00837
-0.940542
-0.873937
-0.807859
-0.740988
-0.67237
-0.600533
-0.523929
-0.440886
-0.349701
-0.25143
-0.140553
-0.0211823
0.116595
0.256372
0.409713
0.577131
-0.0625809
-9.46402
-7.80877
-6.33673
-5.46817
-4.83511
-4.28128
-3.80487
-3.4049
-3.06561
-2.77343
-2.52061
-2.30119
-2.11003
-1.94272
-1.79545
-1.66513
-1.54882
-1.44437
-1.34958
-1.26285
-1.1824
-1.1072
-1.03539
-0.966496
-0.899231
-0.833266
-0.76744
-0.700378
-0.631965
-0.559222
-0.482239
-0.395505
-0.305698
-0.201571
-0.0918091
0.0396571
0.179993
0.331636
0.481265
0.382599
-8.55879
-7.41224
-6.21029
-5.37268
-4.75196
-4.219
-3.75747
-3.36582
-3.03216
-2.74493
-2.49643
-2.28076
-2.09293
-1.9287
-1.78419
-1.65645
-1.54252
-1.4404
-1.34765
-1.26314
-1.18466
-1.11177
-1.04242
-0.976148
-0.911103
-0.847254
-0.783541
-0.718861
-0.652801
-0.58394
-0.509756
-0.428098
-0.341659
-0.244801
-0.138489
-0.016385
0.116295
0.257935
0.400876
0.488774
-7.8833
-7.27177
-6.29682
-5.49597
-4.87472
-4.33928
-3.8718
-3.47099
-3.12798
-2.83223
-2.57599
-2.3532
-2.15895
-1.98901
-1.83942
-1.70724
-1.5894
-1.48402
-1.3884
-1.30162
-1.2212
-1.14689
-1.07645
-1.00964
-0.944715
-0.881446
-0.818755
-0.755222
-0.690527
-0.624739
-0.554924
-0.479434
-0.397577
-0.312422
-0.211521
-0.102894
0.0248483
0.152872
0.301688
0.441239
-7.41512
-7.05781
-6.25334
-5.50455
-4.89186
-4.35887
-3.8916
-3.48808
-3.14146
-2.84236
-2.58334
-2.35828
-2.16232
-1.99125
-1.84105
-1.70872
-1.59099
-1.48609
-1.39105
-1.30523
-1.22583
-1.15298
-1.08388
-1.01921
-0.956283
-0.895927
-0.835703
-0.776257
-0.715181
-0.653022
-0.587444
-0.518821
-0.44257
-0.364315
-0.271566
-0.173746
-0.0535171
0.0652739
0.200586
0.325779
-7.07641
-6.84014
-6.18074
-5.50277
-4.91193
-4.38755
-3.92459
-3.5214
-3.1731
-2.87178
-2.6106
-2.38346
-2.18572
-2.01319
-1.86179
-1.72854
-1.60996
-1.5047
-1.40927
-1.32358
-1.24419
-1.17197
-1.10347
-1.04016
-0.978394
-0.920178
-0.861688
-0.805912
-0.747576
-0.690848
-0.62896
-0.568505
-0.498294
-0.429809
-0.34412
-0.259327
-0.145311
-0.0344855
0.099685
0.212891
-6.83659
-6.64442
-6.08322
-5.47161
-4.90492
-4.38956
-3.93188
-3.53066
-3.18233
-2.88016
-2.61796
-2.38975
-2.19112
-2.01785
-1.86635
-1.73329
-1.61532
-1.51091
-1.41637
-1.33197
-1.25371
-1.18328
-1.11626
-1.05516
-0.995342
-0.93997
-0.883938
-0.831237
-0.776147
-0.723907
-0.666992
-0.613219
-0.551598
-0.492135
-0.418304
-0.345712
-0.245026
-0.138679
-0.000974053
0.180166
-6.68421
-6.48159
-5.97762
-5.42413
-4.88227
-4.37614
-3.92475
-3.52738
-3.18106
-2.87981
-2.61811
-2.3901
-2.19185
-2.01918
-1.86882
-1.73676
-1.62023
-1.51708
-1.42403
-1.3409
-1.2641
-1.19504
-1.12949
-1.07007
-1.01211
-0.959039
-0.905079
-0.855476
-0.803477
-0.75577
-0.703994
-0.65589
-0.603547
-0.551079
-0.492897
-0.430475
-0.356993
-0.268938
-0.167634
0.20058
-6.6157
-6.35884
-5.87215
-5.36487
-4.84488
-4.34586
-3.90021
-3.5075
-3.16457
-2.86564
-2.60573
-2.37904
-2.18213
-2.0107
-1.86214
-1.7317
-1.61734
-1.51605
-1.42505
-1.34347
-1.26846
-1.20125
-1.13747
-1.08054
-1.02446
-0.974572
-0.922902
-0.877113
-0.82845
-0.784067
-0.739143
-0.693149
-0.653329
-0.602331
-0.564177
-0.505248
-0.464643
-0.407311
-0.416646
0.13764
-6.62778
-6.28177
-5.77556
-5.30307
-4.79782
-4.30174
-3.86038
-3.47273
-3.13453
-2.83957
-2.58295
-2.35888
-2.16433
-1.99498
-1.84918
-1.72106
-1.6097
-1.51093
-1.42268
-1.34306
-1.27032
-1.20499
-1.14368
-1.08885
-1.03671
-0.987593
-0.941084
-0.894682
-0.853775
-0.807783
-0.773696
-0.72477
-0.696824
-0.644227
-0.62067
-0.565766
-0.546894
-0.504491
-0.579074
-0.024511
-6.7122
-6.25188
-5.69851
-5.24453
-4.744
-4.24489
-3.80575
-3.42327
-3.0913
-2.80203
-2.55023
-2.32969
-2.13793
-1.97095
-1.8282
-1.70273
-1.5947
-1.49901
-1.41455
-1.33728
-1.26877
-1.20416
-1.14714
-1.09272
-1.04619
-0.997561
-0.955876
-0.907261
-0.86893
-0.822312
-0.792607
-0.752127
-0.734028
-0.69872
-0.691918
-0.652089
-0.655568
-0.608224
-0.688225
-0.23613
-6.88152
-6.26835
-5.64239
-5.19084
-4.68418
-4.17507
-3.73611
-3.35936
-3.03539
-2.75336
-2.50694
-2.291
-2.10197
-1.93794
-1.79817
-1.67604
-1.57226
-1.4805
-1.40051
-1.32628
-1.26254
-1.20026
-1.14496
-1.0897
-1.04425
-0.996897
-0.962421
-0.922968
-0.897239
-0.863886
-0.849239
-0.818804
-0.80748
-0.776323
-0.772069
-0.73508
-0.740381
-0.690689
-0.772104
-0.378178
-7.15153
-6.33309
-5.60568
-5.14398
-4.61882
-4.09023
-3.64899
-3.27806
-2.96319
-2.68873
-2.44966
-2.23916
-2.05612
-1.89493
-1.75929
-1.6394
-1.54073
-1.45448
-1.37752
-1.30497
-1.2419
-1.18375
-1.1369
-1.09338
-1.06205
-1.03073
-1.00715
-0.975738
-0.952582
-0.920648
-0.899251
-0.866485
-0.852557
-0.825194
-0.823629
-0.796287
-0.806269
-0.765624
-0.83701
-0.531186
-7.54305
-6.44141
-5.58757
-5.11025
-4.55138
-3.99009
-3.54051
-3.17374
-2.86875
-2.60608
-2.37694
-2.17492
-1.99949
-1.8443
-1.71069
-1.59136
-1.49202
-1.41327
-1.34656
-1.2888
-1.24613
-1.20498
-1.16923
-1.13349
-1.10285
-1.0683
-1.03742
-1.00367
-0.978609
-0.949071
-0.928845
-0.904109
-0.892814
-0.87272
-0.870448
-0.850854
-0.860368
-0.830773
-0.883047
-0.6759
-8.0682
-6.5748
-5.58066
-5.09185
-4.48873
-3.88443
-3.41893
-3.05231
-2.75466
-2.50702
-2.29128
-2.0971
-1.92444
-1.77518
-1.65185
-1.54772
-1.46966
-1.41019
-1.36011
-1.31265
-1.2715
-1.22738
-1.18641
-1.14834
-1.1142
-1.08208
-1.05562
-1.02891
-1.0067
-0.981597
-0.962768
-0.941875
-0.928904
-0.911386
-0.904811
-0.88786
-0.896936
-0.880048
-0.916078
-0.788584
-8.75758
-6.75485
-5.57203
-5.07819
-4.42982
-3.77943
-3.29234
-2.91576
-2.61746
-2.38067
-2.18548
-2.01323
-1.86524
-1.73823
-1.63575
-1.54921
-1.48236
-1.42112
-1.36886
-1.32056
-1.27578
-1.23429
-1.19819
-1.16624
-1.13462
-1.10335
-1.07521
-1.04945
-1.02726
-1.00594
-0.988577
-0.970672
-0.958132
-0.942443
-0.936477
-0.923595
-0.928886
-0.916631
-0.935576
-0.86287
-9.7646
-7.0367
-5.57291
-5.07792
-4.37256
-3.65393
-3.14993
-2.78566
-2.5014
-2.27932
-2.10917
-1.96213
-1.83124
-1.71512
-1.61928
-1.53943
-1.47469
-1.42148
-1.3728
-1.32885
-1.28617
-1.24432
-1.2062
-1.17172
-1.14059
-1.11315
-1.08843
-1.06647
-1.0462
-1.02763
-1.01105
-0.993598
-0.980273
-0.965434
-0.959238
-0.947878
-0.94738
-0.934524
-0.9445
-0.903184
-11.2867
-7.28244
-5.5673
-5.09203
-4.32729
-3.59469
-3.10513
-2.7666
-2.48821
-2.26068
-2.07341
-1.91522
-1.77662
-1.66676
-1.58536
-1.52812
-1.48268
-1.43518
-1.38533
-1.3386
-1.29452
-1.25257
-1.21323
-1.17695
-1.14552
-1.1189
-1.09545
-1.07422
-1.05415
-1.03542
-1.0186
-1.00178
-0.988034
-0.974361
-0.966429
-0.956023
-0.952763
-0.941826
-0.948762
-0.918553
-13.5596
-7.30199
-5.27962
-4.91028
-4.24823
-3.63282
-3.16964
-2.8005
-2.50627
-2.26263
-2.05492
-1.90004
-1.77918
-1.67897
-1.59892
-1.53658
-1.48441
-1.43311
-1.38367
-1.33668
-1.29261
-1.25206
-1.2152
-1.18037
-1.14863
-1.12085
-1.09633
-1.0746
-1.05482
-1.0365
-1.01995
-1.00429
-0.991049
-0.97873
-0.970146
-0.960622
-0.955922
-0.946755
-0.950068
-0.925955
-16.6161
-8.19129
-5.33258
-4.75537
-4.18421
-3.6591
-3.24589
-2.87999
-2.57126
-2.30479
-2.08222
-1.91695
-1.79095
-1.69042
-1.60852
-1.54029
-1.48292
-1.43019
-1.38043
-1.33283
-1.28846
-1.24775
-1.21088
-1.17698
-1.1463
-1.11908
-1.095
-1.07378
-1.05468
-1.03709
-1.02126
-1.0069
-0.994745
-0.983612
-0.974903
-0.966215
-0.960735
-0.952556
-0.95308
-0.932237
-15.9833
-9.36445
-6.08622
-4.98504
-4.2637
-3.69491
-3.28009
-2.92334
-2.60648
-2.32784
-2.1027
-1.93184
-1.79647
-1.68922
-1.60467
-1.53462
-1.47406
-1.41961
-1.36996
-1.32381
-1.281
-1.24147
-1.2054
-1.17249
-1.14272
-1.11605
-1.09236
-1.0716
-1.05327
-1.03672
-1.02198
-1.00907
-0.998355
-0.988817
-0.980815
-0.97315
-0.967482
-0.960065
-0.958743
-0.939639
-12.2472
-8.70262
-6.17247
-5.06167
-4.35601
-3.78198
-3.32866
-2.95207
-2.6266
-2.34229
-2.11085
-1.93032
-1.78989
-1.68055
-1.59401
-1.52278
-1.46207
-1.40855
-1.36041
-1.31601
-1.27456
-1.23579
-1.19997
-1.16725
-1.13763
-1.11119
-1.08794
-1.06784
-1.05045
-1.03532
-1.02218
-1.01097
-1.0018
-0.993973
-0.987252
-0.980805
-0.975547
-0.968976
-0.96654
-0.948161
-9.80758
-8.17656
-6.18326
-5.05517
-4.33955
-3.7545
-3.29043
-2.90835
-2.58254
-2.30573
-2.08186
-1.90839
-1.77206
-1.66494
-1.58068
-1.5114
-1.45208
-1.39986
-1.35295
-1.30966
-1.26901
-1.23074
-1.19518
-1.16259
-1.13299
-1.10659
-1.08362
-1.06397
-1.0474
-1.03355
-1.02205
-1.01261
-1.00513
-0.999003
-0.993801
-0.988721
-0.984056
-0.978021
-0.974704
-0.956963
-8.14506
-7.24907
-5.81328
-4.8348
-4.17911
-3.64404
-3.20205
-2.83369
-2.52747
-2.26753
-2.05422
-1.88542
-1.75365
-1.65116
-1.57028
-1.50335
-1.44583
-1.39522
-1.3494
-1.3066
-1.26606
-1.22772
-1.19195
-1.15909
-1.12925
-1.10283
-1.08004
-1.06073
-1.04476
-1.03181
-1.02161
-1.0139
-1.00828
-1.00394
-1.00011
-0.996042
-0.991805
-0.986148
-0.982178
-0.965425
-6.86153
-6.35796
-5.38536
-4.58976
-3.99241
-3.49594
-3.08876
-2.74907
-2.46117
-2.21747
-2.01825
-1.8616
-1.73883
-1.64189
-1.56429
-1.49961
-1.44407
-1.39482
-1.34949
-1.30662
-1.26584
-1.22722
-1.19113
-1.15786
-1.12768
-1.10098
-1.078
-1.05869
-1.04301
-1.03075
-1.02169
-1.01548
-1.01142
-1.00844
-1.0056
-1.00224
-0.998375
-0.993075
-0.988722
-0.973353
-5.76015
-5.56818
-4.91829
-4.28287
-3.75901
-3.3234
-2.95652
-2.64619
-2.38263
-2.16477
-1.98654
-1.84351
-1.72946
-1.63793
-1.56345
-1.50101
-1.4471
-1.3985
-1.35305
-1.30987
-1.26872
-1.22969
-1.19313
-1.1593
-1.12859
-1.1014
-1.07801
-1.05846
-1.04279
-1.03094
-1.02272
-1.01768
-1.01473
-1.01263
-1.01039
-1.00747
-1.00385
-0.998885
-0.994416
-0.98075
-4.71012
-4.80913
-4.43874
-3.94626
-3.49788
-3.12334
-2.80625
-2.53989
-2.31254
-2.12168
-1.96352
-1.83309
-1.72633
-1.63963
-1.56815
-1.50741
-1.45419
-1.40557
-1.35967
-1.316
-1.27438
-1.23485
-1.19776
-1.16337
-1.13204
-1.10418
-1.08012
-1.06007
-1.0443
-1.03289
-1.02544
-1.0211
-1.01865
-1.01679
-1.01467
-1.01188
-1.00837
-1.00375
-0.999415
-0.987624
-3.94119
-3.99375
-3.84281
-3.52136
-3.19577
-2.91815
-2.67138
-2.45362
-2.26137
-2.09315
-1.95063
-1.83068
-1.73013
-1.64702
-1.57736
-1.51735
-1.46395
-1.41475
-1.36824
-1.32405
-1.28198
-1.24205
-1.20445
-1.16947
-1.13745
-1.1088
-1.08407
-1.0638
-1.04828
-1.03729
-1.03013
-1.0258
-1.0231
-1.02089
-1.01849
-1.01559
-1.01212
-1.00786
-1.00385
-0.993945
-4.76361
-3.723
-3.42738
-3.20256
-2.97555
-2.77306
-2.5821
-2.40066
-2.23265
-2.0803
-1.94797
-1.83481
-1.73931
-1.65856
-1.58923
-1.52877
-1.4746
-1.4245
-1.37733
-1.3327
-1.29034
-1.25016
-1.21222
-1.17674
-1.14411
-1.11501
-1.0902
-1.07011
-1.05477
-1.04376
-1.03626
-1.03128
-1.02775
-1.0248
-1.0219
-1.01875
-1.01531
-1.01141
-1.00783
-0.999673
-4.28652
-3.57466
-3.24987
-3.05222
-2.8666
-2.69439
-2.53233
-2.37269
-2.21981
-2.07852
-1.95334
-1.84427
-1.75092
-1.67081
-1.60107
-1.53957
-1.48421
-1.43312
-1.38542
-1.34057
-1.29819
-1.25801
-1.21996
-1.18432
-1.15169
-1.12279
-1.09824
-1.07832
-1.06288
-1.05138
-1.04301
-1.03692
-1.03228
-1.02843
-1.02492
-1.02152
-1.01811
-1.01455
-1.01141
-1.00479
-3.85163
-3.46577
-3.17865
-2.98612
-2.81824
-2.65821
-2.507
-2.35768
-2.21362
-2.08069
-1.96081
-1.85452
-1.76154
-1.68085
-1.61024
-1.54759
-1.49103
-1.43913
-1.39117
-1.3464
-1.30426
-1.26441
-1.22681
-1.19174
-1.15973
-1.1314
-1.10722
-1.08732
-1.07145
-1.0591
-1.04959
-1.04224
-1.03644
-1.0317
-1.02765
-1.02401
-1.02064
-1.01741
-1.01465
-1.00932
-3.5929
-3.35911
-3.124
-2.94375
-2.78574
-2.63375
-2.48731
-2.34386
-2.20602
-2.07926
-1.96369
-1.85965
-1.76715
-1.68584
-1.61437
-1.55091
-1.49373
-1.44155
-1.39359
-1.34916
-1.30771
-1.26883
-1.23237
-1.19845
-1.16745
-1.13986
-1.11601
-1.09594
-1.07945
-1.06611
-1.05542
-1.0469
-1.0401
-1.03463
-1.03013
-1.02632
-1.02301
-1.02004
-1.01759
-1.01326
-3.41114
-3.25467
-3.06443
-2.89803
-2.74713
-2.6023
-2.462
-2.32486
-2.19241
-2.06941
-1.95692
-1.85521
-1.76412
-1.6833
-1.61189
-1.54849
-1.49154
-1.43973
-1.3923
-1.34876
-1.30859
-1.27128
-1.23642
-1.20395
-1.17411
-1.14724
-1.12361
-1.10328
-1.08614
-1.07189
-1.06021
-1.05076
-1.04321
-1.0372
-1.03238
-1.02848
-1.02524
-1.02246
-1.02022
-1.01664
-3.27381
-3.16217
-3.00424
-2.8492
-2.70301
-2.56271
-2.42695
-2.29473
-2.16734
-2.04843
-1.93951
-1.84077
-1.75213
-1.67314
-1.60302
-1.54066
-1.48474
-1.43405
-1.38786
-1.3458
-1.30736
-1.2719
-1.23879
-1.20781
-1.17906
-1.15284
-1.1294
-1.10886
-1.0912
-1.07628
-1.06389
-1.0538
-1.04576
-1.03941
-1.03442
-1.03048
-1.02731
-1.02466
-1.02254
-1.01949
-3.17024
-3.0864
-2.95151
-2.80599
-2.66217
-2.52277
-2.38861
-2.25929
-2.13587
-2.02076
-1.91542
-1.82005
-1.73438
-1.65791
-1.58982
-1.52924
-1.47501
-1.42595
-1.38144
-1.34113
-1.30455
-1.2709
-1.23945
-1.20983
-1.18208
-1.15645
-1.13322
-1.1126
-1.09465
-1.07933
-1.06652
-1.05608
-1.04777
-1.04127
-1.03623
-1.0323
-1.0292
-1.02663
-1.02454
-1.02185
-3.09197
-3.02548
-2.90751
-2.77087
-2.62971
-2.49042
-2.35646
-2.22857
-2.10746
-1.99472
-1.89169
-1.79871
-1.71546
-1.64129
-1.5754
-1.51687
-1.46452
-1.4172
-1.37436
-1.33572
-1.3008
-1.26875
-1.23872
-1.21027
-1.18337
-1.15827
-1.1353
-1.11472
-1.09668
-1.08121
-1.06824
-1.05766
-1.04929
-1.04278
-1.03778
-1.03392
-1.03087
-1.02835
-1.02623
-1.02376
-3.03356
-2.97765
-2.87158
-2.74255
-2.60477
-2.46634
-2.33259
-2.20546
-2.08548
-1.97385
-1.87194
-1.78028
-1.69862
-1.62631
-1.56242
-1.50575
-1.4551
-1.40934
-1.36792
-1.33062
-1.297
-1.26617
-1.23723
-1.20965
-1.18338
-1.1587
-1.13598
-1.11552
-1.09754
-1.08209
-1.06916
-1.05864
-1.05034
-1.04395
-1.03905
-1.03529
-1.03231
-1.02981
-1.02764
-1.02528
-2.99182
-2.94233
-2.8439
-2.72053
-2.58593
-2.44883
-2.31562
-2.18905
-2.06966
-1.95849
-1.85702
-1.76602
-1.68546
-1.61472
-1.55243
-1.49728
-1.44804
-1.40357
-1.36323
-1.32688
-1.29409
-1.26399
-1.23564
-1.20851
-1.18257
-1.15813
-1.13557
-1.11526
-1.09743
-1.08214
-1.06939
-1.05906
-1.05098
-1.04478
-1.04007
-1.03644
-1.03353
-1.03103
-1.0288
-1.02647
-2.96496
-2.91927
-2.825
-2.70521
-2.57293
-2.43693
-2.3043
-2.17814
-2.05905
-1.94805
-1.84675
-1.75621
-1.67663
-1.60714
-1.54613
-1.49222
-1.44416
-1.40068
-1.36105
-1.3252
-1.29268
-1.26267
-1.2343
-1.20712
-1.18114
-1.15674
-1.13429
-1.11413
-1.09651
-1.08149
-1.06904
-1.05905
-1.05128
-1.04537
-1.04088
-1.03741
-1.03458
-1.03209
-1.02977
-1.02741
-2.95101
-2.90758
-2.81484
-2.69676
-2.56569
-2.43018
-2.29779
-2.17185
-2.05285
-1.94183
-1.84062
-1.75054
-1.67182
-1.6033
-1.5433
-1.4904
-1.44325
-1.40039
-1.36111
-1.32531
-1.29256
-1.2621
-1.23322
-1.20559
-1.17934
-1.15484
-1.13246
-1.1125
-1.09516
-1.0805
-1.06843
-1.05883
-1.05143
-1.04584
-1.0416
-1.03829
-1.03552
-1.03301
-1.03061
-1.02817
0.00749867
0.00617035
0.00609308
0.00654905
0.007123
0.00751405
0.00765027
0.00752263
0.00714308
0.00652877
0.00570197
0.0046873
0.00350651
0.0021825
0.000738848
-0.00080494
-0.00242879
-0.00411194
-0.00583787
-0.00758988
-0.00935029
-0.0111056
-0.0128425
-0.0145462
-0.0162062
-0.0178122
-0.0193525
-0.0208189
-0.022204
-0.0234989
-0.0246977
-0.0257958
-0.0267875
-0.0276698
-0.0284437
-0.0291105
-0.0296613
-0.0300736
-0.0307091
-0.0340881
0.0134643
0.0110052
0.00946804
0.00852131
0.00810866
0.00786631
0.0075968
0.00720514
0.00664619
0.00590188
0.00497063
0.00386033
0.00258519
0.00116231
-0.00038992
-0.00205167
-0.0038033
-0.00562588
-0.00750012
-0.00940791
-0.0113323
-0.0132564
-0.0151646
-0.0170429
-0.0188771
-0.0206547
-0.0223644
-0.0239949
-0.0255367
-0.0269813
-0.0283202
-0.0295468
-0.0306551
-0.0316396
-0.0324957
-0.0332185
-0.0337971
-0.0341997
-0.0342861
-0.0334843
0.0197455
0.0165766
0.0136531
0.0112309
0.00953181
0.00826016
0.0072091
0.00625209
0.00530786
0.00432705
0.0032803
0.00215107
0.000936246
-0.000362342
-0.00174065
-0.00318778
-0.00469293
-0.00624639
-0.00783371
-0.00944225
-0.0110616
-0.0126774
-0.0142778
-0.0158533
-0.0173912
-0.0188813
-0.0203158
-0.0216842
-0.0229782
-0.0241919
-0.0253171
-0.0263477
-0.0272794
-0.0281061
-0.0288232
-0.0294271
-0.0299146
-0.0302786
-0.0304438
-0.0301983
0.0240533
0.0202005
0.0165717
0.0133319
0.010851
0.00890006
0.00728631
0.00588292
0.0046039
0.00338418
0.00218028
0.000966157
-0.000277117
-0.00155846
-0.00287855
-0.0042384
-0.00563389
-0.00705639
-0.00850055
-0.00995786
-0.0114169
-0.0128705
-0.0143093
-0.0157219
-0.0171014
-0.0184392
-0.0197248
-0.0209526
-0.0221151
-0.023204
-0.0242147
-0.0251413
-0.0259774
-0.0267194
-0.0273627
-0.0279017
-0.0283333
-0.028653
-0.0288512
-0.0289174
0.027827
0.0235831
0.0193554
0.0154603
0.0123403
0.00981476
0.00771008
0.00590206
0.00429889
0.00283055
0.00144521
0.000105616
-0.00121341
-0.00252851
-0.00384994
-0.00518241
-0.00652715
-0.00788281
-0.00924552
-0.0106102
-0.011971
-0.0133207
-0.0146524
-0.0159586
-0.0172318
-0.0184647
-0.0196503
-0.0207815
-0.0218519
-0.0228556
-0.0237866
-0.0246397
-0.0254102
-0.0260933
-0.026685
-0.0271812
-0.027578
-0.027872
-0.0280633
-0.0281584
0.0304792
0.026103
0.0215573
0.0172412
0.0136655
0.0106981
0.00819309
0.00603877
0.00414625
0.00244611
0.000883049
-0.000586778
-0.00199256
-0.00335652
-0.00469619
-0.00601953
-0.00733225
-0.00863909
-0.00993794
-0.0112268
-0.0125047
-0.0137651
-0.0150029
-0.0162146
-0.0173924
-0.0185303
-0.0196243
-0.0206668
-0.021652
-0.0225763
-0.023433
-0.0242174
-0.0249262
-0.0255542
-0.0260976
-0.0265539
-0.0269191
-0.0271905
-0.0273666
-0.0274454
0.0329576
0.0283659
0.0235231
0.0188458
0.0148886
0.0115517
0.00870569
0.00624833
0.0040989
0.0021857
0.000451855
-0.00114524
-0.00264244
-0.00406621
-0.00543374
-0.00676139
-0.00805885
-0.00932968
-0.0105795
-0.0118095
-0.0130164
-0.0142007
-0.0153592
-0.016486
-0.0175791
-0.0186339
-0.0196435
-0.0206052
-0.0215142
-0.0223642
-0.0231523
-0.0238743
-0.0245249
-0.0251018
-0.0256015
-0.0260202
-0.0263562
-0.0266074
-0.0267713
-0.0268452
0.0348313
0.0301713
0.0251421
0.0202118
0.0159659
0.0123325
0.00920377
0.00648953
0.00411325
0.00200825
0.000118305
-0.00160285
-0.00319181
-0.00467766
-0.00608326
-0.00742549
-0.008717
-0.00996701
-0.0111813
-0.0123633
-0.013515
-0.0146362
-0.0157258
-0.0167819
-0.0178016
-0.0187817
-0.0197187
-0.0206088
-0.0214481
-0.0222328
-0.0229592
-0.0236236
-0.0242228
-0.0247533
-0.0252125
-0.0255978
-0.0259071
-0.0261388
-0.0262911
-0.0263606
0.0366372
0.0318245
0.0265943
0.021426
0.0169289
0.0130428
0.00967234
0.00673553
0.00415989
0.00188302
-0.000150138
-0.00198776
-0.00366596
-0.00521558
-0.00666356
-0.00802726
-0.00932171
-0.0105606
-0.0117499
-0.0128953
-0.0140029
-0.0150722
-0.016104
-0.0170998
-0.0180563
-0.0189714
-0.0198447
-0.0206715
-0.0214489
-0.0221754
-0.0228466
-0.0234593
-0.024012
-0.0245008
-0.0249234
-0.0252783
-0.0255633
-0.0257768
-0.0259179
-0.0259819
0.0380842
0.0331948
0.0278213
0.0224707
0.0177682
0.013672
0.0100956
0.00696469
0.00421547
0.0017851
-0.000380185
-0.002324
-0.00408722
-0.00570203
-0.00719229
-0.00858172
-0.00988744
-0.0111202
-0.0122927
-0.0134127
-0.0144831
-0.0155099
-0.0164952
-0.0174378
-0.0183397
-0.0192002
-0.0200158
-0.0207868
-0.0215109
-0.0221841
-0.0228058
-0.0233734
-0.0238832
-0.0243343
-0.0247246
-0.0250514
-0.0253141
-0.0255115
-0.0256417
-0.0257
0.039498
0.0344783
0.0289363
0.0234003
0.01851
0.0142255
0.0104678
0.00716749
0.00426235
0.00169428
-0.000588909
-0.00263291
-0.00447628
-0.0061518
-0.0076872
-0.00910491
-0.0104234
-0.011658
-0.0128202
-0.0139192
-0.0149622
-0.0159541
-0.0168985
-0.0177977
-0.0186527
-0.0194638
-0.0202307
-0.0209524
-0.0216276
-0.0222549
-0.0228323
-0.023358
-0.0238305
-0.0242476
-0.0246079
-0.0249099
-0.0251524
-0.0253345
-0.0254549
-0.0255078
0.0406838
0.0355715
0.0298954
0.0242046
0.0191511
0.0147016
0.0107838
0.00733301
0.00428884
0.00159684
-0.000793776
-0.00292985
-0.00484816
-0.00658191
-0.0081616
-0.00960874
-0.010943
-0.012183
-0.0133396
-0.0144233
-0.0154449
-0.0164083
-0.0173183
-0.0181805
-0.018995
-0.0197631
-0.0204873
-0.0211655
-0.0217974
-0.0223836
-0.0229215
-0.0234098
-0.0238485
-0.0242351
-0.0245682
-0.0248477
-0.0250719
-0.02524
-0.0253514
-0.0253994
0.0418403
0.0366065
0.0307741
0.0249208
0.0197086
0.0151073
0.0110437
0.00745502
0.00428679
0.00148232
-0.00100841
-0.00322729
-0.00521547
-0.00700664
-0.00862707
-0.0101039
-0.0114578
-0.0127036
-0.0138582
-0.0149333
-0.0159359
-0.0168759
-0.0177592
-0.0185878
-0.0193673
-0.0200998
-0.0207845
-0.0214243
-0.0220193
-0.0225674
-0.0230699
-0.0235259
-0.0239331
-0.024292
-0.0246015
-0.0248599
-0.0250674
-0.0252232
-0.0253261
-0.0253694
0.0428483
0.0375074
0.0315388
0.0255396
0.0201835
0.0154413
0.0112441
0.0075314
0.00424794
0.00134056
-0.00123984
-0.0035375
-0.00559086
-0.00743374
-0.0090958
-0.010602
-0.0119738
-0.0132299
-0.0143851
-0.0154523
-0.0164422
-0.017363
-0.0182216
-0.0190235
-0.0197726
-0.020472
-0.0211239
-0.0217296
-0.02229
-0.0228056
-0.0232763
-0.0237018
-0.0240819
-0.0244157
-0.024703
-0.024943
-0.0251352
-0.0252794
-0.0253748
-0.0254139
0.0438251
0.038362
0.0322385
0.0260854
0.0205863
0.0157093
0.0113864
0.00755796
0.00416806
0.00116563
-0.00149792
-0.00386848
-0.00598264
-0.00787444
-0.00957602
-0.0111109
-0.0125011
-0.0137682
-0.014926
-0.015988
-0.016968
-0.017873
-0.0187107
-0.0194895
-0.0202121
-0.0208823
-0.0215051
-0.0220805
-0.02261
-0.0230964
-0.0235385
-0.0239366
-0.0242919
-0.0246032
-0.0248702
-0.0250934
-0.0252719
-0.0254054
-0.0254939
-0.0255292
0.0446936
0.0391146
0.0328495
0.0265518
0.0209152
0.0159113
0.0114697
0.00753096
0.00404344
0.000952475
-0.0017906
-0.00422696
-0.00639799
-0.00833818
-0.010075
-0.0116374
-0.0130484
-0.0143249
-0.0154864
-0.0165475
-0.0175175
-0.0184093
-0.0192313
-0.0199879
-0.0206871
-0.0213336
-0.0219285
-0.0224767
-0.0229803
-0.0234388
-0.023855
-0.0242295
-0.0245613
-0.0248519
-0.0251014
-0.0253085
-0.0254743
-0.0255986
-0.0256806
-0.0257123
0.045533
0.0398258
0.0334032
0.0269531
0.0211795
0.0160495
0.0114933
0.0074513
0.00386929
0.000694941
-0.00212037
-0.00462085
-0.00684534
-0.00882851
-0.0106013
-0.0121902
-0.0136187
-0.0149075
-0.0160736
-0.0171324
-0.0180967
-0.0189774
-0.0197835
-0.0205228
-0.0212014
-0.0218246
-0.0223965
-0.0229202
-0.0233985
-0.0238333
-0.0242259
-0.0245777
-0.0248892
-0.025161
-0.0253934
-0.0255867
-0.0257408
-0.0258562
-0.0259325
-0.025961
0.0462873
0.040455
0.033882
0.0272842
0.0213763
0.0161237
0.0114566
0.00731521
0.00364333
0.000389887
-0.00249397
-0.00505469
-0.00732952
-0.00935349
-0.0111601
-0.0127743
-0.01422
-0.0155206
-0.0166918
-0.0177493
-0.018709
-0.0195801
-0.0203723
-0.0210961
-0.0217563
-0.0223584
-0.0229094
-0.023411
-0.0238662
-0.0242793
-0.0246506
-0.0249813
-0.0252742
-0.0255288
-0.0257455
-0.0259259
-0.0260695
-0.0261765
-0.0262475
-0.0262731
0.0470057
0.0410408
0.0343065
0.0275545
0.0215092
0.0161359
0.0113599
0.00711997
0.00336341
3.43211e-05
-0.002917
-0.00553258
-0.00785501
-0.00992
-0.0117562
-0.0133943
-0.014859
-0.0161686
-0.0173449
-0.0184042
-0.0193576
-0.0202202
-0.0210022
-0.0217099
-0.0223531
-0.0229383
-0.0234681
-0.0239492
-0.0243851
-0.0247766
-0.025128
-0.0254409
-0.0257153
-0.0259538
-0.026157
-0.0263247
-0.0264584
-0.0265583
-0.0266242
-0.0266469
0.0476576
0.0415575
0.0346636
0.0277586
0.0215781
0.0160835
0.0112002
0.00686629
0.00302537
-0.00037669
-0.00339009
-0.00606053
-0.00842824
-0.0105293
-0.0123962
-0.014057
-0.0155368
-0.0168578
-0.0180391
-0.0190975
-0.0200479
-0.0209028
-0.0216729
-0.022368
-0.0229957
-0.0235629
-0.0240753
-0.0245374
-0.0249534
-0.0253266
-0.0256595
-0.0259543
-0.0262128
-0.0264362
-0.0266259
-0.0267826
-0.026907
-0.0269997
-0.0270611
-0.0270813
0.0482678
0.0420279
0.0349655
0.0279017
0.0215835
0.0159673
0.0109775
0.00655054
0.00262747
-0.000845307
-0.00391883
-0.00664157
-0.0090524
-0.011188
-0.0130837
-0.0147659
-0.01626
-0.0175914
-0.0187774
-0.0198351
-0.0207824
-0.02163
-0.0223891
-0.0230722
-0.0236854
-0.0242356
-0.0247315
-0.0251759
-0.0255733
-0.0259291
-0.0262446
-0.0265223
-0.0267658
-0.0269753
-0.0271521
-0.0272984
-0.0274141
-0.0275001
-0.0275572
-0.0275751
0.0488154
0.0424334
0.0352032
0.0279805
0.0215224
0.015786
0.0106901
0.00616937
0.0021677
-0.00137399
-0.00450805
-0.0072787
-0.00973071
-0.0119017
-0.013822
-0.0155241
-0.0170343
-0.0183727
-0.0195626
-0.020622
-0.0215636
-0.0224039
-0.023155
-0.0238242
-0.0244232
-0.0249597
-0.0254377
-0.0258651
-0.0262466
-0.0265842
-0.0268831
-0.0271462
-0.027374
-0.02757
-0.0277358
-0.0278713
-0.0279787
-0.0280588
-0.0281116
-0.0281272
0.0493211
0.04279
0.0353833
0.0279959
0.0213969
0.0155373
0.0103351
0.00572343
0.00164183
-0.00196742
-0.00515765
-0.00797725
-0.0104688
-0.0126705
-0.0146168
-0.0163377
-0.0178597
-0.0192071
-0.0204004
-0.021458
-0.0223964
-0.0232295
-0.0239696
-0.0246278
-0.0252131
-0.0257337
-0.0261966
-0.0266076
-0.0269718
-0.0272936
-0.0275766
-0.0278239
-0.0280382
-0.0282213
-0.0283752
-0.0285014
-0.0286008
-0.0286747
-0.0287237
-0.0287371
0.049765
0.0430831
0.0354984
0.0279447
0.021203
0.0152197
0.00991102
0.00520834
0.00104796
-0.00262764
-0.00587299
-0.00873969
-0.0112692
-0.0135004
-0.015471
-0.0172091
-0.0187421
-0.0200972
-0.0212929
-0.0223483
-0.0232828
-0.0241083
-0.0248375
-0.0254844
-0.0260561
-0.026561
-0.0270089
-0.0274038
-0.0277512
-0.0280575
-0.028325
-0.028557
-0.0287579
-0.0289286
-0.029071
-0.0291879
-0.0292798
-0.0293476
-0.0293929
-0.0294043
0.0501588
0.0433211
0.0355521
0.0278275
0.0209389
0.0148317
0.00941595
0.00462033
0.000383873
-0.00335708
-0.00665879
-0.00956866
-0.0121345
-0.0143965
-0.0163871
-0.0181411
-0.0196867
-0.0210454
-0.0222426
-0.0232977
-0.0242248
-0.0250421
-0.0257627
-0.0263954
-0.0269532
-0.0274449
-0.0278755
-0.0282543
-0.0285869
-0.0288761
-0.0291282
-0.0293467
-0.029533
-0.0296913
-0.0298237
-0.0299307
-0.0300149
-0.0300774
-0.0301187
-0.0301281
0.0504945
0.0434955
0.0355384
0.0276395
0.0206036
0.0143694
0.00884572
0.0039595
-0.000355107
-0.00416069
-0.00751478
-0.0104694
-0.0130703
-0.0153584
-0.0173707
-0.0191392
-0.0206927
-0.0220571
-0.0232546
-0.0243053
-0.0252272
-0.0260354
-0.0267438
-0.0273647
-0.0279082
-0.0283836
-0.0287993
-0.0291618
-0.0294774
-0.0297513
-0.029988
-0.0301913
-0.0303647
-0.0305106
-0.0306317
-0.0307299
-0.0308065
-0.0308632
-0.030901
-0.0309083
0.0507728
0.043609
0.0354575
0.02738
0.0201936
0.0138308
0.00819838
0.00322092
-0.0011712
-0.00504065
-0.00844648
-0.0114443
-0.0140788
-0.0163919
-0.0184241
-0.0202055
-0.0217658
-0.0231341
-0.0243307
-0.0253761
-0.0262913
-0.0270897
-0.0277853
-0.0283933
-0.0289219
-0.0293808
-0.0297807
-0.0301266
-0.030425
-0.0306832
-0.0309044
-0.0310924
-0.0312525
-0.0313862
-0.031496
-0.031585
-0.0316542
-0.031705
-0.0317391
-0.0317447
0.0509868
0.043654
0.0353049
0.0270456
0.0197046
0.0132133
0.00747121
0.00240011
-0.00206707
-0.0059997
-0.00945886
-0.012496
-0.0151627
-0.0175022
-0.0195497
-0.0213425
-0.0229111
-0.0242789
-0.025473
-0.0265147
-0.0274193
-0.0282065
-0.028891
-0.0294825
-0.0299953
-0.0304393
-0.0308206
-0.0311492
-0.031432
-0.0316723
-0.0318773
-0.0320515
-0.0321966
-0.0323176
-0.0324171
-0.0324961
-0.0325576
-0.032603
-0.0326332
-0.0326367
0.0511413
0.0436329
0.035079
0.0266328
0.0191361
0.0125122
0.00665936
0.00149677
-0.00304791
-0.00704319
-0.0105517
-0.01363
-0.0163275
-0.0186886
-0.0207531
-0.0225557
-0.0241275
-0.0254964
-0.0266866
-0.0277197
-0.0286154
-0.0293902
-0.0300593
-0.0306361
-0.0311321
-0.0315576
-0.0319218
-0.0322324
-0.0324965
-0.0327203
-0.0329088
-0.0330667
-0.0331981
-0.0333061
-0.0333938
-0.0334634
-0.033517
-0.0335563
-0.0335828
-0.0335843
0.0512251
0.0435378
0.0347749
0.0261381
0.0184826
0.0117248
0.00576009
0.000505232
-0.00411642
-0.00817367
-0.011731
-0.0148487
-0.0175755
-0.0199569
-0.0220364
-0.023847
-0.0254206
-0.0267886
-0.0279731
-0.0289963
-0.0298811
-0.030642
-0.0312945
-0.031855
-0.0323329
-0.0327389
-0.0330848
-0.0333765
-0.0336212
-0.0338274
-0.0339987
-0.0341398
-0.0342567
-0.0343513
-0.0344267
-0.0344866
-0.0345321
-0.0345651
-0.0345877
-0.0345873
0.0512392
0.0433678
0.0343904
0.0255587
0.0177397
0.0108476
0.00477008
-0.00057965
-0.00527576
-0.00939427
-0.013002
-0.0161552
-0.0189097
-0.0213127
-0.0234023
-0.0252189
-0.0267955
-0.0281575
-0.0293343
-0.0303489
-0.0312181
-0.0319633
-0.0326004
-0.0331404
-0.0335986
-0.0339863
-0.0343102
-0.0345817
-0.0348082
-0.0349939
-0.0351469
-0.0352722
-0.0353724
-0.0354528
-0.0355167
-0.0355654
-0.0356024
-0.0356295
-0.0356477
-0.0356451
0.0511805
0.0431184
0.0339202
0.024889
0.0169056
0.00987524
0.00368362
-0.00175869
-0.00653175
-0.0107109
-0.0143648
-0.0175551
-0.0203358
-0.0227552
-0.0248564
-0.0266771
-0.028251
-0.0296085
-0.0307756
-0.031776
-0.032631
-0.0333586
-0.0339753
-0.0344959
-0.0349329
-0.0352979
-0.035601
-0.0358508
-0.0360554
-0.0362216
-0.0363553
-0.036462
-0.0365463
-0.0366118
-0.0366622
-0.0367003
-0.0367283
-0.0367486
-0.0367626
-0.0367577
0.0510423
0.0427855
0.0333608
0.0241254
0.0159741
0.00880402
0.00249734
-0.0030383
-0.00788765
-0.0121266
-0.0158259
-0.0190515
-0.0218566
-0.0242906
-0.026401
-0.0282235
-0.0297929
-0.0311432
-0.0322984
-0.0332828
-0.0341209
-0.0348288
-0.0354233
-0.0359223
-0.0363363
-0.0366769
-0.0369573
-0.037184
-0.0373653
-0.0375105
-0.0376238
-0.0377107
-0.0377779
-0.0378278
-0.037864
-0.0378907
-0.0379094
-0.0379223
-0.0379318
-0.0379248
0.0508204
0.0423636
0.0327073
0.0232636
0.0149399
0.00762982
0.00120712
-0.00442439
-0.0093472
-0.013645
-0.0173912
-0.0206475
-0.0234749
-0.0259248
-0.0280388
-0.0298608
-0.0314266
-0.0327639
-0.0339047
-0.0348737
-0.0356896
-0.0363753
-0.0369483
-0.0374207
-0.0378094
-0.0381265
-0.0383797