/*--------------------------------*- C++ -*----------------------------------*\
| =========                 |                                                 |
| \\      /  F ield         | OpenFOAM: The Open Source CFD Toolbox           |
|  \\    /   O peration     | Version:  2.3.0                                 |
|   \\  /    A nd           | Web:      www.OpenFOAM.org                      |
|    \\/     M anipulation  |                                                 |
\*---------------------------------------------------------------------------*/
FoamFile
{
    version     2.0;
    format      ascii;
    class       surfaceScalarField;
    location    "10000";
    object      phi;
}
// * * * * * * * * * * * * * * * * * * * * * * * * * * * * * * * * * * * * * //

dimensions      [0 3 -1 0 0 0 0];

internalField   nonuniform List<scalar> 
52739
(
0.00248756
1.24377e-05
0.00251816
-3.05987e-05
0.00255671
-3.85503e-05
0.00259568
-3.89726e-05
0.00263578
-4.00955e-05
0.00267694
-4.11569e-05
0.0027186
-4.16656e-05
0.00276047
-4.18667e-05
0.00280244
-4.19715e-05
0.00284449
-4.20526e-05
0.0028866
-4.21069e-05
0.00292873
-4.21293e-05
0.00297086
-4.21338e-05
0.00301297
-4.21105e-05
0.00305504
-4.20698e-05
0.00309705
-4.20109e-05
0.003139
-4.19441e-05
0.00318086
-4.18642e-05
0.00322265
-4.17895e-05
0.00326434
-4.16891e-05
0.00330595
-4.16117e-05
0.00334745
-4.14934e-05
0.00338885
-4.14008e-05
0.00343012
-4.12743e-05
0.00347131
-4.11894e-05
0.00351228
-4.09697e-05
0.00355313
-4.08454e-05
0.00359371
-4.05854e-05
0.00363411
-4.03957e-05
0.00367409
-3.99811e-05
0.00371366
-3.95699e-05
0.00375286
-3.91998e-05
0.00379126
-3.83975e-05
0.00382914
-3.78812e-05
0.00386586
-3.67245e-05
0.00390237
-3.65127e-05
0.00393742
-3.50474e-05
0.00397486
-3.74345e-05
0.00399914
-2.42853e-05
-4.55284e-05
0.00404467
0.00251954
-7.10256e-06
0.0025476
-5.86565e-05
0.0025843
-7.52522e-05
0.00262628
-8.09545e-05
0.00267109
-8.49014e-05
0.00271778
-8.78538e-05
0.0027659
-8.9778e-05
0.00281512
-9.10865e-05
0.00286524
-9.2095e-05
0.00291609
-9.2904e-05
0.00296757
-9.35817e-05
0.00301955
-9.4114e-05
0.00307197
-9.45569e-05
0.00312475
-9.48814e-05
0.0031778
-9.51289e-05
0.00323109
-9.53012e-05
0.00328459
-9.5439e-05
0.00333825
-9.55199e-05
0.00339208
-9.56269e-05
0.00344605
-9.56596e-05
0.00350017
-9.57289e-05
0.00355442
-9.57386e-05
0.00360872
-9.57063e-05
0.00366304
-9.55922e-05
0.0037172
-9.53518e-05
0.0037714
-9.51639e-05
0.00382533
-9.47799e-05
0.00387924
-9.44993e-05
0.00393288
-9.40272e-05
0.00398659
-9.36939e-05
0.00403997
-9.29485e-05
0.00409313
-9.23644e-05
0.00414555
-9.08142e-05
0.00419784
-9.01728e-05
0.00424892
-8.78031e-05
0.00430028
-8.7872e-05
0.00434869
-8.3459e-05
0.00439577
-8.45178e-05
0.00444755
-7.60581e-05
-9.04019e-05
0.00449242
0.00252429
-3.13958e-05
0.00255468
-8.90403e-05
0.0025925
-0.000113074
0.00263548
-0.000123932
0.00268135
-0.000130772
0.00272925
-0.00013576
0.00277868
-0.00013921
0.00282927
-0.000141673
0.00288077
-0.000143593
0.00293303
-0.000145163
0.00298596
-0.000146513
0.00303947
-0.000147622
0.00309349
-0.000148582
0.00314793
-0.00014932
0.00320274
-0.000149939
0.00325782
-0.00015038
0.00331317
-0.000150787
0.00336871
-0.000151065
0.00342447
-0.000151385
0.00348043
-0.000151612
0.00353657
-0.000151872
0.00359288
-0.000152055
0.00364941
-0.000152227
0.00370609
-0.000152274
0.00376296
-0.00015222
0.00381989
-0.000152099
0.0038769
-0.000151788
0.00393394
-0.000151544
0.00399089
-0.000150972
0.00404778
-0.000150591
0.00410429
-0.000149451
0.00416083
-0.000148912
0.00421683
-0.000146808
0.00427248
-0.000145828
0.00432748
-0.000142795
0.00438227
-0.00014267
0.00443621
-0.000137396
0.00448881
-0.000137119
0.00454266
-0.000129904
-0.000133516
0.00458577
0.00254103
-7.24215e-05
0.00257677
-0.000124782
0.00261624
-0.000152544
0.00265931
-0.000167001
0.00270482
-0.000176282
0.00275223
-0.000183179
0.00280117
-0.000188149
0.00285132
-0.000191815
0.00290241
-0.000194688
0.0029543
-0.000197054
0.00300688
-0.000199092
0.00306006
-0.000200807
0.00311379
-0.000202305
0.00316796
-0.000203491
0.00322252
-0.000204502
0.00327738
-0.000205244
0.00333253
-0.000205934
0.0033879
-0.000206435
0.00344351
-0.000206988
0.00349931
-0.000207415
0.00355533
-0.000207899
0.00361154
-0.00020826
0.00366796
-0.000208646
0.00372457
-0.000208886
0.0037814
-0.000209047
0.00383841
-0.000209107
0.0038956
-0.000208983
0.0039529
-0.000208839
0.00401018
-0.000208252
0.0040674
-0.000207815
0.00412453
-0.000206584
0.0041815
-0.000205876
0.00423826
-0.000203567
0.00429508
-0.000202654
0.00435162
-0.000199332
0.00440731
-0.000198356
0.00446243
-0.000192516
0.00451663
-0.000191323
0.00457048
-0.00018375
-0.000181406
0.00461837
0.00254906
-0.000121486
0.00258891
-0.000164624
0.00262984
-0.000193473
0.00267313
-0.000210298
0.00271845
-0.000221601
0.00276556
-0.00023029
0.00281417
-0.000236757
0.00286399
-0.000241638
0.00291478
-0.000245471
0.00296637
-0.000248645
0.00301866
-0.000251385
0.00307159
-0.000253736
0.00312508
-0.000255797
0.00317906
-0.000257471
0.00323345
-0.000258892
0.00328817
-0.00025996
0.00334318
-0.000260948
0.00339842
-0.000261675
0.00345391
-0.000262471
0.00350958
-0.000263085
0.00356548
-0.000263805
0.00362156
-0.000264335
0.00367784
-0.000264929
0.00373427
-0.000265318
0.0037909
-0.000265674
0.00384769
-0.000265893
0.00390466
-0.00026596
0.00396182
-0.000265999
0.00401914
-0.000265566
0.00407658
-0.00026526
0.00413411
-0.000264112
0.00419158
-0.000263349
0.00424908
-0.000261061
0.00430613
-0.000259711
0.00436286
-0.000256062
0.0044186
-0.000254093
0.00447429
-0.000248206
0.00452886
-0.000245892
0.00458323
-0.000238121
-0.000234955
0.00463678
0.00255361
-0.000175099
0.00259761
-0.000208616
0.00264063
-0.000236496
0.00268484
-0.000254508
0.00273049
-0.000267252
0.00277766
-0.000277462
0.00282619
-0.000285281
0.00287584
-0.000291288
0.00292638
-0.000296014
0.00297768
-0.000299943
0.00302964
-0.00030335
0.00308223
-0.000306323
0.00313539
-0.000308954
0.00318906
-0.000311142
0.00324316
-0.000312993
0.00329757
-0.00031437
0.00335224
-0.000315626
0.00340709
-0.000316519
0.00346215
-0.000317536
0.00351735
-0.000318287
0.0035728
-0.000319247
0.00362838
-0.000319917
0.0036842
-0.000320751
0.00374016
-0.000321278
0.00379636
-0.000321876
0.00385269
-0.000322224
0.00390927
-0.000322539
0.00396597
-0.0003227
0.00402305
-0.000322648
0.00408024
-0.000322442
0.00413784
-0.000321719
0.00419525
-0.000320752
0.00425305
-0.000318861
0.00431014
-0.000316801
0.00436749
-0.000313413
0.00442335
-0.00030996
0.0044796
-0.000304451
0.00453382
-0.000300116
0.00458767
-0.000291963
-0.000293384
0.0046461
0.00255608
-0.00023118
0.00260319
-0.000255723
0.00264786
-0.000281172
0.00269279
-0.000299435
0.00273868
-0.000313142
0.00278587
-0.000324656
0.0028343
-0.000333711
0.00288377
-0.000340753
0.00293404
-0.000346288
0.00298498
-0.000350883
0.00303653
-0.000354899
0.00308867
-0.000358464
0.00314137
-0.000361652
0.00319457
-0.000364343
0.00324819
-0.000366614
0.00330215
-0.000368324
0.00335638
-0.00036986
0.00341079
-0.000370921
0.00346541
-0.000372158
0.00352016
-0.000373036
0.00357516
-0.000374252
0.00363033
-0.000375085
0.00368581
-0.000376229
0.00374142
-0.000376888
0.00379733
-0.000377792
0.00385333
-0.000378224
0.00390966
-0.000378869
0.00396601
-0.000379042
0.00402279
-0.000379433
0.00407958
-0.000379228
0.00413694
-0.000379082
0.00419402
-0.000377835
0.00425178
-0.000376621
0.00430869
-0.000373704
0.00436619
-0.000370912
0.00442187
-0.000365646
0.00447796
-0.000360536
0.00453026
-0.000352424
0.00457945
-0.000341144
-0.00035102
0.00463708
0.00255712
-0.000288304
0.00260653
-0.000305131
0.0026525
-0.000327144
0.00269802
-0.000344949
0.00274406
-0.000359184
0.00279122
-0.000371817
0.00283953
-0.000382015
0.00288875
-0.000389982
0.00293869
-0.000396224
0.00298915
-0.000401347
0.00304015
-0.000405895
0.00309169
-0.000410001
0.0031438
-0.000413768
0.0031965
-0.000417035
0.00324966
-0.00041978
0.0033032
-0.000421868
0.00335704
-0.000423697
0.00341104
-0.000424918
0.00346524
-0.000426356
0.00351952
-0.000427323
0.00357405
-0.00042878
0.00362867
-0.000429706
0.00368358
-0.000431138
0.00373856
-0.000431864
0.00379379
-0.000433021
0.00384897
-0.000433405
0.00390439
-0.00043429
0.00395969
-0.000434341
0.00401533
-0.000435078
0.00407077
-0.000434665
0.00412654
-0.000434857
0.00418181
-0.000433103
0.00423726
-0.000432071
0.00429153
-0.000427969
0.00434557
-0.000424957
0.00439745
-0.00041753
0.00444854
-0.000411624
0.00449528
-0.000399162
0.00453512
-0.000380985
-0.000399416
0.00458352
0.00255703
-0.000345337
0.00260761
-0.000355704
0.00265505
-0.000374591
0.00270078
-0.000390677
0.00274671
-0.00040511
0.00279365
-0.000418762
0.0028417
-0.000430069
0.00289058
-0.000438861
0.00294008
-0.000445715
0.00298991
-0.000451183
0.00304021
-0.000456191
0.00309096
-0.000460755
0.00314236
-0.000465166
0.00319439
-0.000469065
0.00324701
-0.000472405
0.00330006
-0.00047491
0.00335342
-0.000477062
0.00340688
-0.000478372
0.00346044
-0.000479923
0.00351396
-0.00048084
0.00356762
-0.00048244
0.00362119
-0.000483279
0.00367495
-0.000484896
0.0037285
-0.00048541
0.00378204
-0.000486567
0.0038351
-0.000486461
0.00388797
-0.000487158
0.00393995
-0.000486324
0.00399152
-0.000486651
0.00404173
-0.000484875
0.00409106
-0.000484184
0.00413832
-0.000480366
0.00418371
-0.000477454
0.00422588
-0.000470142
0.00426484
-0.000463917
0.00429927
-0.000451961
0.00433002
-0.000442374
0.00435592
-0.000425065
0.00438094
-0.000406002
-0.000417549
0.00439907
0.0025567
-0.00040204
0.00260737
-0.000406368
0.00265526
-0.000422488
0.00270089
-0.000436299
0.00274643
-0.000450655
0.00279301
-0.000465338
0.00284074
-0.000477804
0.00288927
-0.000487388
0.00293834
-0.000494784
0.00298753
-0.000500376
0.00303709
-0.000505747
0.00308695
-0.000510622
0.00313755
-0.00051576
0.0031888
-0.000520321
0.00324081
-0.000524413
0.00329316
-0.00052726
0.00334578
-0.000529681
0.0033982
-0.000530789
0.0034504
-0.000532128
0.00350221
-0.000532645
0.0035537
-0.000533935
0.00360465
-0.000534225
0.00365507
-0.000535312
0.00370438
-0.000534724
0.00375261
-0.000534796
0.00379875
-0.000532605
0.00384297
-0.00053137
0.00388378
-0.000527138
0.00392151
-0.000524381
0.00395432
-0.000517685
0.00398263
-0.000512495
0.00400444
-0.000502176
0.0040205
-0.000493513
0.00402942
-0.000479058
0.00403215
-0.000466653
0.00402888
-0.000448687
0.00402073
-0.000434231
0.00400929
-0.00041362
0.00400002
-0.000396732
-0.000398079
0.00398055
0.00255597
-0.000458015
0.00260623
-0.000456626
0.00265355
-0.000469806
0.00269842
-0.000481164
0.00274312
-0.000495358
0.00278914
-0.000511358
0.00283655
-0.000525215
0.0028849
-0.000535736
0.00293369
-0.000543576
0.0029823
-0.000548987
0.00303095
-0.000554398
0.00307967
-0.000559335
0.00312903
-0.000565128
0.00317908
-0.000570366
0.00322984
-0.000575173
0.00328061
-0.000578028
0.00333123
-0.000580301
0.00338082
-0.000580383
0.00342936
-0.000580664
0.00347634
-0.000579628
0.00352161
-0.000579204
0.0035645
-0.000577121
0.00360448
-0.000575294
0.00364048
-0.00057072
0.00367161
-0.000565922
0.00369678
-0.000557779
0.0037149
-0.000549487
0.00372515
-0.000537393
0.00372688
-0.000526107
0.00372012
-0.000510931
0.00370513
-0.0004975
0.00368324
-0.000480287
0.00365624
-0.000466515
0.00362581
-0.000448621
0.00359433
-0.000435181
0.00356244
-0.000416789
0.00353266
-0.000404451
0.00350417
-0.000385137
0.00347877
-0.000371331
-0.000370493
0.00345119
0.00255446
-0.000512472
0.00260354
-0.000505708
0.00264961
-0.000515872
0.00269305
-0.000524608
0.00273651
-0.000538817
0.00278194
-0.000556795
0.00282922
-0.000572488
0.00287766
-0.000584182
0.0029261
-0.00059201
0.00297371
-0.000596603
0.00302057
-0.000601256
0.00306717
-0.000605933
0.00311409
-0.000612051
0.00316161
-0.000617889
0.00320898
-0.000622543
0.00325536
-0.000624401
0.00329968
-0.000624622
0.00334095
-0.000621654
0.00337826
-0.000617974
0.00341071
-0.000612073
0.00343708
-0.000605578
0.00345605
-0.000596094
0.0034663
-0.000585543
0.00346706
-0.000571474
0.00345763
-0.000556499
0.00343844
-0.000538586
0.00340992
-0.000520965
0.00337403
-0.000501509
0.00333212
-0.000484193
0.00328682
-0.000465631
0.00323992
-0.000450603
0.00319362
-0.000433988
0.00314878
-0.000421667
0.00310642
-0.000406263
0.00306705
-0.000395814
0.00303056
-0.000380295
0.00299739
-0.00037129
0.00296729
-0.000355036
0.00294035
-0.000344384
-0.000338953
0.00290881
0.00255206
-0.000564529
0.00259913
-0.000552776
0.00264334
-0.000560086
0.00268477
-0.000566038
0.00272666
-0.000580704
0.00277145
-0.000601586
0.00281861
-0.000619649
0.00286664
-0.000632212
0.00291344
-0.000638812
0.00295814
-0.000641301
0.0030011
-0.000644218
0.00304313
-0.000647961
0.00308454
-0.000653459
0.00312463
-0.000657978
0.00316155
-0.000659465
0.00319346
-0.00065631
0.00321839
-0.000649558
0.00323473
-0.000637996
0.00324071
-0.000623948
0.00323541
-0.000606779
0.00321781
-0.000587978
0.00318844
-0.000566724
0.00314852
-0.000545623
0.00310063
-0.000523582
0.00304687
-0.000502735
0.00299036
-0.000482077
0.00293294
-0.000463546
0.00287637
-0.000444943
0.00282094
-0.000428758
0.00276792
-0.000412608
0.00271681
-0.000399499
0.00266816
-0.000385334
0.00262164
-0.000375151
0.00257817
-0.000362787
0.00253771
-0.000355358
0.0025006
-0.000343187
0.00246629
-0.000336977
0.00243577
-0.000324511
0.00240831
-0.000316932
-0.0003071
0.00237646
0.00254821
-0.000612737
0.0025923
-0.000596868
0.00263445
-0.000602238
0.00267338
-0.00060497
0.00271315
-0.00062047
0.00275677
-0.000645204
0.00280253
-0.000665409
0.00284716
-0.000676849
0.0028882
-0.000679849
0.0029253
-0.0006784
0.00295871
-0.000677631
0.00298876
-0.000678011
0.00301347
-0.000678166
0.00303018
-0.000674684
0.00303585
-0.000665136
0.00302849
-0.000648957
0.00300703
-0.000628096
0.00297184
-0.000602804
0.00292424
-0.000576349
0.00286675
-0.000549286
0.00280227
-0.000523501
0.00273465
-0.0004991
0.00266622
-0.000477194
0.00259916
-0.000456521
0.00253448
-0.000438063
0.00247292
-0.000420515
0.00241434
-0.000404969
0.00235906
-0.000389654
0.00230653
-0.000376235
0.00225686
-0.00036294
0.0022094
-0.000352033
0.00216447
-0.000340407
0.00212151
-0.000332191
0.00208119
-0.000322462
0.00204354
-0.000317716
0.0020088
-0.000308439
0.00197654
-0.000304722
0.00194784
-0.000295807
0.00192192
-0.000291014
-0.000280958
0.00189578
0.00254305
-0.00065579
0.00258339
-0.000637207
0.00262306
-0.000641908
0.00265799
-0.000639893
0.00269423
-0.000656715
0.00273385
-0.000684827
0.00277206
-0.000703621
0.00280358
-0.000708369
0.00282714
-0.000703409
0.00284266
-0.000693912
0.0028493
-0.000684273
0.00284489
-0.0006736
0.00282589
-0.000659174
0.00279036
-0.000639151
0.00273906
-0.000613834
0.00267454
-0.000584433
0.00260087
-0.00055443
0.00252289
-0.000524821
0.00244348
-0.000496945
0.00236572
-0.000471521
0.00229084
-0.000448624
0.00221981
-0.000428073
0.00215263
-0.000410013
0.00208985
-0.000393738
0.00203129
-0.000379507
0.00197729
-0.000366507
0.0019274
-0.000355078
0.00188149
-0.000343744
0.00183876
-0.000333513
0.0017988
-0.000322972
0.00176102
-0.000314261
0.00172561
-0.000304991
0.001692
-0.000298578
0.00166056
-0.000291029
0.0016307
-0.000287852
0.00160281
-0.00028055
0.00157664
-0.000278553
0.00155379
-0.000272953
0.00153338
-0.000270604
-0.00026303
0.00151545
0.00253605
-0.000691843
0.0025714
-0.000672558
0.00260593
-0.000676429
0.00263417
-0.000668135
0.00266299
-0.000685535
0.00268702
-0.000708856
0.002697
-0.000713601
0.00268919
-0.000700568
0.00266648
-0.000680697
0.00263069
-0.000658121
0.00258125
-0.000634832
0.00251798
-0.000610332
0.00244194
-0.000583129
0.00235683
-0.000554043
0.00226743
-0.000524433
0.00217808
-0.000495085
0.00209174
-0.000468089
0.0020101
-0.000443183
0.00193402
-0.000420869
0.00186398
-0.000401473
0.00179992
-0.000384568
0.00174161
-0.00036976
0.00168826
-0.000356667
0.00164
-0.000345478
0.00159625
-0.000335757
0.00155677
-0.000327024
0.00152075
-0.000319055
0.00148826
-0.000311253
0.00145868
-0.000303934
0.00143177
-0.000296065
0.0014072
-0.00028969
0.00138501
-0.000282798
0.00136425
-0.000277823
0.00134463
-0.000271408
0.00132523
-0.000268446
0.00130759
-0.000262916
0.00129055
-0.000261511
0.0012749
-0.000257302
0.00126113
-0.000256831
-0.000250654
0.00124875
0.00252172
-0.00071356
0.00254903
-0.000699871
0.0025721
-0.000699503
0.00258845
-0.000684486
0.00259092
-0.000688
0.00256361
-0.000681541
0.00250504
-0.000655032
0.00242595
-0.00062148
0.00233667
-0.000591423
0.00224155
-0.000562992
0.00214328
-0.000536562
0.00204399
-0.000511044
0.00194494
-0.000484077
0.00184891
-0.000458013
0.00175929
-0.000434817
0.00167781
-0.000413605
0.00160452
-0.000394803
0.00154046
-0.000379116
0.00148522
-0.00036563
0.00143723
-0.000353488
0.00139519
-0.00034253
0.00135793
-0.000332497
0.00132502
-0.00032376
0.00129585
-0.000316301
0.00126996
-0.000309869
0.00124732
-0.000304388
0.00122758
-0.00029931
0.0012108
-0.000294476
0.0011964
-0.000289529
0.00118401
-0.00028368
0.00117277
-0.000278451
0.00116256
-0.000272588
0.0011524
-0.000267665
0.00114238
-0.000261384
0.00113126
-0.000257326
0.00112028
-0.000251937
0.00110817
-0.000249404
0.00109521
-0.000244344
0.0010821
-0.000243718
-0.000239567
0.00107101
0.00249262
-0.000706179
0.0025013
-0.00070855
0.0024926
-0.000690804
0.00245942
-0.000651313
0.0023837
-0.000612279
0.00226623
-0.000564063
0.00213314
-0.000521949
0.00200319
-0.000491528
0.00188166
-0.000469895
0.00176969
-0.000451017
0.0016674
-0.00043428
0.00157155
-0.000415189
0.00148135
-0.000393877
0.00140045
-0.000377112
0.00133179
-0.000366161
0.00127654
-0.00035835
0.00123432
-0.000352584
0.00120171
-0.000346503
0.00117554
-0.000339464
0.00115398
-0.000331925
0.00113599
-0.000324541
0.00112083
-0.000317341
0.00110803
-0.000310955
0.00109721
-0.000305484
0.00108805
-0.00030071
0.00108029
-0.000296623
0.00107365
-0.000292678
0.0010677
-0.00028852
0.00106194
-0.000283768
0.0010562
-0.000277948
0.0010497
-0.000271942
0.00104244
-0.000265329
0.00103388
-0.000259107
0.00102447
-0.000251977
0.00101342
-0.000246269
0.00100159
-0.000240111
0.000988181
-0.000235995
0.000974118
-0.000230281
0.000958515
-0.000228114
-0.000225195
0.000944143
0.0024204
-0.000626582
0.00235561
-0.00064376
0.00223103
-0.000566218
0.00207949
-0.000499777
0.00190662
-0.00043941
0.00173675
-0.000394193
0.0015914
-0.000376592
0.00147118
-0.000371316
0.00137489
-0.000373601
0.00129808
-0.000374202
0.00123294
-0.000369141
0.00117758
-0.000359832
0.00113519
-0.000351489
0.00110433
-0.000346249
0.00108185
-0.00034368
0.00106486
-0.000341365
0.00105119
-0.000338907
0.0010396
-0.000334919
0.00102971
-0.000329569
0.00102128
-0.000323498
0.00101417
-0.000317426
0.00100854
-0.000311717
0.0010043
-0.000306708
0.00100098
-0.000302172
0.000998139
-0.000297865
0.00099517
-0.000293654
0.000991619
-0.000289127
0.000987162
-0.000284063
0.000981654
-0.00027826
0.000975104
-0.000271399
0.000967075
-0.000263913
0.00095762
-0.000255874
0.000946612
-0.000248099
0.000934612
-0.000239978
0.000921167
-0.000232824
0.000906832
-0.000225776
0.000891181
-0.000220344
0.000875081
-0.000214182
0.000857838
-0.000210871
-0.000208267
0.000840911
0.00215246
-0.000279042
0.00183698
-0.000328282
0.00158128
-0.000310515
0.00137964
-0.000298138
0.00122834
-0.000288108
0.00112557
-0.000291421
0.0010588
-0.000309823
0.00101755
-0.000330065
0.000995087
-0.000351141
0.000982514
-0.00036163
0.000975728
-0.000362355
0.000973557
-0.000357661
0.000975123
-0.000353055
0.000977849
-0.000348975
0.000979004
-0.000344835
0.000977803
-0.000340164
0.000974412
-0.000335516
0.000969862
-0.000330369
0.000964951
-0.000324658
0.000959974
-0.000318521
0.000955109
-0.000312562
0.000950463
-0.000307071
0.000945923
-0.000302168
0.000941318
-0.000297567
0.000936402
-0.00029295
0.000930861
-0.000288112
0.000924435
-0.000282702
0.000916918
-0.000276546
0.000908227
-0.000269569
0.000898439
-0.000261611
0.000887429
-0.000252903
0.000875232
-0.000243678
0.000861799
-0.000234666
0.000847572
-0.000225751
0.000832309
-0.000217561
0.000816343
-0.00020981
0.000799478
-0.000203478
0.000782329
-0.000197033
0.000764484
-0.000193026
-0.0001903
0.000746517
0.000950516
-2.28088e-05
0.000930763
-0.000308528
0.000915137
-0.000294889
0.000891782
-0.000274783
0.000870277
-0.000266604
0.000857447
-0.00027859
0.000855402
-0.000307778
0.000862538
-0.000337201
0.000874591
-0.000363193
0.000889375
-0.000376415
0.000906012
-0.000378992
0.000921805
-0.000373454
0.00093385
-0.0003651
0.000940815
-0.00035594
0.000943393
-0.000347412
0.000942777
-0.000339548
0.000939356
-0.000332095
0.000933853
-0.000324866
0.000927025
-0.000317831
0.000919537
-0.000311032
0.000911699
-0.000304724
0.000903613
-0.000298984
0.00089519
-0.000293745
0.000886309
-0.000288687
0.000876839
-0.00028348
0.000866641
-0.000277913
0.00085562
-0.000271681
0.000843726
-0.000264651
0.000830986
-0.000256829
0.000817527
-0.000248152
0.000803427
-0.000238803
0.000788797
-0.000229047
0.000773561
-0.000219429
0.000757888
-0.000210078
0.000741722
-0.000201395
0.000725243
-0.000193331
0.000708277
-0.000186512
0.000691256
-0.000180012
0.000673987
-0.000175757
-0.000172792
0.000656478
0.00100739
0.000176556
0.000864309
-0.000165452
0.000804118
-0.000234699
0.000787829
-0.000258494
0.000800237
-0.000279011
0.000820453
-0.000298806
0.000842385
-0.00032971
0.000864393
-0.000359209
0.000885525
-0.000384325
0.000904733
-0.000395622
0.000918083
-0.000392343
0.000926678
-0.000382048
0.000930571
-0.000368993
0.000930615
-0.000355984
0.000927156
-0.000343954
0.000920953
-0.000333345
0.000912704
-0.000323846
0.000902886
-0.000315048
0.000891936
-0.00030688
0.000880319
-0.000299415
0.000868216
-0.000292622
0.000855637
-0.000286405
0.000842483
-0.000280591
0.000828675
-0.00027488
0.000814189
-0.000268993
0.000799013
-0.000262738
0.000783224
-0.000255892
0.00076693
-0.000248357
0.000750267
-0.000240166
0.000733441
-0.000231326
0.000716657
-0.000222019
0.00070009
-0.000212481
0.000683705
-0.000203045
0.000667471
-0.000193844
0.000651303
-0.000185226
0.00063526
-0.000177289
0.000619193
-0.000170445
0.000603371
-0.000164191
0.000587538
-0.000159924
-0.000156536
0.000571282
0.00112502
0.000258287
0.00101777
-5.82001e-05
0.00095493
-0.000171861
0.000926698
-0.000230262
0.000923299
-0.000275612
0.000934736
-0.000310244
0.000947833
-0.000342807
0.000958543
-0.000369918
0.000962672
-0.000388454
0.000959514
-0.000392465
0.000952177
-0.000385005
0.000943036
-0.000372908
0.000932666
-0.000358622
0.000921071
-0.000344389
0.000908637
-0.00033152
0.000895472
-0.00032018
0.000881556
-0.000309931
0.000866858
-0.00030035
0.00085154
-0.000291562
0.000835766
-0.000283642
0.000819508
-0.000276363
0.000802667
-0.000269564
0.000785147
-0.00026307
0.000766935
-0.000256667
0.00074807
-0.000250128
0.000728633
-0.000243301
0.000708847
-0.000236105
0.000688968
-0.000228479
0.000669277
-0.000220475
0.000650073
-0.000212122
0.000631565
-0.000203511
0.000613885
-0.0001948
0.000597026
-0.000186185
0.000580917
-0.000177735
0.000565406
-0.000169716
0.000550465
-0.000162348
0.000535885
-0.000155865
0.000521617
-0.000149922
0.000507265
-0.000145572
-0.000141648
0.000492376
0.00116917
0.000295868
0.00109402
1.69471e-05
0.00104198
-0.00011982
0.00101553
-0.000203812
0.00100762
-0.000267706
0.00101055
-0.000313168
0.00101364
-0.000345903
0.00101056
-0.000366835
0.000998781
-0.000376674
0.000981645
-0.000375329
0.000961332
-0.000364692
0.000939327
-0.000350903
0.000917729
-0.000337024
0.000897286
-0.000323947
0.000877885
-0.000312119
0.000859077
-0.000301372
0.000840393
-0.000291246
0.000821688
-0.000281645
0.000802968
-0.000272842
0.000784019
-0.000264692
0.000764616
-0.000256961
0.000744581
-0.000249529
0.000723831
-0.000242321
0.000702401
-0.000235237
0.000680407
-0.000228135
0.000658071
-0.000220965
0.000635708
-0.000213742
0.000613644
-0.000206415
0.000592193
-0.000199024
0.000571659
-0.000191588
0.000552279
-0.000184131
0.000534192
-0.000176713
0.000517412
-0.000169405
0.000501886
-0.000162209
0.000487419
-0.000155248
0.000473752
-0.000148681
0.000460544
-0.000142657
0.000447578
-0.000136956
0.00043441
-0.000132404
-0.000127936
0.000420699
0.00119729
0.000305329
0.00115008
6.41549e-05
0.00110895
-7.86922e-05
0.001085
-0.000179863
0.00107303
-0.000255731
0.00106369
-0.000303832
0.00105003
-0.000332242
0.00103101
-0.000347809
0.00100463
-0.000350299
0.000972958
-0.000343655
0.000940613
-0.000332347
0.000909861
-0.000320151
0.000881581
-0.000308743
0.000855859
-0.000298226
0.00083208
-0.00028834
0.000809582
-0.000278873
0.00078796
-0.000269624
0.000767039
-0.000260725
0.000746426
-0.000252229
0.000725654
-0.000243919
0.000704431
-0.000235738
0.000682575
-0.000227673
0.000660045
-0.000219791
0.000636905
-0.000212096
0.000613329
-0.000204559
0.000589587
-0.000197223
0.000566003
-0.000190158
0.000542948
-0.00018336
0.000520786
-0.000176862
0.000499837
-0.000170639
0.000480368
-0.000164662
0.000462532
-0.000158877
0.000446356
-0.000153229
0.00043173
-0.000147583
0.000418356
-0.000141874
0.000405822
-0.000136147
0.000393691
-0.000130526
0.000381677
-0.000124942
0.000369374
-0.000120101
-0.000115166
0.000356603
0.00121591
0.000296174
0.00118782
9.22385e-05
0.00115473
-4.56027e-05
0.00112753
-0.000152665
0.00110376
-0.000231953
0.00107971
-0.00027979
0.00104982
-0.000302352
0.00101218
-0.000310161
0.000970796
-0.00030892
0.000929629
-0.000302488
0.000891271
-0.000293989
0.000856602
-0.000285482
0.00082549
-0.000277631
0.000797469
-0.000270205
0.000771841
-0.000262712
0.000748094
-0.000255126
0.000725801
-0.000247331
0.000704464
-0.000239387
0.000683436
-0.000231201
0.000662239
-0.000222723
0.000640578
-0.000214077
0.000618286
-0.000205381
0.00059532
-0.000196825
0.000571766
-0.000188542
0.000547838
-0.00018063
0.000523837
-0.000173222
0.000500117
-0.000166438
0.000477074
-0.000160317
0.000455104
-0.000154892
0.000434546
-0.000150082
0.000415711
-0.000145826
0.000398812
-0.000141979
0.000383795
-0.000138212
0.000370358
-0.000134146
0.00035806
-0.000129576
0.000346443
-0.000124529
0.00033508
-0.000119163
0.000323711
-0.000113573
0.000312036
-0.000108426
-0.000103173
0.000300044
0.00121113
0.000291798
0.00118816
0.000115209
0.00115789
-1.53377e-05
0.00112446
-0.000119237
0.00108533
-0.000192823
0.00104035
-0.000234805
0.000993299
-0.000255303
0.000945557
-0.000262419
0.000899322
-0.000262685
0.00085645
-0.000259616
0.000817844
-0.000255384
0.00078353
-0.000251168
0.000752931
-0.000247032
0.000725484
-0.000242757
0.000700638
-0.000237867
0.000677959
-0.000232447
0.000656824
-0.000226195
0.000636446
-0.00021901
0.000616239
-0.000210994
0.000595784
-0.000202267
0.000574789
-0.000193082
0.000553108
-0.0001837
0.000530715
-0.000174433
0.000507727
-0.000165554
0.000484385
-0.000157288
0.000461016
-0.000149853
0.000438002
-0.000143424
0.000415753
-0.000138067
0.000394726
-0.000133865
0.000375431
-0.000130786
0.000358185
-0.000128581
0.000342978
-0.000126771
0.000329501
-0.000124736
0.000317309
-0.000121953
0.000305941
-0.000118208
0.000294991
-0.00011358
0.000284135
-0.000108307
0.000273204
-0.000102643
0.000262037
-9.72591e-05
-9.18866e-05
0.000250751
0.00113141
0.000367133
0.00109901
0.000147609
0.00106982
1.3853e-05
0.00103111
-8.05239e-05
0.000984416
-0.000146128
0.000935567
-0.000185957
0.000887891
-0.000207626
0.000842348
-0.000216876
0.00080014
-0.000220476
0.000761894
-0.00022137
0.000727758
-0.000221248
0.00069731
-0.000220719
0.00067
-0.000219722
0.000645592
-0.000218349
0.000623658
-0.000215933
0.000603532
-0.000212321
0.000584552
-0.000207216
0.000566019
-0.000200477
0.000547455
-0.000192431
0.000528499
-0.000183311
0.000508899
-0.000173482
0.000488533
-0.000163334
0.000467406
-0.000153306
0.000445657
-0.000143805
0.000423547
-0.000135179
0.000401419
-0.000127725
0.000379724
-0.00012173
0.000359069
-0.000117412
0.000340054
-0.00011485
0.000323066
-0.000113798
0.000308128
-0.000113643
0.00029493
-0.000113573
0.000283001
-0.000112806
0.000271883
-0.000110835
0.000261211
-0.000107537
0.000250706
-0.000103075
0.000240184
-9.77847e-05
0.000229599
-9.20577e-05
0.000218917
-8.65772e-05
-8.12987e-05
0.000208329
0.000780331
0.000100052
0.000851917
7.60231e-05
0.000860508
5.26119e-06
0.000843039
-6.30548e-05
0.000814918
-0.000118007
0.000783
-0.00015404
0.000750265
-0.000174891
0.000718036
-0.000184647
0.000687051
-0.000189492
0.000658012
-0.00019233
0.000631263
-0.0001945
0.000606824
-0.00019628
0.000584739
-0.000197636
0.000564836
-0.000198447
0.000546633
-0.00019773
0.000529524
-0.000195212
0.000513044
-0.000190735
0.000496686
-0.00018412
0.000480073
-0.000175818
0.000462926
-0.000166164
0.000445048
-0.000155603
0.000426336
-0.000144623
0.000406816
-0.000133785
0.000386643
-0.000123632
0.000366132
-0.000114668
0.000345791
-0.000107384
0.000326285
-0.000102224
0.000308285
-9.94111e-05
0.000292213
-9.87788e-05
0.000278092
-9.96769e-05
0.000265599
-0.00010115
0.000254252
-0.000102226
0.000243585
-0.000102139
0.000233252
-0.000100503
0.000223039
-9.73231e-05
0.000212818
-9.28541e-05
0.000202556
-8.75229e-05
0.000192318
-8.18193e-05
0.000182161
-7.64206e-05
-7.14316e-05
0.000172294
0.000580455
3.28479e-05
0.000644406
1.20718e-05
0.000662771
-1.31035e-05
0.000659633
-5.99175e-05
0.000648498
-0.000106872
0.000633563
-0.000139104
0.000616236
-0.000157564
0.000597586
-0.000165997
0.000578216
-0.000170122
0.00055883
-0.000172944
0.000540002
-0.000175672
0.000522315
-0.000178593
0.000505832
-0.000181153
0.000490255
-0.00018287
0.000475369
-0.000182844
0.00046092
-0.000180763
0.000446606
-0.00017642
0.000432148
-0.000169662
0.000417284
-0.000160954
0.000401812
-0.000150692
0.000385573
-0.000139364
0.000368483
-0.000127533
0.000350595
-0.000115897
0.000332168
-0.000105205
0.000313704
-9.62043e-05
0.000295898
-8.95779e-05
0.000279454
-8.578e-05
0.000264816
-8.4773e-05
0.000251988
-8.59505e-05
0.000240609
-8.82983e-05
0.000230174
-9.07153e-05
0.000220218
-9.22692e-05
0.000210409
-9.23304e-05
0.000200566
-9.06607e-05
0.000190629
-8.73859e-05
0.00018062
-8.28447e-05
0.000170626
-7.75293e-05
0.000160792
-7.19849e-05
0.000151224
-6.68528e-05
-6.23091e-05
0.000142102
0.000511786
3.43114e-05
0.0005313
-7.44226e-06
0.000542401
-2.42038e-05
0.000541853
-5.93697e-05
0.000534996
-0.000100015
0.000525576
-0.000129684
0.000514868
-0.000146856
0.000503453