/*--------------------------------*- C++ -*----------------------------------*\
| =========                 |                                                 |
| \\      /  F ield         | OpenFOAM: The Open Source CFD Toolbox           |
|  \\    /   O peration     | Version:  2.3.0                                 |
|   \\  /    A nd           | Web:      www.OpenFOAM.org                      |
|    \\/     M anipulation  |                                                 |
\*---------------------------------------------------------------------------*/
FoamFile
{
    version     2.0;
    format      ascii;
    class       volVectorField;
    location    "9700/topAir";
    object      U;
}
// * * * * * * * * * * * * * * * * * * * * * * * * * * * * * * * * * * * * * //

dimensions      [0 1 -1 0 0 0 0];

internalField   nonuniform List<vector> 
4000
(
(17.99554 0.008447569 0)
(13.48324 0.008910201 0)
(11.65376 0.00763483 0)
(12.13548 0.007415913 0)
(12.31888 0.007465195 0)
(12.26484 0.00747699 0)
(12.2437 0.007493313 0)
(12.24684 0.007525265 0)
(12.24628 0.007559964 0)
(12.24316 0.00759246 0)
(12.2404 0.007622327 0)
(12.23786 0.007649399 0)
(12.23524 0.007673583 0)
(12.23257 0.007695016 0)
(12.22988 0.007713927 0)
(12.22717 0.007730554 0)
(12.22444 0.007745125 0)
(12.2217 0.00775785 0)
(12.21895 0.007768919 0)
(12.21618 0.0077785 0)
(12.2134 0.007786741 0)
(12.21062 0.007793773 0)
(12.20782 0.007799713 0)
(12.20502 0.007804662 0)
(12.20221 0.00780871 0)
(12.19939 0.007811937 0)
(12.19657 0.007814413 0)
(12.19375 0.007816202 0)
(12.19092 0.007817359 0)
(12.18808 0.007817935 0)
(12.18525 0.007817976 0)
(12.18241 0.007817522 0)
(12.17956 0.007816608 0)
(12.17672 0.00781527 0)
(12.17387 0.007813535 0)
(12.17102 0.007811432 0)
(12.16817 0.007808985 0)
(12.16531 0.007806216 0)
(12.16246 0.007803146 0)
(12.1596 0.007799793 0)
(12.15674 0.007796175 0)
(12.15389 0.007792306 0)
(12.15103 0.007788201 0)
(12.14817 0.007783872 0)
(12.14531 0.007779332 0)
(12.14245 0.00777459 0)
(12.13959 0.007769657 0)
(12.13673 0.007764541 0)
(12.13386 0.007759251 0)
(12.131 0.007753792 0)
(12.12814 0.007748172 0)
(12.12528 0.007742396 0)
(12.12242 0.007736468 0)
(12.11956 0.007730393 0)
(12.1167 0.007724174 0)
(12.11385 0.007717814 0)
(12.11099 0.007711314 0)
(12.10813 0.007704677 0)
(12.10528 0.007697902 0)
(12.10243 0.007690989 0)
(12.09957 0.007683937 0)
(12.09672 0.007676745 0)
(12.09388 0.007669408 0)
(12.09103 0.007661924 0)
(12.08819 0.007654287 0)
(12.08535 0.007646492 0)
(12.08251 0.00763853 0)
(12.07967 0.007630393 0)
(12.07684 0.007622069 0)
(12.07401 0.007613546 0)
(12.07119 0.007604809 0)
(12.06837 0.00759584 0)
(12.06555 0.007586618 0)
(12.06274 0.007577119 0)
(12.05994 0.007567313 0)
(12.05714 0.007557167 0)
(12.05435 0.00754664 0)
(12.05157 0.007535684 0)
(12.0488 0.007524242 0)
(12.04603 0.007512243 0)
(12.04328 0.007499605 0)
(12.04054 0.007486224 0)
(12.03782 0.007471974 0)
(12.03511 0.007456696 0)
(12.03242 0.007440189 0)
(12.02976 0.007422198 0)
(12.02711 0.007402386 0)
(12.0245 0.007380307 0)
(12.02192 0.007355354 0)
(12.01938 0.007326668 0)
(12.0169 0.007293 0)
(12.01447 0.007252442 0)
(12.01212 0.007201914 0)
(12.00988 0.007136105 0)
(12.00776 0.007045341 0)
(12.00585 0.006910015 0)
(12.00422 0.006691788 0)
(12.00303 0.006291982 0)
(12.00281 0.005553228 0)
(12.00332 0.00374885 0)
(18.00861 0.006994363 0)
(13.49731 0.008789339 0)
(11.67449 0.008019382 0)
(12.15887 0.007994153 0)
(12.3449 0.008251243 0)
(12.29416 0.008402547 0)
(12.27622 0.008499218 0)
(12.28241 0.008583275 0)
(12.28491 0.008651954 0)
(12.28486 0.008704898 0)
(12.28517 0.008746036 0)
(12.28568 0.008778288 0)
(12.28612 0.008803508 0)
(12.2865 0.008823154 0)
(12.28686 0.008838387 0)
(12.28721 0.008850097 0)
(12.28753 0.008858968 0)
(12.28783 0.008865534 0)
(12.28812 0.008870214 0)
(12.28839 0.008873342 0)
(12.28865 0.008875183 0)
(12.2889 0.008875951 0)
(12.28914 0.008875819 0)
(12.28937 0.00887493 0)
(12.28959 0.008873401 0)
(12.28981 0.008871327 0)
(12.29001 0.00886879 0)
(12.29021 0.008865858 0)
(12.2904 0.008862586 0)
(12.29058 0.008859022 0)
(12.29076 0.008855208 0)
(12.29093 0.008851177 0)
(12.2911 0.008846959 0)
(12.29126 0.008842579 0)
(12.29142 0.008838057 0)
(12.29157 0.008833412 0)
(12.29172 0.008828659 0)
(12.29186 0.00882381 0)
(12.29201 0.008818877 0)
(12.29214 0.008813869 0)
(12.29228 0.008808792 0)
(12.29241 0.008803652 0)
(12.29253 0.008798455 0)
(12.29266 0.008793202 0)
(12.29278 0.008787896 0)
(12.2929 0.008782539 0)
(12.29301 0.008777129 0)
(12.29313 0.008771666 0)
(12.29324 0.008766148 0)
(12.29335 0.008760571 0)
(12.29345 0.008754933 0)
(12.29356 0.008749227 0)
(12.29366 0.008743448 0)
(12.29376 0.008737589 0)
(12.29386 0.008731642 0)
(12.29395 0.008725598 0)
(12.29405 0.008719445 0)
(12.29414 0.008713172 0)
(12.29424 0.008706766 0)
(12.29433 0.00870021 0)
(12.29442 0.00869349 0)
(12.29451 0.008686584 0)
(12.2946 0.008679473 0)
(12.29469 0.008672132 0)
(12.29478 0.008664534 0)
(12.29487 0.00865665 0)
(12.29496 0.008648445 0)
(12.29505 0.008639882 0)
(12.29514 0.008630917 0)
(12.29523 0.008621502 0)
(12.29532 0.008611581 0)
(12.29542 0.00860109 0)
(12.29552 0.008589956 0)
(12.29562 0.008578097 0)
(12.29572 0.008565414 0)
(12.29583 0.008551796 0)
(12.29594 0.008537109 0)
(12.29606 0.0085212 0)
(12.29618 0.008503884 0)
(12.29632 0.008484941 0)
(12.29646 0.008464107 0)
(12.29661 0.008441061 0)
(12.29677 0.008415408 0)
(12.29694 0.008386659 0)
(12.29713 0.008354199 0)
(12.29734 0.008317242 0)
(12.29757 0.008274773 0)
(12.29782 0.00822545 0)
(12.29811 0.008167468 0)
(12.29843 0.008098334 0)
(12.29879 0.008014516 0)
(12.2992 0.007910841 0)
(12.29968 0.007779473 0)
(12.30024 0.007608008 0)
(12.3009 0.0073761 0)
(12.30169 0.007047928 0)
(12.30264 0.006561335 0)
(12.30376 0.005783727 0)
(12.30499 0.004518408 0)
(12.30628 0.00202767 0)
(18.00268 0.0002218431 0)
(13.49128 0.002928142 0)
(11.66665 0.004150726 0)
(12.15116 0.004810969 0)
(12.33722 0.00538675 0)
(12.28635 0.005807482 0)
(12.26835 0.006106619 0)
(12.27453 0.006339516 0)
(12.27704 0.006527181 0)
(12.27701 0.006680024 0)
(12.27734 0.006806947 0)
(12.27789 0.006914328 0)
(12.27837 0.007006422 0)
(12.2788 0.007086293 0)
(12.27921 0.007156243 0)
(12.27961 0.007218019 0)
(12.27999 0.007272968 0)
(12.28035 0.007322147 0)
(12.2807 0.007366401 0)
(12.28104 0.007406414 0)
(12.28137 0.007442746 0)
(12.28169 0.00747586 0)
(12.28201 0.007506142 0)
(12.28231 0.007533921 0)
(12.28261 0.007559471 0)
(12.2829 0.007583031 0)
(12.28319 0.007604805 0)
(12.28347 0.007624969 0)
(12.28375 0.007643677 0)
(12.28402 0.007661062 0)
(12.28429 0.007677243 0)
(12.28456 0.007692322 0)
(12.28482 0.007706393 0)
(12.28508 0.007719535 0)
(12.28534 0.00773182 0)
(12.2856 0.007743312 0)
(12.28585 0.007754069 0)
(12.2861 0.00776414 0)
(12.28635 0.007773571 0)
(12.2866 0.007782402 0)
(12.28685 0.007790668 0)
(12.2871 0.007798401 0)
(12.28734 0.007805629 0)
(12.28759 0.007812376 0)
(12.28783 0.007818664 0)
(12.28807 0.007824511 0)
(12.28831 0.007829932 0)
(12.28856 0.00783494 0)
(12.2888 0.007839547 0)
(12.28904 0.007843759 0)
(12.28928 0.007847583 0)
(12.28952 0.007851023 0)
(12.28976 0.007854078 0)
(12.29 0.007856747 0)
(12.29024 0.007859028 0)
(12.29049 0.007860913 0)
(12.29073 0.007862393 0)
(12.29097 0.007863458 0)
(12.29122 0.007864091 0)
(12.29146 0.007864276 0)
(12.29171 0.007863992 0)
(12.29195 0.007863213 0)
(12.2922 0.00786191 0)
(12.29245 0.007860051 0)
(12.2927 0.007857597 0)
(12.29296 0.007854502 0)
(12.29321 0.007850718 0)
(12.29347 0.007846185 0)
(12.29373 0.007840837 0)
(12.294 0.007834598 0)
(12.29426 0.007827382 0)
(12.29453 0.007819087 0)
(12.29481 0.007809599 0)
(12.29509 0.007798783 0)
(12.29537 0.007786485 0)
(12.29566 0.007772523 0)
(12.29596 0.007756687 0)
(12.29626 0.007738725 0)
(12.29657 0.007718344 0)
(12.29689 0.00769519 0)
(12.29722 0.007668839 0)
(12.29756 0.007638777 0)
(12.29791 0.007604376 0)
(12.29828 0.007564857 0)
(12.29866 0.007519249 0)
(12.29906 0.007466323 0)
(12.29948 0.007404498 0)
(12.29992 0.007331717 0)
(12.3004 0.007245249 0)
(12.3009 0.007141408 0)
(12.30144 0.007015111 0)
(12.30203 0.006859208 0)
(12.30266 0.006663423 0)
(12.30336 0.006412689 0)
(12.30413 0.006084612 0)
(12.30498 0.005645423 0)
(12.30591 0.005045393 0)
(12.30691 0.004210811 0)
(12.30789 0.003051937 0)
(12.30882 0.001474974 0)
(18.00509 0.002248324 0)
(13.49331 0.004426254 0)
(11.66751 0.005405621 0)
(12.15154 0.005905081 0)
(12.33746 0.006354685 0)
(12.28644 0.006717083 0)
(12.26832 0.006986867 0)
(12.27444 0.007200248 0)
(12.27689 0.007375221 0)
(12.27682 0.007519228 0)
(12.27711 0.007638619 0)
(12.27764 0.0077386 0)
(12.27809 0.00782294 0)
(12.27849 0.00789448 0)
(12.27889 0.007955462 0)
(12.27926 0.008007665 0)
(12.27963 0.008052507 0)
(12.27997 0.008091137 0)
(12.28031 0.008124488 0)
(12.28064 0.008153326 0)
(12.28095 0.008178288 0)
(12.28126 0.008199899 0)
(12.28156 0.008218604 0)
(12.28186 0.008234774 0)
(12.28215 0.008248725 0)
(12.28243 0.008260727 0)
(12.28271 0.008271009 0)
(12.28298 0.008279768 0)
(12.28325 0.008287176 0)
(12.28352 0.008293379 0)
(12.28378 0.008298505 0)
(12.28404 0.008302667 0)
(12.28429 0.008305961 0)
(12.28455 0.008308472 0)
(12.2848 0.008310274 0)
(12.28505 0.008311433 0)
(12.2853 0.008312005 0)
(12.28554 0.00831204 0)
(12.28579 0.008311582 0)
(12.28603 0.008310668 0)
(12.28627 0.008309331 0)
(12.28652 0.008307599 0)
(12.28676 0.008305496 0)
(12.287 0.008303042 0)
(12.28723 0.008300254 0)
(12.28747 0.008297146 0)
(12.28771 0.008293726 0)
(12.28795 0.008290003 0)
(12.28819 0.008285981 0)
(12.28842 0.008281661 0)
(12.28866 0.008277042 0)
(12.2889 0.008272121 0)
(12.28914 0.00826689 0)
(12.28937 0.00826134 0)
(12.28961 0.008255458 0)
(12.28985 0.00824923 0)
(12.29009 0.008242636 0)
(12.29033 0.008235654 0)
(12.29057 0.008228258 0)
(12.29081 0.00822042 0)
(12.29106 0.008212104 0)
(12.2913 0.008203271 0)
(12.29155 0.008193879 0)
(12.2918 0.008183876 0)
(12.29205 0.008173206 0)
(12.2923 0.008161804 0)
(12.29255 0.008149599 0)
(12.29281 0.008136509 0)
(12.29307 0.008122439 0)
(12.29333 0.008107285 0)
(12.29359 0.008090926 0)
(12.29386 0.008073223 0)
(12.29414 0.00805402 0)
(12.29441 0.008033135 0)
(12.2947 0.008010357 0)
(12.29498 0.007985446 0)
(12.29528 0.007958116 0)
(12.29558 0.007928036 0)
(12.29589 0.007894815 0)
(12.29621 0.007857989 0)
(12.29653 0.007817001 0)
(12.29687 0.007771185 0)
(12.29722 0.007719727 0)
(12.29758 0.007661633 0)
(12.29795 0.007595672 0)
(12.29835 0.007520303 0)
(12.29876 0.007433576 0)
(12.29919 0.007332995 0)
(12.29965 0.007215318 0)
(12.30013 0.007076282 0)
(12.30064 0.006910202 0)
(12.30119 0.006709397 0)
(12.30178 0.006463369 0)
(12.30242 0.006157633 0)
(12.30309 0.005772156 0)
(12.30381 0.005279308 0)
(12.30455 0.004642121 0)
(12.30529 0.003813261 0)
(12.30593 0.002741148 0)
(12.30648 0.001400821 0)
(18.00504 0.00119099 0)
(13.49308 0.002453115 0)
(11.66687 0.00323836 0)
(12.15084 0.003793153 0)
(12.33677 0.004307171 0)
(12.28571 0.00474648 0)
(12.26755 0.005099482 0)
(12.27364 0.005389975 0)
(12.27607 0.005633877 0)
(12.27598 0.005839482 0)
(12.27626 0.006013901 0)
(12.27677 0.00616322 0)
(12.27722 0.006292104 0)
(12.27762 0.006404159 0)
(12.27801 0.006502244 0)
(12.27838 0.006588641 0)
(12.27874 0.006665175 0)
(12.27909 0.006733322 0)
(12.27943 0.006794284 0)
(12.27975 0.006849048 0)
(12.28007 0.006898431 0)
(12.28038 0.006943114 0)
(12.28068 0.00698367 0)
(12.28098 0.007020584 0)
(12.28127 0.007054266 0)
(12.28155 0.007085071 0)
(12.28183 0.0071133 0)
(12.28211 0.007139217 0)
(12.28238 0.00716305 0)
(12.28264 0.007184996 0)
(12.28291 0.007205231 0)
(12.28317 0.007223906 0)
(12.28342 0.007241157 0)
(12.28368 0.007257101 0)
(12.28393 0.007271844 0)
(12.28418 0.007285479 0)
(12.28443 0.007298087 0)
(12.28468 0.007309741 0)
(12.28493 0.007320506 0)
(12.28517 0.007330439 0)
(12.28541 0.007339589 0)
(12.28566 0.007348001 0)
(12.2859 0.007355713 0)
(12.28614 0.007362758 0)
(12.28638 0.007369164 0)
(12.28662 0.007374956 0)
(12.28685 0.007380152 0)
(12.28709 0.007384769 0)
(12.28733 0.007388818 0)
(12.28757 0.007392307 0)
(12.28781 0.00739524 0)
(12.28805 0.007397617 0)
(12.28828 0.007399435 0)
(12.28852 0.007400688 0)
(12.28876 0.007401363 0)
(12.289 0.007401446 0)
(12.28924 0.007400918 0)
(12.28948 0.007399755 0)
(12.28972 0.007397928 0)
(12.28997 0.007395403 0)
(12.29021 0.007392142 0)
(12.29045 0.007388098 0)
(12.2907 0.007383219 0)
(12.29095 0.007377447 0)
(12.2912 0.007370711 0)
(12.29145 0.007362935 0)
(12.2917 0.007354032 0)
(12.29196 0.007343899 0)
(12.29222 0.007332424 0)
(12.29248 0.007319477 0)
(12.29274 0.007304909 0)
(12.29301 0.007288552 0)
(12.29328 0.007270212 0)
(12.29356 0.007249666 0)
(12.29384 0.007226657 0)
(12.29413 0.007200887 0)
(12.29442 0.007172012 0)
(12.29472 0.007139625 0)
(12.29502 0.007103253 0)
(12.29533 0.007062335 0)
(12.29566 0.007016203 0)
(12.29599 0.006964059 0)
(12.29633 0.006904942 0)
(12.29668 0.006837682 0)
(12.29705 0.006760851 0)
(12.29743 0.006672679 0)
(12.29783 0.006570967 0)
(12.29824 0.006452947 0)
(12.29868 0.006315108 0)
(12.29914 0.006152958 0)
(12.29962 0.005960713 0)
(12.30013 0.005730878 0)
(12.30066 0.005453738 0)
(12.30123 0.00511675 0)
(12.30181 0.00470396 0)
(12.30241 0.004195729 0)
(12.30301 0.003569294 0)
(12.30358 0.002802381 0)
(12.30405 0.001877463 0)
(12.30444 0.0008155188 0)
(18.00604 0.001321179 0)
(13.49412 0.002620016 0)
(11.66766 0.003493642 0)
(12.15142 0.004142498 0)
(12.33722 0.004706006 0)
(12.28604 0.005178538 0)
(12.26777 0.005560776 0)
(12.27378 0.005875133 0)
(12.27615 0.006138168 0)
(12.27601 0.00635958 0)
(12.27625 0.006547082 0)
(12.27672 0.006707057 0)
(12.27714 0.006844445 0)
(12.27751 0.006963086 0)
(12.27788 0.007066042 0)
(12.27824 0.007155777 0)
(12.27858 0.007234288 0)
(12.27891 0.007303205 0)
(12.27924 0.007363874 0)
(12.27955 0.00741741 0)
(12.27986 0.007464749 0)
(12.28016 0.007506676 0)
(12.28045 0.007543857 0)
(12.28074 0.007576859 0)
(12.28102 0.007606167 0)
(12.2813 0.007632199 0)
(12.28157 0.007655314 0)
(12.28184 0.007675825 0)
(12.28211 0.007694003 0)
(12.28237 0.007710086 0)
(12.28263 0.007724281 0)
(12.28288 0.00773677 0)
(12.28314 0.007747714 0)
(12.28339 0.007757252 0)
(12.28364 0.00776551 0)
(12.28389 0.007772596 0)
(12.28413 0.007778608 0)
(12.28438 0.007783631 0)
(12.28462 0.007787739 0)
(12.28486 0.007790999 0)
(12.2851 0.007793468 0)
(12.28534 0.007795196 0)
(12.28558 0.007796227 0)
(12.28582 0.007796598 0)
(12.28606 0.00779634 0)
(12.2863 0.00779548 0)
(12.28653 0.007794037 0)
(12.28677 0.007792029 0)
(12.28701 0.007789465 0)
(12.28724 0.007786354 0)
(12.28748 0.007782697 0)
(12.28771 0.007778493 0)
(12.28795 0.007773734 0)
(12.28819 0.00776841 0)
(12.28842 0.007762506 0)
(12.28866 0.007756 0)
(12.2889 0.007748868 0)
(12.28914 0.007741079 0)
(12.28938 0.007732597 0)
(12.28962 0.007723379 0)
(12.28986 0.007713376 0)
(12.29011 0.007702533 0)
(12.29035 0.007690786 0)
(12.2906 0.00767806 0)
(12.29084 0.007664275 0)
(12.29109 0.007649337 0)
(12.29134 0.007633138 0)
(12.2916 0.007615561 0)
(12.29185 0.007596469 0)
(12.29211 0.007575707 0)
(12.29238 0.007553102 0)
(12.29264 0.007528454 0)
(12.29291 0.007501535 0)
(12.29318 0.007472086 0)
(12.29346 0.007439806 0)
(12.29374 0.007404353 0)
(12.29403 0.007365326 0)
(12.29432 0.007322263 0)
(12.29462 0.007274622 0)
(12.29493 0.007221768 0)
(12.29525 0.007162951 0)
(12.29557 0.007097281 0)
(12.2959 0.007023695 0)
(12.29625 0.006940918 0)
(12.2966 0.006847408 0)
(12.29697 0.006741286 0)
(12.29735 0.006620256 0)
(12.29775 0.006481487 0)
(12.29816 0.006321477 0)
(12.29859 0.006135873 0)
(12.29904 0.005919256 0)
(12.2995 0.005664891 0)
(12.29998 0.005364455 0)
(12.30048 0.005007817 0)
(12.30099 0.004582954 0)
(12.30149 0.004076329 0)
(12.30197 0.003473913 0)
(12.30241 0.002764693 0)
(12.30276 0.001942792 0)
(12.30303 0.001031382 0)
(18.00627 0.0009944899 0)
(13.49423 0.0019677 0)
(11.66749 0.002623115 0)
(12.15113 0.0031397 0)
(12.33688 0.003612368 0)
(12.28564 0.004027329 0)
(12.26732 0.004378955 0)
(12.27329 0.004679736 0)
(12.27563 0.004939651 0)
(12.27546 0.005164682 0)
(12.27568 0.005360016 0)
(12.27615 0.005530324 0)
(12.27655 0.005679467 0)
(12.27692 0.005810612 0)
(12.27728 0.005926397 0)
(12.27763 0.006029022 0)
(12.27797 0.00612032 0)
(12.2783 0.006201826 0)
(12.27862 0.006274829 0)
(12.27893 0.006340415 0)
(12.27924 0.006399504 0)
(12.27953 0.006452877 0)
(12.27983 0.006501202 0)
(12.28012 0.006545051 0)
(12.2804 0.006584917 0)
(12.28068 0.006621225 0)
(12.28095 0.006654344 0)
(12.28122 0.006684597 0)
(12.28148 0.006712263 0)
(12.28175 0.006737589 0)
(12.28201 0.006760791 0)
(12.28226 0.006782059 0)
(12.28252 0.00680156 0)
(12.28277 0.006819443 0)
(12.28302 0.006835838 0)
(12.28327 0.006850863 0)
(12.28352 0.006864619 0)
(12.28376 0.006877196 0)
(12.28401 0.006888676 0)
(12.28425 0.006899128 0)
(12.28449 0.006908615 0)
(12.28473 0.006917191 0)
(12.28497 0.006924902 0)
(12.28521 0.006931788 0)
(12.28545 0.006937884 0)
(12.28569 0.006943218 0)
(12.28593 0.006947811 0)
(12.28616 0.006951681 0)
(12.2864 0.006954841 0)
(12.28664 0.006957298 0)
(12.28687 0.006959053 0)
(12.28711 0.006960104 0)
(12.28735 0.006960443 0)
(12.28759 0.006960058 0)
(12.28782 0.006958931 0)
(12.28806 0.006957038 0)
(12.2883 0.006954351 0)
(12.28854 0.006950834 0)
(12.28878 0.006946447 0)
(12.28902 0.006941141 0)
(12.28926 0.00693486 0)
(12.2895 0.00692754 0)
(12.28975 0.006919109 0)
(12.28999 0.006909483 0)
(12.29024 0.006898569 0)
(12.29049 0.006886261 0)
(12.29074 0.006872438 0)
(12.29099 0.006856964 0)
(12.29125 0.006839686 0)
(12.29151 0.00682043 0)
(12.29177 0.006798999 0)
(12.29203 0.006775167 0)
(12.2923 0.006748681 0)
(12.29257 0.006719248 0)
(12.29285 0.006686536 0)
(12.29313 0.006650161 0)
(12.29341 0.006609683 0)
(12.2937 0.006564592 0)
(12.29399 0.006514295 0)
(12.2943 0.006458102 0)
(12.29461 0.006395204 0)
(12.29492 0.00632465 0)
(12.29525 0.006245317 0)
(12.29558 0.006155868 0)
(12.29592 0.006054712 0)
(12.29628 0.005939942 0)
(12.29664 0.005809263 0)
(12.29702 0.005659912 0)
(12.29741 0.00548855 0)
(12.29781 0.005291148 0)
(12.29822 0.005062861 0)
(12.29865 0.004797912 0)
(12.29908 0.004489511 0)
(12.29952 0.00412989 0)
(12.29995 0.003710532 0)
(12.30038 0.003222855 0)
(12.30077 0.002659366 0)
(12.30113 0.002016573 0)
(12.30139 0.001295848 0)
(12.30161 0.0005189227 0)
(18.00685 0.0009726172 0)
(13.49481 0.001882353 0)
(11.66795 0.002529662 0)
(12.15152 0.003081629 0)
(12.33722 0.003595858 0)
(12.28591 0.004052895 0)
(12.26754 0.004446989 0)
(12.27345 0.00478806 0)
(12.27574 0.005084679 0)
(12.27554 0.005342696 0)
(12.27572 0.005567437 0)
(12.27615 0.005763778 0)
(12.27653 0.005935853 0)
(12.27687 0.00608712 0)
(12.27721 0.006220497 0)
(12.27754 0.006338439 0)
(12.27786 0.006443016 0)
(12.27818 0.006535973 0)
(12.27849 0.006618789 0)
(12.27879 0.006692721 0)
(12.27908 0.006758839 0)
(12.27937 0.006818061 0)
(12.27966 0.006871176 0)
(12.27994 0.006918865 0)
(12.28021 0.006961718 0)
(12.28048 0.007000247 0)
(12.28075 0.007034901 0)
(12.28101 0.007066069 0)
(12.28128 0.007094095 0)
(12.28153 0.007119282 0)
(12.28179 0.007141896 0)
(12.28204 0.007162171 0)
(12.28229 0.007180316 0)
(12.28254 0.007196515 0)
(12.28279 0.007210932 0)
(12.28303 0.007223712 0)
(12.28328 0.007234983 0)
(12.28352 0.00724486 0)
(12.28376 0.007253444 0)
(12.284 0.007260823 0)
(12.28424 0.007267077 0)
(12.28448 0.007272274 0)
(12.28471 0.007276473 0)
(12.28495 0.007279727 0)
(12.28519 0.007282079 0)
(12.28542 0.007283567 0)
(12.28566 0.00728422 0)
(12.28589 0.007284063 0)
(12.28613 0.007283111 0)
(12.28636 0.007281378 0)
(12.2866 0.007278868 0)
(12.28683 0.007275581 0)
(12.28707 0.007271511 0)
(12.2873 0.007266646 0)
(12.28754 0.007260968 0)
(12.28778 0.007254453 0)
(12.28801 0.007247069 0)
(12.28825 0.007238779 0)
(12.28849 0.007229537 0)
(12.28873 0.007219292 0)
(12.28897 0.007207982 0)
(12.28921 0.007195536 0)
(12.28945 0.007181873 0)
(12.2897 0.007166903 0)
(12.28994 0.007150522 0)
(12.29019 0.007132612 0)
(12.29044 0.007113041 0)
(12.29069 0.007091659 0)
(12.29094 0.007068297 0)
(12.29119 0.007042765 0)
(12.29145 0.007014846 0)
(12.29171 0.006984295 0)
(12.29198 0.006950835 0)
(12.29224 0.00691415 0)
(12.29251 0.006873881 0)
(12.29279 0.006829615 0)
(12.29307 0.006780881 0)
(12.29335 0.006727138 0)
(12.29364 0.006667759 0)
(12.29394 0.006602023 0)
(12.29424 0.006529087 0)
(12.29454 0.006447975 0)
(12.29486 0.00635754 0)
(12.29518 0.006256441 0)
(12.29551 0.0061431 0)
(12.29585 0.006015658 0)
(12.2962 0.00587192 0)
(12.29655 0.005709298 0)
(12.29692 0.005524746 0)
(12.29729 0.005314691 0)
(12.29767 0.005074987 0)
(12.29806 0.004800879 0)
(12.29844 0.004487049 0)
(12.29883 0.00412776 0)
(12.29921 0.003717191 0)
(12.29957 0.0032501 0)
(12.29989 0.002722767 0)
(12.30018 0.002135054 0)
(12.30039 0.001490516 0)
(12.30055 0.0008067177 0)
(18.00715 0.0008193097 0)
(13.49505 0.001584356 0)
(11.66804 0.002123678 0)
(12.15153 0.002589188 0)
(12.33718 0.003027355 0)
(12.28582 0.003420799 0)
(12.26739 0.003764755 0)
(12.27326 0.004066814 0)
(12.27551 0.004333205 0)
(12.27528 0.004568051 0)
(12.27543 0.004775221 0)
(12.27584 0.004958361 0)
(12.2762 0.005120633 0)
(12.27653 0.005264745 0)
(12.27686 0.005393032 0)
(12.27718 0.005507507 0)
(12.27749 0.005609897 0)
(12.2778 0.005701687 0)
(12.2781 0.005784154 0)
(12.2784 0.005858395 0)
(12.27869 0.005925362 0)
(12.27898 0.005985876 0)
(12.27926 0.006040648 0)
(12.27953 0.006090299 0)
(12.27981 0.006135367 0)
(12.28008 0.006176326 0)
(12.28034 0.006213587 0)
(12.28061 0.006247514 0)
(12.28087 0.006278426 0)
(12.28112 0.006306606 0)
(12.28138 0.0063323 0)
(12.28163 0.00635573 0)
(12.28188 0.006377089 0)
(12.28213 0.006396552 0)
(12.28238 0.00641427 0)
(12.28262 0.00643038 0)
(12.28287 0.006445002 0)
(12.28311 0.006458243 0)
(12.28335 0.006470196 0)
(12.28359 0.006480945 0)
(12.28383 0.006490561 0)
(12.28407 0.006499109 0)
(12.28431 0.006506642 0)
(12.28455 0.006513208 0)
(12.28478 0.006518846 0)
(12.28502 0.006523587 0)
(12.28525 0.006527458 0)
(12.28549 0.006530477 0)
(12.28573 0.006532657 0)
(12.28596 0.006534006 0)
(12.2862 0.006534523 0)
(12.28643 0.006534204 0)
(12.28667 0.006533038 0)
(12.2869 0.006531007 0)
(12.28714 0.006528088 0)
(12.28738 0.006524251 0)
(12.28761 0.006519458 0)
(12.28785 0.006513666 0)
(12.28809 0.006506823 0)
(12.28833 0.006498869 0)
(12.28857 0.006489734 0)
(12.28881 0.006479339 0)
(12.28905 0.006467595 0)
(12.28929 0.006454401 0)
(12.28954 0.006439642 0)
(12.28978 0.006423189 0)
(12.29003 0.006404899 0)
(12.29028 0.006384607 0)
(12.29053 0.00636213 0)
(12.29078 0.006337263 0)
(12.29104 0.006309772 0)
(12.2913 0.006279396 0)
(12.29156 0.006245837 0)
(12.29182 0.00620876 0)
(12.29209 0.006167785 0)
(12.29236 0.006122479 0)
(12.29264 0.006072349 0)
(12.29291 0.006016833 0)
(12.2932 0.005955284 0)
(12.29349 0.005886964 0)
(12.29378 0.00581102 0)
(12.29408 0.00572647 0)
(12.29438 0.005632179 0)
(12.29469 0.005526833 0)
(12.29501 0.005408909 0)
(12.29533 0.005276642 0)
(12.29566 0.00512799 0)
(12.296 0.004960595 0)
(12.29634 0.004771751 0)
(12.29669 0.004558379 0)
(12.29704 0.004317022 0)
(12.29739 0.00404388 0)
(12.29774 0.00373491 0)
(12.29808 0.003386024 0)
(12.29841 0.002993441 0)
(12.29871 0.002554264 0)
(12.29899 0.002067199 0)
(12.29922 0.001533967 0)
(12.2994 0.0009590272 0)
(12.29953 0.000356442 0)
(18.00754 0.0007681597 0)
(13.49542 0.001469952 0)
(11.66833 0.001975804 0)
(12.15178 0.002431819 0)
(12.33741 0.002872164 0)
(12.28601 0.003277029 0)
(12.26754 0.003639869 0)
(12.27338 0.003965283 0)
(12.2756 0.004257198 0)
(12.27534 0.004518321 0)
(12.27547 0.004751566 0)
(12.27586 0.004959936 0)
(12.2762 0.005146198 0)
(12.2765 0.005312843 0)
(12.27681 0.005462109 0)
(12.27712 0.005595981 0)
(12.27742 0.005716211 0)
(12.27771 0.00582434 0)
(12.278 0.005921717 0)
(12.27829 0.006009522 0)
(12.27857 0.00608879 0)
(12.27885 0.00616043 0)
(12.27912 0.006225236 0)
(12.27939 0.006283909 0)
(12.27966 0.006337063 0)
(12.27992 0.006385243 0)
(12.28018 0.006428927 0)
(12.28044 0.00646854 0)
(12.28069 0.006504459 0)
(12.28095 0.006537018 0)
(12.2812 0.006566515 0)
(12.28145 0.006593213 0)
(12.28169 0.00661735 0)
(12.28194 0.006639135 0)
(12.28218 0.006658756 0)
(12.28242 0.006676382 0)
(12.28266 0.006692161 0)
(12.2829 0.006706226 0)
(12.28314 0.006718696 0)
(12.28338 0.006729676 0)
(12.28362 0.006739259 0)
(12.28385 0.006747527 0)
(12.28409 0.006754551 0)
(12.28433 0.006760392 0)
(12.28456 0.006765105 0)
(12.28479 0.006768732 0)
(12.28503 0.006771312 0)
(12.28526 0.006772873 0)
(12.2855 0.006773437 0)
(12.28573 0.006773018 0)
(12.28596 0.006771624 0)
(12.2862 0.006769256 0)
(12.28643 0.006765907 0)
(12.28666 0.006761564 0)
(12.2869 0.006756207 0)
(12.28713 0.006749808 0)
(12.28737 0.00674233 0)
(12.2876 0.006733732 0)
(12.28784 0.006723959 0)
(12.28808 0.006712952 0)
(12.28831 0.006700639 0)
(12.28855 0.006686938 0)
(12.28879 0.006671757 0)
(12.28903 0.00665499 0)
(12.28927 0.006636516 0)
(12.28952 0.006616203 0)
(12.28976 0.006593897 0)
(12.29001 0.006569428 0)
(12.29026 0.006542604 0)
(12.29051 0.006513209 0)
(12.29076 0.006481001 0)
(12.29101 0.006445707 0)
(12.29127 0.00640702 0)
(12.29153 0.006364591 0)
(12.29179 0.006318031 0)
(12.29206 0.006266895 0)
(12.29233 0.006210681 0)
(12.2926 0.006148821 0)
(12.29288 0.006080664 0)
(12.29316 0.006005475 0)
(12.29344 0.005922412 0)
(12.29373 0.005830514 0)
(12.29403 0.005728684 0)
(12.29432 0.00561567 0)
(12.29463 0.00549004 0)
(12.29494 0.005350165 0)
(12.29525 0.005194194 0)
(12.29556 0.005020037 0)
(12.29588 0.004825357 0)
(12.2962 0.004607569 0)
(12.29652 0.004363873 0)
(12.29684 0.004091314 0)
(12.29716 0.003786909 0)
(12.29746 0.003447851 0)
(12.29775 0.00307181 0)
(12.29801 0.002657392 0)
(12.29824 0.002204643 0)
(12.29844 0.001715977 0)
(12.29858 0.001195749 0)
(12.29869 0.000655061 0)
(18.00783 0.0006812915 0)
(13.49567 0.00130066 0)
(11.66849 0.001745515 0)
(12.15189 0.00214965 0)
(12.33748 0.002541324 0)
(12.28605 0.002902312 0)
(12.26753 0.003226995 0)
(12.27334 0.003519329 0)
(12.27552 0.003782556 0)
(12.27523 0.004018882 0)
(12.27534 0.004230729 0)
(12.2757 0.004420617 0)
(12.27602 0.004590886 0)
(12.27631 0.004743661 0)
(12.2766 0.00488086 0)
(12.27689 0.005004204 0)
(12.27718 0.005115224 0)
(12.27747 0.00521527 0)
(12.27775 0.005305539 0)
(12.27803 0.005387083 0)
(12.2783 0.00546083 0)
(12.27857 0.005527597 0)
(12.27884 0.005588104 0)
(12.27911 0.005642988 0)
(12.27937 0.00569281 0)
(12.27963 0.005738067 0)
(12.27989 0.005779197 0)
(12.28014 0.005816591 0)
(12.2804 0.005850595 0)
(12.28065 0.005881515 0)
(12.2809 0.005909626 0)
(12.28114 0.00593517 0)
(12.28139 0.005958364 0)
(12.28163 0.005979401 0)
(12.28188 0.005998452 0)
(12.28212 0.006015672 0)
(12.28236 0.006031195 0)
(12.2826 0.006045142 0)
(12.28284 0.00605762 0)
(12.28308 0.006068724 0)
(12.28331 0.006078535 0)
(12.28355 0.006087127 0)
(12.28378 0.00609456 0)
(12.28402 0.00610089 0)
(12.28425 0.00610616 0)
(12.28449 0.006110407 0)
(12.28472 0.006113659 0)
(12.28496 0.006115939 0)
(12.28519 0.006117261 0)
(12.28542 0.006117632 0)
(12.28566 0.006117053 0)
(12.28589 0.006115518 0)
(12.28612 0.006113013 0)
(12.28636 0.006109518 0)
(12.28659 0.006105006 0)
(12.28683 0.006099441 0)
(12.28706 0.006092781 0)
(12.2873 0.006084975 0)
(12.28753 0.006075964 0)
(12.28777 0.006065678 0)
(12.288 0.006054039 0)
(12.28824 0.006040956 0)
(12.28848 0.006026329 0)
(12.28872 0.006010042 0)
(12.28896 0.005991967 0)
(12.2892 0.005971961 0)
(12.28945 0.005949861 0)
(12.28969 0.005925487 0)
(12.28994 0.005898638 0)
(12.29019 0.005869086 0)
(12.29044 0.00583658 0)
(12.29069 0.005800835 0)
(12.29094 0.005761535 0)
(12.2912 0.005718324 0)
(12.29146 0.005670802 0)
(12.29172 0.00561852 0)
(12.29198 0.005560973 0)
(12.29225 0.00549759 0)
(12.29252 0.00542773 0)
(12.29279 0.005350669 0)
(12.29307 0.005265586 0)
(12.29335 0.005171559 0)
(12.29363 0.005067545 0)
(12.29392 0.004952368 0)
(12.29421 0.004824707 0)
(12.2945 0.004683082 0)
(12.2948 0.004525846 0)
(12.2951 0.004351178 0)
(12.2954 0.004157095 0)
(12.29569 0.003941467 0)
(12.29599 0.003702066 0)
(12.29628 0.003436645 0)
(12.29656 0.00314306 0)
(12.29683 0.002819459 0)
(12.29708 0.002464533 0)
(12.29732 0.002077858 0)
(12.29752 0.001660242 0)
(12.29768 0.001214333 0)
(12.2978 0.0007441457 0)
(12.2979 0.0002585243 0)
(18.00814 0.0006310252 0)
(13.49594 0.001198273 0)
(11.6687 0.001609709 0)
(12.15208 0.001991921 0)
(12.33766 0.002368386 0)
(12.28619 0.002721424 0)
(12.26766 0.003045183 0)
(12.27343 0.003342144 0)
(12.2756 0.003614166 0)
(12.27529 0.003862361 0)
(12.27537 0.004088222 0)
(12.27572 0.004293499 0)
(12.27602 0.004479924 0)
(12.27629 0.004649157 0)
(12.27657 0.004802771 0)
(12.27685 0.004942234 0)
(12.27713 0.005068894 0)
(12.2774 0.005183982 0)
(12.27768 0.005288613 0)
(12.27795 0.005383792 0)
(12.27821 0.005470425 0)
(12.27848 0.005549322 0)
(12.27874 0.005621211 0)
(12.279 0.005686745 0)
(12.27925 0.005746506 0)
(12.27951 0.005801018 0)
(12.27976 0.00585075 0)
(12.28001 0.00589612 0)
(12.28026 0.005937506 0)
(12.28051 0.005975245 0)
(12.28075 0.006009641 0)
(12.281 0.006040966 0)
(12.28124 0.006069465 0)
(12.28148 0.006095358 0)
(12.28172 0.006118841 0)
(12.28196 0.006140093 0)
(12.2822 0.006159272 0)
(12.28243 0.00617652 0)
(12.28267 0.006191965 0)
(12.2829 0.006205719 0)
(12.28314 0.006217883 0)
(12.28337 0.006228545 0)
(12.28361 0.006237783 0)
(12.28384 0.006245665 0)
(12.28407 0.006252248 0)
(12.2843 0.006257582 0)
(12.28454 0.006261705 0)
(12.28477 0.006264651 0)
(12.285 0.006266442 0)
(12.28523 0.006267096 0)
(12.28546 0.006266619 0)
(12.2857 0.006265012 0)
(12.28593 0.006262269 0)
(12.28616 0.006258374 0)
(12.28639 0.006253305 0)
(12.28662 0.00624703 0)
(12.28686 0.006239511 0)
(12.28709 0.006230699 0)
(12.28732 0.006220535 0)
(12.28756 0.006208954 0)
(12.28779 0.006195876 0)
(12.28803 0.006181211 0)
(12.28827 0.006164859 0)
(12.2885 0.006146704 0)
(12.28874 0.006126615 0)
(12.28898 0.006104448 0)
(12.28922 0.006080038 0)
(12.28946 0.006053203 0)
(12.28971 0.006023737 0)
(12.28995 0.005991413 0)
(12.2902 0.005955976 0)
(12.29045 0.005917139 0)
(12.2907 0.005874586 0)
(12.29095 0.00582796 0)
(12.2912 0.005776863 0)