/*--------------------------------*- C++ -*----------------------------------*\
| =========                 |                                                 |
| \\      /  F ield         | OpenFOAM: The Open Source CFD Toolbox           |
|  \\    /   O peration     | Version:  2.3.0                                 |
|   \\  /    A nd           | Web:      www.OpenFOAM.org                      |
|    \\/     M anipulation  |                                                 |
\*---------------------------------------------------------------------------*/
FoamFile
{
    version     2.0;
    format      ascii;
    class       surfaceScalarField;
    location    "9700/bottomAir";
    object      phi;
}
// * * * * * * * * * * * * * * * * * * * * * * * * * * * * * * * * * * * * * //

dimensions      [1 0 -1 0 0 0 0];

internalField   nonuniform List<scalar> 
7860
(
0.006663695
-1.218457e-06
0.006664051
-3.548552e-07
0.006664142
-8.999551e-08
0.006664256
-1.126791e-07
0.006664339
-8.290116e-08
0.006664394
-5.457995e-08
0.006664441
-4.62449e-08
0.006664484
-4.356275e-08
0.006664527
-4.220795e-08
0.006664569
-4.232703e-08
0.006664612
-4.345509e-08
0.006664657
-4.506633e-08
0.006664704
-4.693198e-08
0.006664753
-4.893757e-08
0.006664804
-5.100392e-08
0.006664857
-5.307706e-08
0.006664912
-5.512377e-08
0.006664969
-5.712215e-08
0.006665028
-5.905766e-08
0.006665089
-6.092087e-08
0.006665151
-6.270563e-08
0.006665216
-6.440857e-08
0.006665282
-6.602771e-08
0.006665349
-6.756281e-08
0.006665418
-6.901412e-08
0.006665488
-7.038309e-08
0.00666556
-7.167123e-08
0.006665633
-7.288084e-08
0.006665707
-7.401411e-08
0.006665782
-7.507376e-08
0.006665858
-7.60623e-08
0.006665935
-7.698254e-08
0.006666012
-7.783709e-08
0.006666091
-7.862868e-08
0.00666617
-7.935986e-08
0.00666625
-8.003315e-08
0.006666331
-8.065094e-08
0.006666412
-8.121547e-08
0.006666494
-8.172888e-08
0.006666576
-8.219311e-08
0.006666658
-8.260999e-08
0.006666741
-8.298113e-08
0.006666825
-8.330804e-08
0.006666908
-8.359195e-08
0.006666992
-8.383406e-08
0.006667076
-8.403522e-08
0.00666716
-8.419628e-08
0.006667244
-8.431773e-08
0.006667329
-8.440004e-08
0.006667413
-8.444335e-08
0.006667498
-8.444777e-08
0.006667582
-8.441305e-08
0.006667666
-8.433896e-08
0.006667751
-8.422486e-08
0.006667835
-8.407015e-08
0.006667918
-8.387381e-08
0.006668002
-8.363489e-08
0.006668085
-8.335199e-08
0.006668168
-8.302379e-08
0.006668251
-8.264849e-08
0.006668333
-8.222442e-08
0.006668415
-8.174943e-08
0.006668496
-8.122146e-08
0.006668577
-8.063801e-08
0.006668657
-7.999667e-08
0.006668736
-7.929462e-08
0.006668815
-7.852913e-08
0.006668892
-7.769706e-08
0.006668969
-7.679542e-08
0.006669045
-7.582082e-08
0.00666912
-7.477007e-08
0.006669193
-7.363962e-08
0.006669266
-7.242615e-08
0.006669337
-7.112604e-08
0.006669406
-6.973599e-08
0.006669475
-6.825247e-08
0.006669541
-6.667233e-08
0.006669606
-6.499232e-08
0.00666967
-6.320963e-08
0.006669731
-6.132148e-08
0.00666979
-5.932567e-08
0.006669847
-5.722013e-08
0.006669902
-5.500351e-08
0.006669955
-5.267472e-08
0.006670005
-5.023352e-08
0.006670053
-4.768009e-08
0.006670098
-4.501558e-08
0.00667014
-4.224168e-08
0.00667018
-3.936117e-08
0.006670216
-3.637748e-08
0.006670249
-3.329523e-08
0.006670279
-3.011977e-08
0.006670306
-2.685778e-08
0.00667033
-2.351696e-08
0.00667035
-2.010671e-08
0.006670366
-1.663872e-08
0.006670379
-1.312852e-08
0.006670389
-9.60254e-09
0.006670395
-6.095348e-09
-2.745118e-09
0.006662707
-6.615598e-07
0.006662711
-3.575899e-07
0.006662774
-1.525291e-07
0.006662792
-1.296187e-07
0.00666282
-1.104219e-07
0.006662856
-8.960752e-08
0.006662891
-8.170042e-08
0.006662928
-8.027226e-08
0.006662967
-8.098535e-08
0.006663008
-8.319654e-08
0.006663051
-8.646301e-08
0.006663096
-9.030195e-08
0.006663143
-9.443271e-08
0.006663193
-9.87012e-08
0.006663245
-1.030023e-07
0.006663299
-1.07264e-07
0.006663355
-1.114381e-07
0.006663413
-1.154923e-07
0.006663474
-1.19405e-07
0.006663536
-1.231618e-07
0.0066636
-1.267539e-07
0.006663665
-1.301762e-07
0.006663733
-1.334269e-07
0.006663802
-1.365059e-07
0.006663872
-1.394151e-07
0.006663944
-1.421573e-07
0.006664017
-1.447367e-07
0.006664091
-1.471576e-07
0.006664166
-1.494251e-07
0.006664243
-1.515445e-07
0.00666432
-1.535213e-07
0.006664398
-1.553609e-07
0.006664478
-1.57069e-07
0.006664557
-1.586508e-07
0.006664638
-1.601117e-07
0.00666472
-1.614567e-07
0.006664802
-1.626907e-07
0.006664884
-1.638181e-07
0.006664967
-1.648432e-07
0.006665051
-1.657701e-07
0.006665135
-1.666023e-07
0.006665219
-1.673431e-07
0.006665304
-1.679955e-07
0.006665389
-1.685621e-07
0.006665474
-1.690451e-07
0.006665559
-1.694465e-07
0.006665645
-1.697676e-07
0.00666573
-1.700098e-07
0.006665816
-1.701737e-07
0.006665902
-1.702598e-07
0.006665988
-1.702683e-07
0.006666073
-1.701987e-07
0.006666159
-1.700504e-07
0.006666245
-1.698223e-07
0.00666633
-1.695131e-07
0.006666415
-1.691209e-07
0.0066665
-1.686436e-07
0.006666585
-1.680786e-07
0.006666669
-1.67423e-07
0.006666753
-1.666736e-07
0.006666837
-1.658266e-07
0.00666692
-1.648781e-07
0.006667003
-1.638236e-07
0.006667085
-1.626585e-07
0.006667166
-1.613776e-07
0.006667247
-1.599755e-07
0.006667327
-1.584465e-07
0.006667406
-1.567847e-07
0.006667484
-1.549836e-07
0.006667561
-1.530368e-07
0.006667637
-1.509376e-07
0.006667712
-1.486792e-07
0.006667786
-1.462546e-07
0.006667859
-1.436568e-07
0.00666793
-1.408789e-07
0.006667999
-1.37914e-07
0.006668067
-1.347556e-07
0.006668134
-1.313973e-07
0.006668198
-1.278332e-07
0.006668261
-1.240581e-07
0.006668322
-1.20067e-07
0.00666838
-1.158561e-07
0.006668437
-1.114223e-07
0.006668491
-1.067637e-07
0.006668543
-1.018794e-07
0.006668592
-9.677014e-08
0.006668638
-9.143768e-08
0.006668682
-8.588574e-08
0.006668722
-8.011948e-08
0.00666876
-7.414605e-08
0.006668795
-6.797425e-08
0.006668826
-6.1615e-08
0.006668855
-5.508106e-08
0.006668879
-4.838737e-08
0.006668901
-4.15509e-08
0.006668919
-3.4591e-08
0.006668933
-2.75294e-08
0.006668944
-2.039125e-08
0.006668951
-1.320302e-08
-6.000253e-09
0.00666298
-3.683414e-07
0.006662878
-2.543839e-07
0.00666288
-1.541983e-07
0.006662891
-1.390229e-07
0.006662912
-1.308486e-07
0.006662943
-1.204544e-07
0.006662978
-1.164529e-07
0.006663015
-1.172169e-07
0.006663054
-1.201401e-07
0.006663095
-1.244856e-07
0.006663139
-1.298568e-07
0.006663184
-1.35843e-07
0.006663232
-1.421565e-07
0.006663281
-1.486135e-07
0.006663333
-1.550862e-07
0.006663388
-1.614828e-07
0.006663444
-1.677396e-07
0.006663502
-1.738121e-07
0.006663562
-1.796701e-07
0.006663624
-1.852932e-07
0.006663688
-1.906688e-07
0.006663754
-1.957898e-07
0.006663821
-2.006531e-07
0.006663889
-2.052593e-07
0.006663959
-2.09611e-07
0.006664031
-2.137127e-07
0.006664104
-2.175703e-07
0.006664178
-2.211906e-07
0.006664253
-2.245813e-07
0.006664329
-2.277502e-07
0.006664406
-2.307056e-07
0.006664484
-2.334559e-07
0.006664563
-2.360092e-07
0.006664643
-2.383737e-07
0.006664723
-2.405573e-07
0.006664804
-2.425676e-07
0.006664886
-2.444118e-07
0.006664968
-2.460968e-07
0.006665051
-2.476289e-07
0.006665134
-2.490141e-07
0.006665218
-2.502579e-07
0.006665302
-2.51365e-07
0.006665386
-2.523401e-07
0.00666547
-2.53187e-07
0.006665555
-2.53909e-07
0.00666564
-2.54509e-07
0.006665725
-2.549892e-07
0.006665811
-2.553515e-07
0.006665896
-2.555969e-07
0.006665982
-2.557261e-07
0.006666067
-2.557392e-07
0.006666152
-2.556358e-07
0.006666238
-2.554148e-07
0.006666323
-2.550746e-07
0.006666408
-2.546132e-07
0.006666493
-2.540278e-07
0.006666578
-2.533152e-07
0.006666662
-2.524715e-07
0.006666746
-2.514924e-07
0.00666683
-2.50373e-07
0.006666913
-2.491078e-07
0.006666996
-2.476906e-07
0.006667078
-2.46115e-07
0.00666716
-2.443738e-07
0.006667241
-2.424594e-07
0.006667321
-2.403636e-07
0.006667401
-2.380778e-07
0.00666748
-2.355929e-07
0.006667558
-2.328996e-07
0.006667634
-2.299879e-07
0.00666771
-2.268478e-07
0.006667785
-2.234689e-07
0.006667859
-2.198407e-07
0.006667931
-2.159527e-07
0.006668002
-2.117943e-07
0.006668071
-2.073553e-07
0.006668139
-2.026255e-07
0.006668205
-1.975954e-07
0.00666827
-1.92256e-07
0.006668332
-1.86599e-07
0.006668393
-1.806172e-07
0.006668451
-1.743045e-07
0.006668508
-1.676562e-07
0.006668561
-1.606691e-07
0.006668613
-1.533419e-07
0.006668662
-1.456752e-07
0.006668708
-1.37672e-07
0.006668751
-1.293373e-07
0.006668792
-1.206789e-07
0.00666883
-1.117074e-07
0.006668864
-1.02436e-07
0.006668895
-9.288086e-08
0.006668923
-8.306107e-08
0.006668948
-7.299871e-08
0.006668969
-6.271885e-08
0.006668987
-5.224949e-08
0.006669001
-4.162122e-08
0.006669011
-3.086718e-08
0.006669018
-2.001881e-08
-9.108285e-09
0.006663069
-2.111715e-07
0.00666301
-1.945758e-07
0.006663014
-1.568522e-07
0.006663026
-1.499963e-07
0.006663044
-1.47955e-07
0.006663069
-1.452345e-07
0.006663099
-1.459782e-07
0.006663132
-1.500785e-07
0.006663168
-1.560956e-07
0.006663206
-1.63347e-07
0.006663248
-1.714512e-07
0.006663292
-1.800642e-07
0.006663339
-1.889213e-07
0.006663388
-1.978399e-07
0.006663439
-2.066897e-07
0.006663493
-2.153766e-07
0.006663549
-2.238334e-07
0.006663607
-2.320132e-07
0.006663667
-2.398838e-07
0.006663729
-2.474241e-07
0.006663793
-2.546214e-07
0.006663859
-2.614693e-07
0.006663926
-2.679662e-07
0.006663995
-2.741143e-07
0.006664065
-2.799185e-07
0.006664137
-2.853859e-07
0.00666421
-2.905252e-07
0.006664284
-2.953461e-07
0.006664359
-2.998593e-07
0.006664435
-3.040759e-07
0.006664512
-3.080071e-07
0.006664591
-3.116642e-07
0.00666467
-3.150587e-07
0.006664749
-3.182014e-07
0.00666483
-3.211031e-07
0.006664911
-3.237739e-07
0.006664993
-3.262238e-07
0.006665075
-3.284618e-07
0.006665158
-3.304966e-07
0.006665241
-3.323361e-07
0.006665325
-3.339876e-07
0.006665409
-3.354578e-07
0.006665493
-3.367526e-07
0.006665578
-3.378771e-07
0.006665663
-3.388359e-07
0.006665748
-3.396328e-07
0.006665833
-3.402708e-07
0.006665919
-3.407523e-07
0.006666004
-3.410788e-07
0.006666089
-3.412513e-07
0.006666175
-3.412698e-07
0.00666626
-3.411337e-07
0.006666346
-3.408416e-07
0.006666431
-3.403916e-07
0.006666516
-3.397807e-07
0.006666601
-3.390054e-07
0.006666686
-3.380613e-07
0.00666677
-3.369433e-07
0.006666855
-3.356457e-07
0.006666938
-3.341618e-07
0.006667022
-3.324842e-07
0.006667105
-3.306051e-07
0.006667187
-3.285154e-07
0.006667269
-3.262058e-07
0.00666735
-3.236659e-07
0.00666743
-3.20885e-07
0.00666751
-3.178514e-07
0.006667589
-3.14553e-07
0.006667667
-3.109772e-07
0.006667744
-3.071107e-07
0.00666782
-3.0294e-07
0.006667895
-2.984512e-07
0.006667969
-2.9363e-07
0.006668042
-2.884624e-07
0.006668113
-2.82934e-07
0.006668182
-2.770309e-07
0.006668251
-2.707394e-07
0.006668317
-2.640466e-07
0.006668382
-2.5694e-07
0.006668444
-2.494086e-07
0.006668505
-2.414423e-07
0.006668564
-2.330327e-07
0.00666862
-2.241731e-07
0.006668675
-2.148591e-07
0.006668726
-2.050885e-07
0.006668776
-1.94862e-07
0.006668822
-1.841829e-07
0.006668866
-1.73058e-07
0.006668907
-1.614974e-07
0.006668944
-1.495149e-07
0.006668979
-1.371281e-07
0.006669011
-1.243583e-07
0.006669039
-1.112308e-07
0.006669063
-9.777493e-08
0.006669085
-8.402349e-08
0.006669103
-7.001308e-08
0.006669117
-5.578322e-08
0.006669127
-4.137677e-08
0.006669134
-2.683511e-08
-1.221624e-08
0.006663137
-1.426211e-07
0.0066631
-1.56229e-07
0.006663092
-1.479296e-07
0.006663095
-1.521812e-07
0.006663106
-1.58719e-07
0.006663126
-1.646293e-07
0.006663152
-1.718594e-07
0.006663183
-1.808022e-07
0.006663218
-1.908752e-07
0.006663256
-2.016693e-07
0.006663297
-2.129356e-07
0.006663342
-2.244493e-07
0.006663389
-2.3602e-07
0.006663438
-2.475026e-07
0.00666349
-2.587887e-07
0.006663545
-2.697963e-07
0.006663601
-2.804653e-07
0.00666366
-2.907527e-07
0.00666372
-3.006285e-07
0.006663783
-3.100737e-07
0.006663847
-3.190771e-07
0.006663913
-3.276345e-07
0.006663981
-3.357462e-07
0.00666405
-3.434169e-07
0.006664121
-3.506541e-07
0.006664193
-3.574678e-07
0.006664266
-3.638697e-07
0.006664341
-3.698726e-07
0.006664416
-3.754902e-07
0.006664493
-3.807369e-07
0.00666457
-3.856271e-07
0.006664649
-3.901753e-07
0.006664728
-3.943957e-07
0.006664808
-3.983023e-07
0.006664889
-4.019087e-07
0.00666497
-4.052277e-07
0.006665052
-4.082715e-07
0.006665135
-4.110519e-07
0.006665218
-4.135795e-07
0.006665301
-4.158644e-07
0.006665385
-4.179157e-07
0.00666547
-4.197416e-07
0.006665554
-4.213497e-07
0.006665639
-4.227465e-07
0.006665724
-4.239375e-07
0.006665809
-4.249276e-07
0.006665895
-4.257205e-07
0.00666598
-4.263191e-07
0.006666066
-4.267254e-07
0.006666151
-4.269406e-07
0.006666237
-4.269647e-07
0.006666323
-4.26797e-07
0.006666408
-4.264358e-07
0.006666494
-4.258785e-07
0.006666579
-4.251216e-07
0.006666664
-4.241605e-07
0.006666749
-4.229899e-07
0.006666834
-4.216034e-07
0.006666918
-4.199937e-07
0.006667002
-4.181526e-07
0.006667086
-4.160708e-07
0.006667169
-4.137384e-07
0.006667251
-4.111441e-07
0.006667333
-4.082762e-07
0.006667415
-4.051218e-07
0.006667496
-4.016672e-07
0.006667576
-3.978979e-07
0.006667655
-3.937987e-07
0.006667733
-3.893535e-07
0.006667811
-3.845457e-07
0.006667887
-3.793583e-07
0.006667962
-3.737735e-07
0.006668037
-3.677735e-07
0.006668109
-3.613403e-07
0.006668181
-3.544557e-07
0.006668251
-3.471021e-07
0.006668319
-3.392619e-07
0.006668386
-3.309184e-07
0.006668451
-3.220559e-07
0.006668515
-3.126599e-07
0.006668576
-3.027173e-07
0.006668635
-2.922173e-07
0.006668692
-2.811508e-07
0.006668747
-2.695119e-07
0.006668799
-2.572972e-07
0.006668849
-2.445071e-07
0.006668896
-2.311454e-07
0.00666894
-2.172201e-07
0.006668981
-2.027436e-07
0.006669019
-1.877326e-07
0.006669054
-1.722091e-07
0.006669086
-1.561995e-07
0.006669115
-1.397354e-07
0.00666914
-1.228534e-07
0.006669161
-1.055947e-07
0.006669179
-8.800475e-08
0.006669193
-7.013301e-08
0.006669204
-5.203289e-08
0.006669211
-3.375594e-08
-1.537621e-08
0.006663139
-1.005168e-07
0.006663116
-1.322684e-07
0.006663113
-1.437555e-07
0.006663119
-1.579567e-07
0.006663133
-1.720915e-07
0.006663154
-1.850196e-07
0.00666318
-1.979398e-07
0.006663211
-2.114506e-07
0.006663246
-2.254567e-07
0.006663284
-2.397693e-07
0.006663325
-2.542408e-07
0.006663369
-2.687261e-07
0.006663416
-2.83087e-07
0.006663466
-2.972076e-07
0.006663518
-3.109964e-07
0.006663572
-3.243818e-07
0.006663629
-3.373102e-07
0.006663688
-3.497428e-07
0.006663749
-3.616531e-07
0.006663812
-3.730249e-07
0.006663877
-3.838498e-07
0.006663943
-3.941263e-07
0.006664011
-4.038581e-07
0.006664081
-4.130527e-07
0.006664152
-4.217212e-07
0.006664224
-4.298769e-07
0.006664298
-4.37535e-07
0.006664372
-4.447119e-07
0.006664448
-4.514251e-07
0.006664525
-4.576921e-07
0.006664603
-4.635309e-07
0.006664682
-4.689595e-07
0.006664761
-4.739952e-07
0.006664841
-4.786551e-07
0.006664922
-4.829557e-07
0.006665004
-4.869127e-07
0.006665086
-4.90541e-07
0.006665169
-4.938545e-07
0.006665252
-4.968664e-07
0.006665336
-4.995888e-07
0.00666542
-5.020326e-07
0.006665505
-5.04208e-07
0.006665589
-5.061237e-07
0.006665674
-5.077878e-07
0.006665759
-5.092069e-07
0.006665845
-5.103868e-07
0.00666593
-5.11332e-07
0.006666016
-5.120461e-07
0.006666102
-5.125315e-07
0.006666188
-5.127894e-07
0.006666274
-5.128201e-07
0.006666359
-5.126227e-07
0.006666445
-5.121951e-07
0.006666531
-5.115342e-07
0.006666616
-5.106358e-07
0.006666702
-5.094945e-07
0.006666787
-5.081038e-07
0.006666871
-5.064561e-07
0.006666956
-5.045426e-07
0.00666704
-5.023535e-07
0.006667124
-4.998776e-07
0.006667207
-4.97103e-07
0.00666729
-4.940162e-07
0.006667373
-4.906029e-07
0.006667454
-4.868477e-07
0.006667535
-4.82734e-07
0.006667616
-4.782443e-07
0.006667695
-4.733602e-07
0.006667774
-4.680624e-07
0.006667852
-4.623306e-07
0.006667928
-4.561441e-07
0.006668004
-4.494814e-07
0.006668079
-4.423208e-07
0.006668152
-4.346401e-07
0.006668224
-4.264174e-07
0.006668294
-4.176307e-07
0.006668363
-4.082586e-07
0.006668431
-3.982804e-07
0.006668496
-3.876767e-07
0.00666856
-3.764292e-07
0.006668622
-3.645216e-07
0.006668682
-3.519401e-07
0.006668739
-3.386732e-07
0.006668794
-3.247127e-07
0.006668847
-3.100541e-07
0.006668897
-2.946968e-07
0.006668945
-2.786449e-07
0.006668989
-2.619073e-07
0.006669031
-2.444983e-07
0.00666907
-2.264377e-07
0.006669105
-2.077513e-07
0.006669138
-1.884709e-07
0.006669166
-1.686345e-07
0.006669192
-1.48286e-07
0.006669214
-1.27475e-07
0.006669232
-1.062568e-07
0.006669247
-8.469132e-08
0.006669257
-6.284375e-08
0.006669264
-4.077754e-08
-1.858632e-08
0.006663143
-8.261697e-08
0.006663134
-1.21852e-07
0.006663134
-1.431991e-07
0.006663142
-1.644222e-07
0.006663155
-1.849032e-07
0.006663175
-2.040073e-07
0.006663199
-2.224404e-07
0.006663229
-2.407484e-07
0.006663262
-2.590215e-07
0.0066633
-2.77189e-07
0.00666334
-2.951724e-07
0.006663385
-3.128875e-07
0.006663432
-3.302448e-07
0.006663481
-3.471627e-07
0.006663534
-3.635737e-07
0.006663589
-3.794241e-07
0.006663646
-3.946732e-07
0.006663706
-4.092921e-07
0.006663767
-4.232623e-07
0.006663831
-4.365737e-07
0.006663896
-4.492238e-07
0.006663963
-4.612162e-07
0.006664032
-4.725592e-07
0.006664102
-4.83265e-07
0.006664173
-4.933491e-07
0.006664246
-5.02829e-07
0.00666432
-5.117243e-07
0.006664395
-5.200555e-07
0.006664472
-5.278438e-07
0.006664549
-5.351108e-07
0.006664627
-5.418783e-07
0.006664707
-5.481676e-07
0.006664787
-5.539996e-07
0.006664867
-5.593946e-07
0.006664949
-5.643722e-07
0.006665031
-5.68951e-07
0.006665113
-5.731484e-07
0.006665196
-5.769811e-07
0.00666528
-5.804643e-07
0.006665364
-5.836122e-07
0.006665448
-5.864379e-07
0.006665533
-5.88953e-07
0.006665618
-5.91168e-07
0.006665703
-5.930921e-07
0.006665789
-5.947333e-07
0.006665874
-5.960981e-07
0.00666596
-5.971919e-07
0.006666046
-5.980189e-07
0.006666132
-5.985819e-07
0.006666218
-5.988823e-07
0.006666304
-5.989204e-07
0.00666639
-5.986952e-07
0.006666476
-5.982042e-07
0.006666562
-5.97444e-07
0.006666648
-5.964094e-07
0.006666733
-5.950943e-07
0.006666819
-5.934911e-07
0.006666904
-5.91591e-07
0.006666989
-5.893836e-07
0.006667073
-5.868574e-07
0.006667157
-5.839996e-07
0.006667241
-5.807959e-07
0.006667324
-5.772308e-07
0.006667407
-5.732875e-07
0.006667489
-5.689479e-07
0.00666757
-5.641925e-07
0.006667651
-5.590008e-07
0.006667731
-5.533511e-07
0.00666781
-5.472206e-07
0.006667889
-5.405854e-07
0.006667966
-5.33421e-07
0.006668042
-5.25702e-07
0.006668117
-5.174025e-07
0.006668191
-5.084962e-07
0.006668263
-4.989569e-07
0.006668335
-4.887582e-07
0.006668404
-4.778745e-07
0.006668472
-4.662809e-07
0.006668538
-4.539536e-07
0.006668603
-4.408705e-07
0.006668665
-4.270116e-07
0.006668726
-4.123595e-07
0.006668784
-3.968998e-07
0.00666884
-3.80622e-07
0.006668893
-3.635195e-07
0.006668944
-3.455907e-07
0.006668992
-3.268393e-07
0.006669038
-3.072749e-07
0.00666908
-2.869132e-07
0.006669119
-2.65777e-07
0.006669156
-2.438958e-07
0.006669188
-2.213068e-07
0.006669218
-1.980541e-07
0.006669244
-1.741894e-07
0.006669266
-1.497713e-07
0.006669285
-1.248651e-07
0.006669299
-9.954186e-08
0.00666931
-7.38791e-08
0.006669318
-4.795239e-08
-2.187276e-08
0.00666313
-7.218489e-08
0.006663127
-1.174093e-07
0.006663131
-1.46026e-07
0.00666314
-1.731698e-07
0.006663156
-1.994996e-07
0.006663176
-2.242943e-07
0.006663202
-2.479159e-07
0.006663232
-2.708644e-07
0.006663266
-2.93322e-07
0.006663304
-3.152981e-07
0.006663346
-3.367727e-07
0.006663391
-3.577118e-07
0.006663439
-3.780662e-07
0.006663489
-3.977843e-07
0.006663542
-4.168203e-07
0.006663598
-4.351367e-07
0.006663656
-4.52705e-07
0.006663716
-4.695059e-07
0.006663778
-4.855284e-07
0.006663842
-5.007693e-07
0.006663908
-5.152318e-07
0.006663976
-5.28925e-07
0.006664045
-5.418621e-07
0.006664116
-5.540606e-07
0.006664188
-5.655404e-07
0.006664261
-5.76324e-07
0.006664336
-5.864351e-07
0.006664412
-5.958989e-07
0.006664488
-6.047406e-07
0.006664566
-6.129862e-07
0.006664645
-6.206611e-07
0.006664725
-6.277906e-07
0.006664805
-6.34399e-07
0.006664886
-6.4051e-07
0.006664968
-6.461463e-07
0.00666505
-6.513295e-07
0.006665133
-6.560798e-07
0.006665216
-6.604163e-07
0.0066653
-6.643568e-07
0.006665384
-6.679175e-07
0.006665469
-6.711134e-07
0.006665554
-6.739578e-07
0.006665639
-6.764629e-07
0.006665725
-6.786391e-07
0.00666581
-6.804955e-07
0.006665896
-6.820398e-07
0.006665982
-6.832781e-07
0.006666069
-6.842151e-07
0.006666155
-6.84854e-07
0.006666241
-6.851965e-07
0.006666327
-6.85243e-07
0.006666414
-6.849922e-07
0.0066665
-6.844414e-07
0.006666586
-6.835866e-07
0.006666672
-6.824221e-07
0.006666758
-6.809407e-07
0.006666843
-6.791339e-07
0.006666929
-6.769914e-07
0.006667014
-6.745016e-07
0.006667099
-6.716513e-07
0.006667183
-6.684257e-07
0.006667267
-6.648086e-07
0.006667351
-6.607822e-07
0.006667434
-6.563271e-07
0.006667516
-6.514225e-07
0.006667598
-6.460461e-07
0.006667679
-6.401743e-07
0.00666776
-6.337818e-07
0.006667839
-6.268425e-07
0.006667918
-6.193288e-07
0.006667996
-6.11212e-07
0.006668072
-6.024628e-07
0.006668148
-5.930508e-07
0.006668222
-5.829455e-07
0.006668296
-5.72116e-07
0.006668367
-5.605313e-07
0.006668438
-5.481612e-07
0.006668506
-5.34976e-07
0.006668573
-5.209474e-07
0.006668639
-5.06049e-07
0.006668702
-4.902564e-07
0.006668763
-4.735483e-07
0.006668822
-4.559069e-07
0.006668879
-4.373184e-07
0.006668933
-4.17774e-07
0.006668985
-3.972704e-07
0.006669033
-3.758104e-07
0.00666908
-3.534037e-07
0.006669123
-3.300673e-07
0.006669163
-3.058264e-07
0.0066692
-2.807142e-07
0.006669233
-2.547729e-07
0.006669263
-2.280533e-07
0.006669289
-2.006148e-07
0.006669312
-1.725255e-07
0.006669331
-1.438615e-07
0.006669346
-1.147058e-07
0.006669358
-8.514968e-08
0.006669365
-5.528233e-08
-2.523644e-08
0.006663118
-6.91734e-08
0.00666312
-1.187919e-07
0.006663127
-1.523848e-07
0.00666314
-1.843142e-07
0.006663156
-2.156635e-07
0.006663178
-2.454587e-07
0.006663204
-2.738219e-07
0.006663234
-3.011918e-07
0.006663269
-3.277612e-07
0.006663307
-3.535596e-07
0.006663349
-3.785883e-07
0.006663394
-4.028368e-07
0.006663442
-4.262785e-07
0.006663493
-4.488815e-07
0.006663547
-4.706164e-07
0.006663603
-4.914596e-07
0.006663662
-5.113945e-07
0.006663722
-5.304119e-07
0.006663785
-5.485099e-07
0.00666385
-5.656934e-07
0.006663917
-5.819729e-07
0.006663985
-5.973642e-07
0.006664055
-6.118873e-07
0.006664126
-6.255654e-07
0.006664199
-6.384245e-07
0.006664273
-6.504924e-07
0.006664349
-6.617983e-07
0.006664425
-6.723721e-07
0.006664502
-6.822442e-07
0.006664581
-6.914448e-07
0.00666466
-7.000038e-07
0.00666474
-7.079503e-07
0.006664821
-7.153126e-07
0.006664903
-7.22118e-07
0.006664985
-7.283924e-07
0.006665068
-7.341605e-07
0.006665151
-7.394454e-07
0.006665235
-7.442688e-07
0.006665319
-7.486508e-07
0.006665404
-7.526099e-07
0.006665489
-7.56163e-07
0.006665574
-7.593252e-07
0.00666566
-7.621103e-07
0.006665745
-7.645299e-07
0.006665832
-7.665945e-07
0.006665918
-7.683125e-07
0.006666004
-7.696909e-07
0.006666091
-7.707349e-07
0.006666177
-7.714483e-07
0.006666264
-7.718329e-07
0.00666635
-7.718892e-07
0.006666437
-7.716157e-07
0.006666524
-7.710095e-07
0.00666661
-7.700659e-07
0.006666696
-7.687787e-07
0.006666783
-7.671397e-07
0.006666869
-7.651394e-07
0.006666954
-7.627664e-07
0.00666704
-7.600074e-07
0.006667125
-7.568476e-07
0.00666721
-7.532705e-07
0.006667294
-7.492576e-07
0.006667378
-7.44789e-07
0.006667462
-7.398427e-07
0.006667545
-7.343952e-07
0.006667627
-7.284213e-07
0.006667709
-7.218941e-07
0.00666779
-7.14785e-07
0.00666787
-7.070641e-07
0.006667949
-6.986999e-07
0.006668028
-6.896598e-07
0.006668105
-6.7991e-07
0.006668181
-6.694158e-07
0.006668257
-6.581418e-07
0.006668331
-6.460523e-07
0.006668403
-6.331114e-07
0.006668474
-6.192837e-07
0.006668544
-6.045346e-07
0.006668612
-5.888307e-07
0.006668678
-5.721404e-07
0.006668742
-5.544347e-07
0.006668804
-5.356877e-07
0.006668864
-5.158774e-07
0.006668922
-4.949864e-07
0.006668977
-4.730027e-07
0.00666903
-4.499207e-07
0.006669079
-4.257417e-07
0.006669127
-4.00475e-07
0.006669171
-3.741383e-07
0.006669212
-3.467588e-07
0.006669249
-3.183732e-07
0.006669283
-2.890285e-07
0.006669314
-2.587822e-07
0.006669341
-2.277019e-07
0.006669365
-1.958654e-07
0.006669384
-1.633602e-07
0.0066694
-1.302821e-07
0.006669411
-9.673672e-08
0.006669419
-6.282749e-08
-2.870732e-08
0.006663099
-6.88903e-08
0.006663105
-1.230286e-07
0.006663114
-1.61022e-07
0.006663128
-1.972788e-07
0.006663146
-2.333227e-07
0.006663169
-2.678707e-07
0.006663196
-3.008167e-07
0.006663228
-3.325313e-07
0.006663263
-3.631859e-07
0.006663302
-3.928055e-07
0.006663345
-4.213992e-07
0.006663391
-4.489715e-07
0.00666344
-4.755129e-07
0.006663492
-5.010083e-07
0.006663547
-5.254434e-07
0.006663604
-5.488084e-07
0.006663664
-5.710989e-07
0.006663726
-5.923165e-07
0.00666379
-6.124689e-07
0.006663855
-6.315699e-07
0.006663923
-6.496381e-07
0.006663992
-6.666969e-07
0.006664063
-6.827732e-07
0.006664135
-6.97897e-07
0.006664209
-7.121006e-07
0.006664284
-7.254177e-07
0.00666436
-7.378832e-07
0.006664437
-7.495324e-07
0.006664515
-7.604007e-07
0.006664594
-7.70523e-07
0.006664674
-7.799338e-07
0.006664755
-7.886664e-07
0.006664836
-7.96753e-07
0.006664918
-8.042246e-07
0.006665001
-8.111105e-07
0.006665084
-8.174385e-07
0.006665168
-8.232347e-07
0.006665252
-8.285233e-07
0.006665337
-8.33327e-07
0.006665422
-8.376664e-07
0.006665507
-8.415603e-07
0.006665593
-8.450258e-07
0.006665678
-8.480779e-07
0.006665765
-8.507298e-07
0.006665851
-8.52993e-07
0.006665938
-8.548771e-07
0.006666024
-8.563896e-07
0.006666111
-8.575365e-07
0.006666198
-8.583218e-07
0.006666285
-8.587477e-07
0.006666372
-8.588146e-07
0.006666458
-8.58521e-07
0.006666545
-8.578637e-07
0.006666632
-8.568374e-07
0.006666719
-8.554353e-07
0.006666805
-8.536483e-07
0.006666891
-8.514659e-07
0.006666978
-8.488753e-07
0.006667063
-8.45862e-07
0.006667149
-8.424094e-07
0.006667234
-8.384992e-07
0.006667319
-8.341108e-07
0.006667403
-8.29222e-07
0.006667487
-8.238083e-07
0.006667571
-8.178434e-07
0.006667654
-8.112991e-07
0.006667736
-8.041452e-07
0.006667817
-7.963498e-07
0.006667898
-7.87879e-07
0.006667978
-7.786975e-07
0.006668057
-7.687683e-07
0.006668135
-7.58053e-07
0.006668213
-7.465123e-07
0.006668288
-7.341057e-07
0.006668363
-7.207924e-07
0.006668437
-7.065311e-07
0.006668509
-6.912809e-07
0.006668579
-6.750016e-07
0.006668648
-6.576542e-07
0.006668715
-6.392014e-07
0.00666878
-6.196089e-07
0.006668843
-5.988454e-07
0.006668904
-5.76884e-07
0.006668963
-5.537027e-07
0.006669019
-5.292859e-07
0.006669073
-5.036245e-07
0.006669124
-4.767177e-07
0.006669172
-4.485737e-07
0.006669217
-4.192103e-07
0.006669259
-3.88656e-07
0.006669297
-3.569508e-07
0.006669333
-3.241465e-07
0.006669364
-2.903069e-07
0.006669392
-2.555082e-07
0.006669416
-2.198386e-07
0.006669436
-1.833978e-07
0.006669452
-1.462955e-07
0.006669464
-1.086536e-07
0.006669472
-7.05914e-08
-3.22872e-08
0.00666308
-7.13023e-08
0.006663088
-1.29943e-07
0.0066631
-1.719225e-07
0.006663116
-2.122669e-07
0.006663136
-2.527409e-07
0.00666316
-2.917675e-07
0.006663188
-3.290702e-07
0.006663221
-3.649686e-07
0.006663257
-3.996053e-07
0.006663297
-4.329877e-07
0.006663341
-4.65121e-07
0.006663388
-4.960133e-07
0.006663438
-5.256634e-07
0.006663491
-5.540656e-07
0.006663547
-5.812162e-07
0.006663605
-6.071159e-07
0.006663666
-6.317704e-07
0.006663728
-6.551912e-07
0.006663793
-6.773955e-07
0.00666386
-6.98406e-07
0.006663929
-7.182499e-07
0.006663999
-7.369587e-07
0.00666407
-7.545671e-07
0.006664144
-7.711126e-07
0.006664218
-7.866342e-07
0.006664294
-8.011723e-07
0.006664371
-8.147681e-07
0.006664448
-8.274627e-07
0.006664527
-8.392971e-07
0.006664607
-8.503113e-07
0.006664688
-8.605445e-07
0.006664769
-8.700346e-07
0.006664851
-8.78818e-07
0.006664934
-8.869294e-07
0.006665017
-8.944018e-07
0.006665101
-9.012661e-07
0.006665185
-9.075515e-07
0.00666527
-9.13285e-07
0.006665355
-9.184916e-07
0.00666544
-9.231942e-07
0.006665526
-9.274136e-07
0.006665612
-9.311685e-07
0.006665698
-9.344757e-07
0.006665785
-9.373498e-07
0.006665872
-9.398032e-07
0.006665959
-9.418464e-07
0.006666046
-9.434881e-07
0.006666133
-9.447345e-07
0.00666622
-9.455902e-07
0.006666307
-9.460575e-07
0.006666395
-9.46137e-07
0.006666482
-9.45827e-07
0.006666569
-9.451239e-07
0.006666656
-9.440221e-07
0.006666743
-9.425141e-07
0.00666683
-9.405899e-07
0.006666917
-9.38238e-07
0.006667004
-9.354444e-07
0.00666709
-9.321931e-07
0.006667176
-9.284659e-07
0.006667262
-9.242427e-07
0.006667347
-9.195009e-07
0.006667432
-9.142158e-07
0.006667517
-9.083605e-07
0.006667601
-9.01906e-07
0.006667684
-8.94821e-07
0.006667767
-8.870719e-07
0.006667849
-8.786232e-07
0.006667931
-8.694373e-07
0.006668012
-8.594746e-07
0.006668092
-8.486938e-07
0.006668171
-8.370517e-07
0.006668249
-8.245039e-07
0.006668325
-8.110048e-07
0.006668401
-7.965079e-07
0.006668476
-7.809661e-07
0.006668549
-7.643327e-07
0.00666862
-7.465611e-07
0.00666869
-7.276061e-07
0.006668758
-7.074243e-07
0.006668825
-6.859749e-07
0.006668889
-6.632207e-07
0.006668951
-6.391288e-07
0.006669011
-6.13672e-07
0.006669069
-5.868295e-07
0.006669124
-5.585885e-07
0.006669176
-5.289448e-07
0.006669225
-4.979045e-07
0.006669272
-4.654848e-07
0.006669315
-4.317151e-07
0.006669354
-3.966379e-07
0.00666939
-3.603093e-07
0.006669423
-3.227998e-07
0.006669452
-2.841944e-07
0.006669476
-2.445919e-07
0.006669497
-2.041053e-07
0.006669514
-1.628591e-07
0.006669526
-1.209922e-07
0.006669534
-7.864134e-08
-3.600955e-08
0.006663058
-7.498789e-08
0.006663067
-1.384769e-07
0.006663081
-1.844359e-07
0.006663098
-2.288057e-07
0.00666312
-2.736187e-07
0.006663145
-3.17034e-07
0.006663175
-3.586281e-07
0.006663209
-3.986755e-07
0.006663246
-4.372841e-07
0.006663288
-4.744351e-07
0.006663333
-5.101216e-07
0.006663381
-5.443497e-07
0.006663432
-5.771214e-07
0.006663487
-6.084378e-07
0.006663544
-6.38304e-07
0.006663603
-6.667307e-07
0.006663665
-6.93734e-07
0.006663729
-7.193357e-07
0.006663795
-7.435634e-07
0.006663863
-7.664495e-07
0.006663933
-7.88031e-07
0.006664004
-8.083484e-07
0.006664077
-8.274451e-07
0.006664151
-8.453665e-07
0.006664227
-8.621595e-07
0.006664303
-8.778718e-07
0.006664381
-8.925512e-07
0.00666446
-9.062451e-07
0.006664539
-9.190004e-07
0.00666462
-9.308627e-07
0.006664701
-9.418762e-07
0.006664783
-9.520835e-07
0.006664866
-9.615252e-07
0.006664949
-9.702401e-07
0.006665033