/*--------------------------------*- C++ -*----------------------------------*\
| =========                 |                                                 |
| \\      /  F ield         | OpenFOAM: The Open Source CFD Toolbox           |
|  \\    /   O peration     | Version:  2.3.0                                 |
|   \\  /    A nd           | Web:      www.OpenFOAM.org                      |
|    \\/     M anipulation  |                                                 |
\*---------------------------------------------------------------------------*/
FoamFile
{
    version     2.0;
    format      ascii;
    class       volVectorField;
    location    "9700/bottomAir";
    object      U;
}
// * * * * * * * * * * * * * * * * * * * * * * * * * * * * * * * * * * * * * //

dimensions      [0 1 -1 0 0 0 0];

internalField   nonuniform List<vector> 
4000
(
(33.35026 -0.003039067 0)
(25.22606 -0.001526059 0)
(21.94778 -0.0006087435 0)
(22.81867 -0.000470301 0)
(23.15115 -0.0003464773 0)
(23.05824 -0.000237079 0)
(23.02481 -0.0001828179 0)
(23.03491 -0.0001543558 0)
(23.03846 -0.0001357663 0)
(23.03754 -0.0001241395 0)
(23.03735 -0.0001173937 0)
(23.03762 -0.0001136146 0)
(23.03782 -0.0001117245 0)
(23.03798 -0.0001111128 0)
(23.03815 -0.0001113735 0)
(23.03833 -0.0001122249 0)
(23.03852 -0.0001134763 0)
(23.03872 -0.0001149942 0)
(23.03892 -0.0001166825 0)
(23.03913 -0.0001184719 0)
(23.03935 -0.0001203107 0)
(23.03957 -0.0001221614 0)
(23.0398 -0.0001239955 0)
(23.04004 -0.0001257927 0)
(23.04028 -0.0001275372 0)
(23.04052 -0.0001292184 0)
(23.04077 -0.000130828 0)
(23.04102 -0.0001323613 0)
(23.04128 -0.0001338144 0)
(23.04154 -0.0001351859 0)
(23.04181 -0.0001364747 0)
(23.04207 -0.0001376813 0)
(23.04235 -0.0001388063 0)
(23.04262 -0.0001398513 0)
(23.0429 -0.0001408177 0)
(23.04318 -0.0001417077 0)
(23.04346 -0.0001425231 0)
(23.04374 -0.000143266 0)
(23.04403 -0.0001439387 0)
(23.04431 -0.0001445431 0)
(23.0446 -0.0001450812 0)
(23.04489 -0.0001455547 0)
(23.04518 -0.0001459654 0)
(23.04547 -0.0001463146 0)
(23.04577 -0.0001466038 0)
(23.04606 -0.0001468337 0)
(23.04635 -0.0001470054 0)
(23.04665 -0.0001471193 0)
(23.04694 -0.0001471758 0)
(23.04724 -0.0001471748 0)
(23.04754 -0.0001471163 0)
(23.04783 -0.0001469995 0)
(23.04813 -0.0001468239 0)
(23.04842 -0.0001465881 0)
(23.04872 -0.0001462911 0)
(23.04901 -0.0001459309 0)
(23.0493 -0.0001455057 0)
(23.04959 -0.000145013 0)
(23.04989 -0.0001444506 0)
(23.05018 -0.0001438151 0)
(23.05046 -0.0001431038 0)
(23.05075 -0.0001423127 0)
(23.05104 -0.0001414384 0)
(23.05132 -0.0001404764 0)
(23.0516 -0.0001394226 0)
(23.05188 -0.000138272 0)
(23.05216 -0.00013702 0)
(23.05243 -0.000135661 0)
(23.0527 -0.00013419 0)
(23.05297 -0.000132601 0)
(23.05323 -0.0001308885 0)
(23.05349 -0.0001290462 0)
(23.05375 -0.0001270686 0)
(23.054 -0.0001249493 0)
(23.05425 -0.0001226825 0)
(23.05449 -0.0001202622 0)
(23.05473 -0.0001176829 0)
(23.05496 -0.0001149389 0)
(23.05518 -0.0001120254 0)
(23.0554 -0.0001089375 0)
(23.05561 -0.0001056714 0)
(23.05582 -0.0001022234 0)
(23.05602 -9.85913e-05 0)
(23.05621 -9.477301e-05 0)
(23.05639 -9.076821e-05 0)
(23.05656 -8.657704e-05 0)
(23.05673 -8.220154e-05 0)
(23.05688 -7.764447e-05 0)
(23.05702 -7.291067e-05 0)
(23.05716 -6.800593e-05 0)
(23.05728 -6.293825e-05 0)
(23.0574 -5.771685e-05 0)
(23.0575 -5.235346e-05 0)
(23.05759 -4.686174e-05 0)
(23.05767 -4.125923e-05 0)
(23.05773 -3.556925e-05 0)
(23.05779 -2.982603e-05 0)
(23.05783 -2.409606e-05 0)
(23.05786 -1.847813e-05 0)
(23.05788 -1.337287e-05 0)
(33.34492 -0.003794204 0)
(25.22348 -0.001642806 0)
(21.94317 -0.0004933883 0)
(22.81344 -0.0004069358 0)
(23.14598 -0.0003081574 0)
(23.05298 -0.0002086349 0)
(23.01946 -0.0001756811 0)
(23.02954 -0.0001708569 0)
(23.03307 -0.000173442 0)
(23.03215 -0.0001811938 0)
(23.03196 -0.000192393 0)
(23.03223 -0.0002051054 0)
(23.03242 -0.0002183657 0)
(23.03258 -0.0002317296 0)
(23.03276 -0.0002449235 0)
(23.03295 -0.0002577744 0)
(23.03314 -0.0002701838 0)
(23.03334 -0.0002820955 0)
(23.03355 -0.0002934788 0)
(23.03377 -0.0003043191 0)
(23.03399 -0.0003146126 0)
(23.03422 -0.0003243631 0)
(23.03445 -0.000333579 0)
(23.03469 -0.0003422725 0)
(23.03493 -0.0003504579 0)
(23.03518 -0.0003581515 0)
(23.03544 -0.0003653702 0)
(23.03569 -0.0003721322 0)
(23.03596 -0.0003784552 0)
(23.03622 -0.0003843577 0)
(23.03649 -0.0003898574 0)
(23.03676 -0.0003949719 0)
(23.03704 -0.0003997184 0)
(23.03732 -0.0004041133 0)
(23.0376 -0.0004081722 0)
(23.03788 -0.0004119102 0)
(23.03817 -0.0004153412 0)
(23.03846 -0.0004184787 0)
(23.03875 -0.0004213347 0)
(23.03904 -0.0004239206 0)
(23.03933 -0.0004262467 0)
(23.03963 -0.0004283224 0)
(23.03992 -0.000430156 0)
(23.04022 -0.0004317548 0)
(23.04052 -0.0004331253 0)
(23.04082 -0.0004342728 0)
(23.04112 -0.0004352016 0)
(23.04142 -0.0004359151 0)
(23.04172 -0.0004364156 0)
(23.04202 -0.0004367045 0)
(23.04232 -0.0004367822 0)
(23.04262 -0.000436648 0)
(23.04292 -0.0004363004 0)
(23.04322 -0.0004357369 0)
(23.04351 -0.0004349537 0)
(23.04381 -0.0004339464 0)
(23.04411 -0.0004327094 0)
(23.04441 -0.0004312363 0)
(23.0447 -0.0004295195 0)
(23.045 -0.0004275505 0)
(23.04529 -0.0004253199 0)
(23.04558 -0.0004228174 0)
(23.04587 -0.0004200316 0)
(23.04616 -0.0004169502 0)
(23.04645 -0.0004135601 0)
(23.04673 -0.0004098474 0)
(23.04701 -0.0004057972 0)
(23.04729 -0.000401394 0)
(23.04757 -0.0003966215 0)
(23.04784 -0.0003914631 0)
(23.04811 -0.0003859013 0)
(23.04837 -0.0003799186 0)
(23.04863 -0.0003734969 0)
(23.04889 -0.0003666184 0)
(23.04914 -0.0003592652 0)
(23.04939 -0.0003514196 0)
(23.04963 -0.0003430648 0)
(23.04987 -0.0003341845 0)
(23.0501 -0.0003247636 0)
(23.05032 -0.0003147883 0)
(23.05054 -0.0003042466 0)
(23.05075 -0.0002931285 0)
(23.05095 -0.0002814263 0)
(23.05115 -0.0002691351 0)
(23.05133 -0.000256253 0)
(23.05151 -0.0002427818 0)
(23.05168 -0.0002287267 0)
(23.05184 -0.0002140972 0)
(23.05199 -0.0001989072 0)
(23.05213 -0.0001831752 0)
(23.05226 -0.0001669244 0)
(23.05237 -0.0001501831 0)
(23.05248 -0.0001329853 0)
(23.05258 -0.0001153701 0)
(23.05266 -9.738392e-05 0)
(23.05273 -7.908146e-05 0)
(23.05279 -6.05296e-05 0)
(23.05284 -4.182437e-05 0)
(23.05287 -2.308347e-05 0)
(23.0529 -4.659718e-06 0)
(33.34476 -0.001449684 0)
(25.22463 -0.0007379879 0)
(21.94371 -0.0003910687 0)
(22.81372 -0.00040562 0)
(23.14629 -0.0003917272 0)
(23.0533 -0.0003598536 0)
(23.01976 -0.0003513616 0)
(23.02984 -0.0003557974 0)
(23.03337 -0.0003646026 0)
(23.03245 -0.0003768533 0)
(23.03226 -0.0003917744 0)
(23.03253 -0.0004082528 0)
(23.03273 -0.0004255608 0)
(23.03289 -0.0004432534 0)
(23.03307 -0.0004610038 0)
(23.03325 -0.0004785713 0)
(23.03345 -0.0004957843 0)
(23.03365 -0.0005125208 0)
(23.03386 -0.0005286947 0)
(23.03407 -0.0005442461 0)
(23.03429 -0.0005591359 0)
(23.03452 -0.0005733401 0)
(23.03475 -0.0005868468 0)
(23.03499 -0.000599653 0)
(23.03524 -0.0006117633 0)
(23.03548 -0.0006231872 0)
(23.03574 -0.0006339388 0)
(23.03599 -0.000644035 0)
(23.03626 -0.000653495 0)
(23.03652 -0.0006623395 0)
(23.03679 -0.0006705903 0)
(23.03706 -0.0006782694 0)
(23.03734 -0.0006853992 0)
(23.03761 -0.0006920016 0)
(23.03789 -0.0006980982 0)
(23.03818 -0.0007037096 0)
(23.03846 -0.0007088558 0)
(23.03875 -0.0007135558 0)
(23.03904 -0.000717827 0)
(23.03933 -0.000721686 0)
(23.03962 -0.0007251479 0)
(23.03991 -0.0007282266 0)
(23.04021 -0.0007309341 0)
(23.0405 -0.0007332816 0)
(23.0408 -0.0007352782 0)
(23.0411 -0.000736932 0)
(23.0414 -0.0007382491 0)
(23.04169 -0.0007392346 0)
(23.04199 -0.0007398916 0)
(23.04229 -0.0007402218 0)
(23.04259 -0.0007402253 0)
(23.04289 -0.0007399008 0)
(23.04319 -0.0007392452 0)
(23.04349 -0.000738254 0)
(23.04379 -0.0007369208 0)
(23.04408 -0.000735238 0)
(23.04438 -0.0007331961 0)
(23.04468 -0.0007307841 0)
(23.04497 -0.0007279894 0)
(23.04526 -0.0007247978 0)
(23.04556 -0.0007211934 0)
(23.04585 -0.0007171588 0)
(23.04614 -0.000712675 0)
(23.04642 -0.0007077217 0)
(23.04671 -0.0007022766 0)
(23.04699 -0.0006963165 0)
(23.04727 -0.0006898164 0)
(23.04755 -0.0006827504 0)
(23.04782 -0.0006750913 0)
(23.04809 -0.0006668109 0)
(23.04836 -0.00065788 0)
(23.04863 -0.0006482692 0)
(23.04889 -0.000637948 0)
(23.04914 -0.0006268864 0)
(23.04939 -0.0006150541 0)
(23.04964 -0.0006024217 0)
(23.04988 -0.0005889602 0)
(23.05012 -0.0005746423 0)
(23.05035 -0.0005594421 0)
(23.05057 -0.0005433364 0)
(23.05078 -0.0005263043 0)
(23.05099 -0.0005083289 0)
(23.0512 -0.0004893964 0)
(23.05139 -0.0004694984 0)
(23.05158 -0.0004486309 0)
(23.05175 -0.0004267964 0)
(23.05192 -0.0004040029 0)
(23.05208 -0.0003802659 0)
(23.05223 -0.0003556078 0)
(23.05237 -0.0003300589 0)
(23.05249 -0.0003036574 0)
(23.05261 -0.00027645 0)
(23.05272 -0.0002484917 0)
(23.05281 -0.0002198463 0)
(23.05289 -0.000190586 0)
(23.05297 -0.0001607916 0)
(23.05302 -0.0001305506 0)
(23.05307 -9.995451e-05 0)
(23.0531 -6.908513e-05 0)
(23.05313 -3.797058e-05 0)
(33.34437 -0.001000806 0)
(25.22516 -0.0008507656 0)
(21.94427 -0.0006474339 0)
(22.81418 -0.0005859901 0)
(23.14675 -0.0005419487 0)
(23.05374 -0.0005008668 0)
(23.02019 -0.0004806448 0)
(23.03024 -0.0004779309 0)
(23.03377 -0.0004855797 0)
(23.03284 -0.0005002397 0)
(23.03264 -0.0005198219 0)
(23.03291 -0.0005425382 0)
(23.0331 -0.000567083 0)
(23.03326 -0.0005925671 0)
(23.03343 -0.0006183658 0)
(23.03362 -0.0006440344 0)
(23.03381 -0.0006692603 0)
(23.03401 -0.0006938257 0)
(23.03422 -0.0007175802 0)
(23.03444 -0.0007404225 0)
(23.03466 -0.0007622876 0)
(23.03488 -0.0007831371 0)
(23.03512 -0.0008029526 0)
(23.03536 -0.0008217308 0)
(23.0356 -0.0008394792 0)
(23.03585 -0.0008562142 0)
(23.0361 -0.000871958 0)
(23.03636 -0.0008867373 0)
(23.03662 -0.0009005821 0)
(23.03689 -0.0009135242 0)
(23.03716 -0.0009255966 0)
(23.03743 -0.000936833 0)
(23.0377 -0.0009472667 0)
(23.03798 -0.0009569306 0)
(23.03826 -0.0009658568 0)
(23.03855 -0.0009740759 0)
(23.03883 -0.0009816174 0)
(23.03912 -0.0009885088 0)
(23.03941 -0.0009947762 0)
(23.0397 -0.001000444 0)
(23.03999 -0.001005533 0)
(23.04028 -0.001010064 0)
(23.04058 -0.001014056 0)
(23.04088 -0.001017523 0)
(23.04117 -0.001020479 0)
(23.04147 -0.001022936 0)
(23.04177 -0.001024903 0)
(23.04207 -0.001026387 0)
(23.04236 -0.001027393 0)
(23.04266 -0.001027923 0)
(23.04296 -0.001027978 0)
(23.04326 -0.001027556 0)
(23.04356 -0.001026652 0)
(23.04386 -0.001025261 0)
(23.04416 -0.001023373 0)
(23.04446 -0.001020979 0)
(23.04475 -0.001018064 0)
(23.04505 -0.001014613 0)
(23.04534 -0.001010609 0)
(23.04564 -0.001006032 0)
(23.04593 -0.00100086 0)
(23.04622 -0.0009950672 0)
(23.04651 -0.0009886286 0)
(23.0468 -0.0009815149 0)
(23.04708 -0.0009736953 0)
(23.04737 -0.0009651368 0)
(23.04765 -0.0009558047 0)
(23.04793 -0.0009456625 0)
(23.0482 -0.000934672 0)
(23.04847 -0.0009227934 0)
(23.04874 -0.000909986 0)
(23.04901 -0.0008962079 0)
(23.04927 -0.0008814167 0)
(23.04952 -0.0008655697 0)
(23.04978 -0.0008486244 0)
(23.05002 -0.0008305389 0)
(23.05026 -0.0008112725 0)
(23.0505 -0.0007907862 0)
(23.05073 -0.0007690437 0)
(23.05096 -0.0007460114 0)
(23.05117 -0.0007216599 0)
(23.05138 -0.0006959644 0)
(23.05159 -0.0006689057 0)
(23.05178 -0.0006404707 0)
(23.05197 -0.0006106538 0)
(23.05215 -0.0005794574 0)
(23.05231 -0.0005468927 0)
(23.05247 -0.0005129806 0)
(23.05262 -0.0004777524 0)
(23.05276 -0.00044125 0)
(23.05289 -0.0004035271 0)
(23.05301 -0.0003646486 0)
(23.05312 -0.0003246915 0)
(23.05321 -0.0002837447 0)
(23.05329 -0.0002419084 0)
(23.05337 -0.0001992949 0)
(23.05342 -0.0001560263 0)
(23.05347 -0.0001122363 0)
(23.0535 -6.805587e-05 0)
(23.05353 -2.365957e-05 0)
(33.34424 -0.0005604725 0)
(25.22551 -0.0005338832 0)
(21.94461 -0.0004598741 0)
(22.81443 -0.0004622421 0)
(23.14697 -0.000479099 0)
(23.05395 -0.0004950443 0)
(23.02038 -0.0005180997 0)
(23.03042 -0.0005482351 0)
(23.03394 -0.0005821912 0)
(23.03301 -0.0006182651 0)
(23.03281 -0.00065556 0)
(23.03308 -0.0006933044 0)
(23.03327 -0.0007308956 0)
(23.03343 -0.0007679152 0)
(23.03361 -0.000804068 0)
(23.0338 -0.0008391424 0)
(23.03399 -0.0008729901 0)
(23.03419 -0.0009055106 0)
(23.0344 -0.0009366397 0)
(23.03462 -0.0009663404 0)
(23.03484 -0.000994597 0)
(23.03507 -0.00102141 0)
(23.03531 -0.001046793 0)
(23.03555 -0.00107077 0)
(23.03579 -0.001093371 0)
(23.03604 -0.001114633 0)
(23.0363 -0.001134597 0)
(23.03656 -0.001153307 0)
(23.03682 -0.001170808 0)
(23.03709 -0.001187146 0)
(23.03736 -0.00120237 0)
(23.03763 -0.001216525 0)
(23.03791 -0.001229658 0)
(23.03819 -0.001241812 0)
(23.03847 -0.001253031 0)
(23.03875 -0.001263355 0)
(23.03904 -0.001272823 0)
(23.03932 -0.001281473 0)
(23.03961 -0.001289337 0)
(23.03991 -0.001296448 0)
(23.0402 -0.001302834 0)
(23.04049 -0.001308522 0)
(23.04079 -0.001313535 0)
(23.04109 -0.001317893 0)
(23.04138 -0.001321615 0)
(23.04168 -0.001324715 0)
(23.04198 -0.001327206 0)
(23.04228 -0.001329096 0)
(23.04258 -0.001330392 0)
(23.04288 -0.001331098 0)
(23.04318 -0.001331214 0)
(23.04348 -0.001330739 0)
(23.04378 -0.001329666 0)
(23.04408 -0.001327988 0)
(23.04438 -0.001325694 0)
(23.04467 -0.00132277 0)
(23.04497 -0.001319199 0)
(23.04527 -0.001314962 0)
(23.04556 -0.001310035 0)
(23.04586 -0.001304394 0)
(23.04615 -0.00129801 0)
(23.04644 -0.001290852 0)
(23.04673 -0.001282884 0)
(23.04702 -0.001274071 0)
(23.04731 -0.001264372 0)
(23.04759 -0.001253745 0)
(23.04787 -0.001242145 0)
(23.04815 -0.001229524 0)
(23.04843 -0.001215834 0)
(23.0487 -0.001201021 0)
(23.04897 -0.001185034 0)
(23.04924 -0.001167819 0)
(23.0495 -0.001149318 0)
(23.04976 -0.001129478 0)
(23.05001 -0.001108242 0)
(23.05026 -0.001085555 0)
(23.0505 -0.001061364 0)
(23.05074 -0.001035617 0)
(23.05097 -0.001008266 0)
(23.0512 -0.000979267 0)
(23.05142 -0.0009485801 0)
(23.05163 -0.0009161718 0)
(23.05183 -0.0008820157 0)
(23.05203 -0.0008460935 0)
(23.05222 -0.0008083962 0)
(23.0524 -0.0007689253 0)
(23.05257 -0.0007276936 0)
(23.05273 -0.0006847268 0)
(23.05288 -0.0006400636 0)
(23.05302 -0.0005937571 0)
(23.05315 -0.0005458751 0)
(23.05327 -0.0004965006 0)
(23.05338 -0.0004457317 0)
(23.05347 -0.0003936815 0)
(23.05356 -0.0003404777 0)
(23.05363 -0.0002862614 0)
(23.05369 -0.0002311847 0)
(23.05374 -0.0001754116 0)
(23.05377 -0.000119099 0)
(23.05379 -6.247053e-05 0)
(33.34405 -0.0004141069 0)
(25.22556 -0.0005062583 0)
(21.9447 -0.0005304977 0)
(22.8145 -0.0005708676 0)
(23.14705 -0.0006078875 0)
(23.05405 -0.0006386696 0)
(23.02048 -0.0006700556 0)
(23.03052 -0.0007046184 0)
(23.03404 -0.0007419263 0)
(23.03311 -0.0007813267 0)
(23.03291 -0.0008222729 0)
(23.03317 -0.0008641606 0)
(23.03337 -0.0009064022 0)
(23.03353 -0.0009485005 0)
(23.0337 -0.0009900526 0)
(23.03389 -0.001030738 0)
(23.03409 -0.00107031 0)
(23.03429 -0.001108581 0)
(23.0345 -0.001145418 0)
(23.03472 -0.001180727 0)
(23.03494 -0.001214449 0)
(23.03517 -0.001246552 0)
(23.03541 -0.001277024 0)
(23.03565 -0.001305874 0)
(23.0359 -0.00133312 0)
(23.03615 -0.001358794 0)
(23.03641 -0.001382933 0)
(23.03667 -0.001405581 0)
(23.03693 -0.001426786 0)
(23.0372 -0.001446599 0)
(23.03747 -0.001465072 0)
(23.03774 -0.001482257 0)
(23.03802 -0.001498206 0)
(23.0383 -0.00151297 0)
(23.03858 -0.0015266 0)
(23.03887 -0.001539142 0)
(23.03915 -0.001550643 0)
(23.03944 -0.001561144 0)
(23.03973 -0.001570687 0)
(23.04003 -0.001579308 0)
(23.04032 -0.001587041 0)
(23.04061 -0.001593917 0)
(23.04091 -0.001599964 0)
(23.04121 -0.001605205 0)
(23.04151 -0.001609663 0)
(23.0418 -0.001613353 0)
(23.0421 -0.001616291 0)
(23.0424 -0.001618488 0)
(23.0427 -0.001619949 0)
(23.043 -0.00162068 0)
(23.0433 -0.00162068 0)
(23.0436 -0.001619946 0)
(23.0439 -0.001618472 0)
(23.0442 -0.001616248 0)
(23.0445 -0.00161326 0)
(23.0448 -0.00160949 0)
(23.0451 -0.001604919 0)
(23.0454 -0.001599522 0)
(23.04569 -0.00159327 0)
(23.04599 -0.001586133 0)
(23.04628 -0.001578077 0)
(23.04658 -0.001569061 0)
(23.04687 -0.001559044 0)
(23.04716 -0.001547982 0)
(23.04744 -0.001535824 0)
(23.04773 -0.001522519 0)
(23.04801 -0.001508011 0)
(23.04829 -0.001492243 0)
(23.04857 -0.001475154 0)
(23.04884 -0.00145668 0)
(23.04911 -0.001436755 0)
(23.04938 -0.001415312 0)
(23.04964 -0.001392284 0)
(23.0499 -0.001367601 0)
(23.05016 -0.001341193 0)
(23.05041 -0.001312993 0)
(23.05065 -0.001282934 0)
(23.05089 -0.001250951 0)
(23.05113 -0.001216985 0)
(23.05135 -0.001180978 0)
(23.05157 -0.001142881 0)
(23.05179 -0.001102651 0)
(23.05199 -0.001060254 0)
(23.05219 -0.001015665 0)
(23.05238 -0.0009688712 0)
(23.05256 -0.000919873 0)
(23.05274 -0.0008686844 0)
(23.0529 -0.0008153349 0)
(23.05305 -0.0007598709 0)
(23.05319 -0.0007023564 0)
(23.05333 -0.0006428737 0)
(23.05345 -0.000581524 0)
(23.05356 -0.0005184275 0)
(23.05365 -0.0004537232 0)
(23.05374 -0.0003875683 0)
(23.05381 -0.000320137 0)
(23.05387 -0.000251618 0)
(23.05392 -0.0001822167 0)
(23.05395 -0.0001121324 0)
(23.05398 -4.165669e-05 0)
(33.34395 -0.0003044343 0)
(25.22561 -0.0004202767 0)
(21.94478 -0.0004751893 0)
(22.81458 -0.0005341909 0)
(23.14713 -0.0005924376 0)
(23.05412 -0.0006477433 0)
(23.02055 -0.0007029601 0)
(23.03058 -0.0007595741 0)
(23.0341 -0.0008173162 0)
(23.03317 -0.0008755453 0)
(23.03296 -0.0009337215 0)
(23.03322 -0.0009913561 0)
(23.03342 -0.001048007 0)
(23.03358 -0.001103311 0)
(23.03376 -0.001156989 0)
(23.03395 -0.001208831 0)
(23.03415 -0.001258685 0)
(23.03435 -0.001306451 0)
(23.03456 -0.001352065 0)
(23.03478 -0.001395497 0)
(23.03501 -0.001436744 0)
(23.03524 -0.001475821 0)
(23.03548 -0.00151276 0)
(23.03572 -0.001547607 0)
(23.03597 -0.001580415 0)
(23.03622 -0.001611245 0)
(23.03648 -0.001640165 0)
(23.03674 -0.001667245 0)
(23.03701 -0.001692554 0)
(23.03728 -0.001716168 0)
(23.03755 -0.001738156 0)
(23.03783 -0.001758592 0)
(23.03811 -0.001777543 0)
(23.03839 -0.001795077 0)
(23.03867 -0.001811259 0)
(23.03896 -0.00182615 0)
(23.03925 -0.001839807 0)
(23.03954 -0.001852286 0)
(23.03983 -0.001863635 0)
(23.04012 -0.001873904 0)
(23.04042 -0.001883132 0)
(23.04071 -0.001891361 0)
(23.04101 -0.001898623 0)
(23.04131 -0.001904949 0)
(23.04161 -0.001910365 0)
(23.04191 -0.001914894 0)
(23.04221 -0.001918553 0)
(23.04251 -0.001921355 0)
(23.04281 -0.00192331 0)
(23.04311 -0.001924424 0)
(23.04341 -0.001924697 0)
(23.04371 -0.001924126 0)
(23.04401 -0.001922705 0)
(23.04431 -0.001920421 0)
(23.04461 -0.001917259 0)
(23.04491 -0.001913198 0)
(23.04521 -0.001908216 0)
(23.04551 -0.001902283 0)
(23.04581 -0.001895367 0)
(23.0461 -0.00188743 0)
(23.0464 -0.001878431 0)
(23.04669 -0.001868325 0)
(23.04698 -0.001857062 0)
(23.04727 -0.001844588 0)
(23.04756 -0.001830845 0)
(23.04785 -0.001815771 0)
(23.04813 -0.001799299 0)
(23.04842 -0.001781362 0)
(23.04869 -0.001761885 0)
(23.04897 -0.001740792 0)
(23.04924 -0.001718006 0)
(23.04951 -0.001693445 0)
(23.04978 -0.001667027 0)
(23.05004 -0.001638669 0)
(23.05029 -0.001608286 0)
(23.05055 -0.001575796 0)
(23.05079 -0.001541118 0)
(23.05103 -0.001504172 0)
(23.05127 -0.001464885 0)
(23.0515 -0.001423186 0)
(23.05172 -0.001379014 0)
(23.05194 -0.001332314 0)
(23.05215 -0.001283042 0)
(23.05235 -0.001231166 0)
(23.05254 -0.001176667 0)
(23.05273 -0.001119542 0)
(23.0529 -0.001059804 0)
(23.05307 -0.0009974852 0)
(23.05322 -0.000932638 0)
(23.05337 -0.0008653358 0)
(23.0535 -0.0007956747 0)
(23.05362 -0.0007237732 0)
(23.05373 -0.0006497734 0)
(23.05383 -0.00057384 0)
(23.05392 -0.0004961598 0)
(23.05399 -0.0004169405 0)
(23.05405 -0.000336407 0)
(23.0541 -0.0002548051 0)
(23.05414 -0.0001723735 0)
(23.05416 -8.946378e-05 0)
(33.34383 -0.0002651261 0)
(25.22558 -0.0004132274 0)
(21.94477 -0.0005045202 0)
(22.81458 -0.0005925477 0)
(23.14713 -0.0006767569 0)
(23.05412 -0.000754868 0)
(23.02055 -0.0008287632 0)
(23.0306 -0.0009003789 0)
(23.03411 -0.0009704202 0)
(23.03318 -0.001039005 0)
(23.03298 -0.001106137 0)
(23.03324 -0.001171741 0)
(23.03344 -0.00123567 0)
(23.0336 -0.001297756 0)
(23.03378 -0.001357841 0)
(23.03398 -0.001415791 0)
(23.03418 -0.001471497 0)
(23.03438 -0.001524878 0)
(23.0346 -0.001575882 0)
(23.03482 -0.001624482 0)
(23.03505 -0.001670672 0)
(23.03528 -0.001714467 0)
(23.03552 -0.001755898 0)
(23.03577 -0.001795009 0)
(23.03602 -0.001831854 0)
(23.03628 -0.001866495 0)
(23.03654 -0.001899004 0)
(23.0368 -0.001929451 0)
(23.03707 -0.001957914 0)
(23.03734 -0.001984471 0)
(23.03761 -0.002009199 0)
(23.03789 -0.002032174 0)
(23.03817 -0.002053473 0)
(23.03845 -0.002073169 0)
(23.03874 -0.002091332 0)
(23.03902 -0.002108029 0)
(23.03931 -0.002123324 0)
(23.0396 -0.002137277 0)
(23.0399 -0.002149942 0)
(23.04019 -0.002161372 0)
(23.04049 -0.002171613 0)
(23.04078 -0.002180708 0)
(23.04108 -0.002188694 0)
(23.04138 -0.002195605 0)
(23.04168 -0.002201469 0)
(23.04198 -0.002206311 0)
(23.04228 -0.002210149 0)
(23.04258 -0.002212999 0)
(23.04288 -0.002214869 0)
(23.04319 -0.002215766 0)
(23.04349 -0.00221569 0)
(23.04379 -0.002214637 0)
(23.04409 -0.002212597 0)
(23.04439 -0.002209558 0)
(23.0447 -0.0022055 0)
(23.045 -0.0022004 0)
(23.0453 -0.002194231 0)
(23.0456 -0.002186959 0)
(23.04589 -0.002178546 0)
(23.04619 -0.00216895 0)
(23.04649 -0.002158123 0)
(23.04678 -0.002146012 0)
(23.04708 -0.002132559 0)
(23.04737 -0.002117703 0)
(23.04766 -0.002101376 0)
(23.04794 -0.002083506 0)
(23.04823 -0.002064017 0)
(23.04851 -0.002042828 0)
(23.04879 -0.002019854 0)
(23.04907 -0.001995008 0)
(23.04934 -0.001968196 0)
(23.04962 -0.001939325 0)
(23.04988 -0.001908299 0)
(23.05015 -0.001875019 0)
(23.0504 -0.001839386 0)
(23.05066 -0.001801303 0)
(23.05091 -0.001760673 0)
(23.05115 -0.001717402 0)
(23.05139 -0.001671402 0)
(23.05162 -0.001622588 0)
(23.05185 -0.001570884 0)
(23.05207 -0.001516225 0)
(23.05228 -0.001458556 0)
(23.05248 -0.001397834 0)
(23.05268 -0.001334035 0)
(23.05286 -0.001267151 0)
(23.05304 -0.001197192 0)
(23.05321 -0.001124194 0)
(23.05337 -0.001048214 0)
(23.05351 -0.0009693338 0)
(23.05365 -0.000887664 0)
(23.05378 -0.000803341 0)
(23.05389 -0.0007165294 0)
(23.05399 -0.0006274213 0)
(23.05408 -0.0005362353 0)
(23.05415 -0.0004432157 0)
(23.05422 -0.0003486281 0)
(23.05427 -0.000252764 0)
(23.0543 -0.0001559076 0)
(23.05433 -5.847984e-05 0)
(33.34373 -0.0002407854 0)
(25.22554 -0.0004023032 0)
(21.94476 -0.0005087522 0)
(22.81457 -0.0006096846 0)
(23.14713 -0.000708036 0)
(23.05413 -0.0008012023 0)
(23.02056 -0.0008901621 0)
(23.0306 -0.0009765574 0)
(23.03412 -0.001061029 0)
(23.03319 -0.001143613 0)
(23.03299 -0.001224229 0)
(23.03325 -0.001302744 0)
(23.03345 -0.00137898 0)
(23.03362 -0.001452748 0)
(23.0338 -0.001523884 0)
(23.03399 -0.001592255 0)
(23.0342 -0.001657763 0)
(23.03441 -0.001720346 0)
(23.03462 -0.001779971 0)
(23.03485 -0.001836635 0)
(23.03508 -0.001890359 0)
(23.03532 -0.001941184 0)
(23.03556 -0.001989168 0)
(23.03581 -0.002034383 0)
(23.03606 -0.002076909 0)
(23.03632 -0.002116835 0)
(23.03658 -0.002154256 0)
(23.03684 -0.002189268 0)
(23.03711 -0.002221971 0)
(23.03739 -0.002252463 0)
(23.03766 -0.002280844 0)
(23.03794 -0.002307209 0)
(23.03822 -0.002331651 0)
(23.03851 -0.00235426 0)
(23.0388 -0.002375122 0)
(23.03908 -0.00239432 0)
(23.03938 -0.002411929 0)
(23.03967 -0.002428021 0)
(23.03996 -0.002442664 0)
(23.04026 -0.002455918 0)
(23.04055 -0.00246784 0)
(23.04085 -0.002478479 0)
(23.04115 -0.002487883 0)
(23.04145 -0.002496089 0)
(23.04175 -0.002503132 0)
(23.04205 -0.00250904 0)
(23.04236 -0.002513838 0)
(23.04266 -0.002517542 0)
(23.04296 -0.002520165 0)
(23.04326 -0.002521714 0)
(23.04357 -0.002522189 0)
(23.04387 -0.002521587 0)
(23.04417 -0.002519899 0)
(23.04448 -0.002517109 0)
(23.04478 -0.002513196 0)
(23.04508 -0.002508135 0)
(23.04538 -0.002501894 0)
(23.04568 -0.002494435 0)
(23.04598 -0.002485716 0)
(23.04628 -0.002475688 0)
(23.04658 -0.002464297 0)
(23.04687 -0.002451483 0)
(23.04717 -0.00243718 0)
(23.04746 -0.002421317 0)
(23.04775 -0.002403818 0)
(23.04804 -0.002384599 0)
(23.04833 -0.002363574 0)
(23.04862 -0.002340649 0)
(23.0489 -0.002315727 0)
(23.04918 -0.002288706 0)
(23.04945 -0.002259481 0)
(23.04973 -0.002227941 0)
(23.05 -0.002193975 0)
(23.05026 -0.002157468 0)
(23.05052 -0.002118305 0)
(23.05078 -0.002076371 0)
(23.05103 -0.002031553 0)
(23.05128 -0.00198374 0)
(23.05152 -0.001932824 0)
(23.05176 -0.001878707 0)
(23.05198 -0.001821296 0)
(23.05221 -0.00176051 0)
(23.05242 -0.001696281 0)
(23.05263 -0.001628554 0)
(23.05283 -0.001557296 0)
(23.05302 -0.001482489 0)
(23.0532 -0.001404143 0)
(23.05337 -0.00132229 0)
(23.05353 -0.001236991 0)
(23.05368 -0.001148336 0)
(23.05382 -0.001056446 0)
(23.05395 -0.0009614763 0)
(23.05406 -0.0008636126 0)
(23.05417 -0.0007630748 0)
(23.05426 -0.0006601143 0)
(23.05434 -0.0005550131 0)
(23.0544 -0.0004480794 0)
(23.05445 -0.0003396522 0)
(23.05449 -0.0002300632 0)
(23.05451 -0.000119804 0)
(33.34363 -0.0002376376 0)
(25.22547 -0.0004170336 0)
(21.94472 -0.0005417774 0)
(22.81453 -0.0006610606 0)
(23.14709 -0.000779036 0)
(23.0541 -0.0008916583 0)
(23.02053 -0.0009988536 0)
(23.03058 -0.001101946 0)
(23.0341 -0.001201542 0)
(23.03317 -0.001297753 0)
(23.03297 -0.001390631 0)
(23.03324 -0.001480205 0)
(23.03345 -0.001566453 0)
(23.03361 -0.001649331 0)
(23.0338 -0.001728795 0)
(23.034 -0.001804814 0)
(23.0342 -0.001877372 0)
(23.03442 -0.001946474 0)
(23.03464 -0.00201214 0)
(23.03486 -0.002074412 0)
(23.0351 -0.002133347 0)
(23.03534 -0.002189015 0)
(23.03558 -0.002241501 0)
(23.03584 -0.002290896 0)
(23.03609 -0.002337301 0)
(23.03635 -0.002380823 0)
(23.03662 -0.002421571 0)
(23.03688 -0.002459656 0)
(23.03716 -0.00249519 0)
(23.03743 -0.002528284 0)
(23.03771 -0.002559047 0)
(23.03799 -0.002587586 0)
(23.03828 -0.002614004 0)
(23.03856 -0.002638399 0)
(23.03885 -0.002660865 0)
(23.03914 -0.002681493 0)
(23.03943 -0.002700365 0)
(23.03973 -0.002717559 0)
(23.04002 -0.002733149 0)
(23.04032 -0.002747201 0)
(23.04062 -0.002759776 0)
(23.04092 -0.002770928 0)
(23.04122 -0.002780706 0)
(23.04152 -0.002789154 0)
(23.04182 -0.002796308 0)
(23.04212 -0.002802199 0)
(23.04243 -0.002806851 0)
(23.04273 -0.002810284 0)
(23.04303 -0.00281251 0)
(23.04334 -0.002813537 0)
(23.04364 -0.002813366 0)
(23.04394 -0.002811991 0)
(23.04425 -0.002809403 0)
(23.04455 -0.002805583 0)
(23.04486 -0.002800508 0)
(23.04516 -0.002794151 0)
(23.04546 -0.002786475 0)
(23.04576 -0.002777439 0)
(23.04606 -0.002766995 0)
(23.04636 -0.002755089 0)
(23.04666 -0.002741661 0)
(23.04696 -0.002726644 0)
(23.04726 -0.002709965 0)
(23.04755 -0.002691543 0)
(23.04784 -0.002671295 0)
(23.04813 -0.002649126 0)
(23.04842 -0.002624939 0)
(23.04871 -0.002598629 0)
(23.04899 -0.002570088 0)
(23.04928 -0.002539198 0)
(23.04956 -0.002505842 0)
(23.04983 -0.002469894 0)
(23.0501 -0.002431227 0)
(23.05037 -0.00238971 0)
(23.05063 -0.002345211 0)
(23.05089 -0.002297599 0)
(23.05115 -0.002246741 0)
(23.0514 -0.002192509 0)
(23.05164 -0.002134779 0)
(23.05188 -0.002073432 0)
(23.05211 -0.002008361 0)
(23.05234 -0.001939466 0)
(23.05256 -0.001866664 0)
(23.05277 -0.001789888 0)
(23.05297 -0.001709092 0)
(23.05317 -0.00162425 0)
(23.05335 -0.001535366 0)
(23.05352 -0.001442469 0)
(23.05369 -0.001345623 0)
(23.05384 -0.001244923 0)
(23.05399 -0.001140504 0)
(23.05412 -0.001032536 0)
(23.05424 -0.0009212297 0)
(23.05434 -0.0008068329 0)
(23.05443 -0.0006896326 0)
(23.05451 -0.0005699519 0)
(23.05458 -0.0004481453 0)
(23.05463 -0.0003246048 0)
(23.05467 -0.0001997145 0)
(23.0547 -7.404533e-05 0)
(33.34352 -0.0002411093 0)
(25.2254 -0.000435002 0)
(21.94467 -0.0005725685 0)
(22.81448 -0.0007044779 0)
(23.14705 -0.0008361531 0)
(23.05406 -0.0009626634 0)
(23.0205 -0.001083417 0)
(23.03055 -0.00119965 0)
(23.03408 -0.001311938 0)
(23.03315 -0.001420363 0)
(23.03296 -0.001524967 0)
(23.03323 -0.001625775 0)
(23.03344 -0.001722763 0)
(23.03361 -0.001815887 0)
(23.0338 -0.001905103 0)
(23.034 -0.001990382 0)
(23.03421 -0.002071712 0)
(23.03442 -0.002149104 0)
(23.03465 -0.002222592 0)
(23.03488 -0.002292227 0)
(23.03512 -0.002358082 0)
(23.03536 -0.002420246 0)
(23.03561 -0.00247882 0)
(23.03586 -0.002533917 0)
(23.03612 -0.002585658 0)
(23.03638 -0.002634168 0)
(23.03665 -0.002679579 0)
(23.03692 -0.002722021 0)
(23.0372 -0.002761626 0)
(23.03748 -0.002798524 0)
(23.03776 -0.002832842 0)
(23.03804 -0.002864704 0)
(23.03833 -0.002894229 0)
(23.03861 -0.002921531 0)
(23.0389 -0.002946719 0)
(23.0392 -0.002969895 0)
(23.03949 -0.002991154 0)
(23.03979 -0.003010587 0)
(23.04008 -0.003028277 0)
(23.04038 -0.003044298 0)
(23.04068 -0.003058721 0)
(23.04098 -0.003071607 0)
(23.04128 -0.003083013 0)
(23.04159 -0.003092985 0)
(23.04189 -0.003101567 0)
(23.04219 -0.003108792 0)
(23.0425 -0.00311469 0)
(23.0428 -0.003119281 0)
(23.04311 -0.003122581 0)
(23.04341 -0.003124596 0)
(23.04372 -0.00312533 0)
(23.04403 -0.003124775 0)
(23.04433 -0.003122921 0)
(23.04464 -0.003119748 0)
(23.04494 -0.003115231 0)
(23.04524 -0.003109338 0)
(23.04555 -0.003102029 0)
(23.04585 -0.003093259 0)
(23.04615 -0.003082974 0)
(23.04646 -0.003071114 0)
(23.04676 -0.003057611 0)
(23.04706 -0.003042392 0)
(23.04735 -0.003025375 0)
(23.04765 -0.00300647 0)
(23.04795 -0.002985582 0)
(23.04824 -0.002962607 0)
(23.04853 -0.002937434 0)
(23.04882 -0.002909948 0)
(23.04911 -0.002880025 0)
(23.04939 -0.002847533 0)
(23.04967 -0.002812339 0)
(23.04995 -0.0027743 0)
(23.05023 -0.002733272 0)
(23.0505 -0.002689107 0)
(23.05076 -0.002641652 0)
(23.05103 -0.002590756 0)
(23.05129 -0.002536267 0)
(23.05154 -0.002478035 0)
(23.05179 -0.002415916 0)
(23.05203 -0.002349769 0)
(23.05227 -0.002279466 0)
(23.0525 -0.002204888 0)
(23.05272 -0.002125933 0)
(23.05293 -0.002042517 0)
(23.05314 -0.001954577 0)
(23.05334 -0.001862075 0)
(23.05353 -0.001765005 0)
(23.05371 -0.001663391 0)
(23.05388 -0.001557294 0)
(23.05403 -0.001446815 0)
(23.05418 -0.001332098 0)
(23.05432 -0.001213328 0)
(23.05444 -0.001090738 0)
(23.05455 -0.0009646054 0)
(23.05464 -0.0008352542 0)
(23.05472 -0.0007030504 0)
(23.05479 -0.0005683981 0)
(23.05485 -0.0004317464 0)
(23.05488 -0.0002935364 0)
(23.05491 -0.0001544251 0)
(33.34341 -0.0002524047 0)
(25.22531 -0.0004631873 0)
(21.9446 -0.000615132 0)
(22.81442 -0.0007619007 0)
(23.14699 -0.0009097923 0)
(23.05401 -0.001052819 0)
(23.02045 -0.001189755 0)
(23.03051 -0.001321588 0)