/*--------------------------------*- C++ -*----------------------------------*\
| =========                 |                                                 |
| \\      /  F ield         | OpenFOAM: The Open Source CFD Toolbox           |
|  \\    /   O peration     | Version:  2.3.0                                 |
|   \\  /    A nd           | Web:      www.OpenFOAM.org                      |
|    \\/     M anipulation  |                                                 |
\*---------------------------------------------------------------------------*/
FoamFile
{
    version     2.0;
    format      ascii;
    class       surfaceScalarField;
    location    "10000/bottomAir";
    object      phi;
}
// * * * * * * * * * * * * * * * * * * * * * * * * * * * * * * * * * * * * * //

dimensions      [1 0 -1 0 0 0 0];

internalField   nonuniform List<scalar> 
7860
(
0.006737217
-1.219339e-06
0.006737573
-3.552712e-07
0.006737664
-9.012572e-08
0.006737778
-1.127866e-07
0.006737862
-8.298963e-08
0.006737917
-5.46453e-08
0.006737963
-4.629854e-08
0.006738007
-4.361091e-08
0.006738049
-4.225223e-08
0.006738091
-4.236874e-08
0.006738135
-4.349502e-08
0.00673818
-4.510506e-08
0.006738227
-4.696976e-08
0.006738276
-4.897466e-08
0.006738326
-5.104044e-08
0.00673838
-5.311312e-08
0.006738435
-5.515945e-08
0.006738492
-5.715751e-08
0.006738551
-5.909275e-08
0.006738612
-6.095575e-08
0.006738674
-6.274032e-08
0.006738739
-6.444311e-08
0.006738805
-6.606213e-08
0.006738872
-6.759713e-08
0.006738941
-6.904838e-08
0.006739011
-7.041731e-08
0.006739083
-7.170542e-08
0.006739156
-7.291503e-08
0.00673923
-7.404832e-08
0.006739305
-7.510801e-08
0.006739381
-7.60966e-08
0.006739458
-7.701692e-08
0.006739536
-7.787156e-08
0.006739614
-7.866326e-08
0.006739694
-7.939455e-08
0.006739774
-8.006799e-08
0.006739854
-8.068591e-08
0.006739936
-8.125061e-08
0.006740017
-8.176419e-08
0.006740099
-8.22286e-08
0.006740182
-8.264568e-08
0.006740265
-8.301702e-08
0.006740348
-8.334414e-08
0.006740432
-8.362829e-08
0.006740516
-8.387062e-08
0.0067406
-8.407203e-08
0.006740684
-8.423333e-08
0.006740768
-8.435503e-08
0.006740853
-8.443761e-08
0.006740937
-8.448118e-08
0.006741022
-8.448587e-08
0.006741106
-8.445143e-08
0.006741191
-8.437762e-08
0.006741275
-8.42638e-08
0.006741359
-8.410938e-08
0.006741443
-8.391333e-08
0.006741526
-8.36747e-08
0.00674161
-8.33921e-08
0.006741693
-8.306418e-08
0.006741775
-8.268919e-08
0.006741858
-8.226541e-08
0.00674194
-8.179071e-08
0.006742021
-8.126302e-08
0.006742101
-8.067986e-08
0.006742181
-8.003881e-08
0.006742261
-7.933704e-08
0.006742339
-7.857182e-08
0.006742417
-7.774003e-08
0.006742494
-7.683865e-08
0.00674257
-7.586432e-08
0.006742645
-7.481382e-08
0.006742718
-7.368361e-08
0.006742791
-7.247037e-08
0.006742862
-7.117049e-08
0.006742932
-6.978065e-08
0.006743
-6.829734e-08
0.006743067
-6.67174e-08
0.006743132
-6.503757e-08
0.006743195
-6.325505e-08
0.006743256
-6.136707e-08
0.006743316
-5.937141e-08
0.006743373
-5.726601e-08
0.006743428
-5.50495e-08
0.006743481
-5.272082e-08
0.006743531
-5.027971e-08
0.006743579
-4.772637e-08
0.006743624
-4.506192e-08
0.006743666
-4.228807e-08
0.006743705
-3.940759e-08
0.006743742
-3.64239e-08
0.006743775
-3.334161e-08
0.006743805
-3.016608e-08
0.006743832
-2.690395e-08
0.006743856
-2.356288e-08
0.006743876
-2.015219e-08
0.006743892
-1.668342e-08
0.006743906
-1.317179e-08
0.006743915
-9.642991e-09
0.006743921
-6.130492e-09
-2.767293e-09
0.006736228
-6.621007e-07
0.006736231
-3.579219e-07
0.006736295
-1.526809e-07
0.006736313
-1.297264e-07
0.006736341
-1.105076e-07
0.006736376
-8.967079e-08
0.006736412
-8.175022e-08
0.006736448
-8.031447e-08
0.006736487
-8.102245e-08
0.006736528
-8.322988e-08
0.006736571
-8.64937e-08
0.006736616
-9.033064e-08
0.006736664
-9.445987e-08
0.006736713
-9.872713e-08
0.006736765
-1.030272e-07
0.006736819
-1.072881e-07
0.006736875
-1.114615e-07
0.006736934
-1.155151e-07
0.006736994
-1.194273e-07
0.006737056
-1.231837e-07
0.00673712
-1.267755e-07
0.006737186
-1.301975e-07
0.006737253
-1.33448e-07
0.006737322
-1.365268e-07
0.006737392
-1.394359e-07
0.006737464
-1.421781e-07
0.006737537
-1.447574e-07
0.006737611
-1.471783e-07
0.006737686
-1.494459e-07
0.006737763
-1.515654e-07
0.00673784
-1.535423e-07
0.006737919
-1.553821e-07
0.006737998
-1.570903e-07
0.006738078
-1.586724e-07
0.006738158
-1.601335e-07
0.00673824
-1.614788e-07
0.006738322
-1.62713e-07
0.006738404
-1.638408e-07
0.006738487
-1.648663e-07
0.006738571
-1.657935e-07
0.006738655
-1.666261e-07
0.006738739
-1.673674e-07
0.006738824
-1.680202e-07
0.006738909
-1.685872e-07
0.006738994
-1.690707e-07
0.006739079
-1.694725e-07
0.006739165
-1.697941e-07
0.00673925
-1.700368e-07
0.006739336
-1.702012e-07
0.006739422
-1.702879e-07
0.006739508
-1.702969e-07
0.006739593
-1.702279e-07
0.006739679
-1.700801e-07
0.006739765
-1.698527e-07
0.00673985
-1.69544e-07
0.006739935
-1.691524e-07
0.00674002
-1.686757e-07
0.006740105
-1.681113e-07
0.006740189
-1.674563e-07
0.006740273
-1.667074e-07
0.006740357
-1.65861e-07
0.00674044
-1.649131e-07
0.006740523
-1.638592e-07
0.006740605
-1.626946e-07
0.006740686
-1.614143e-07
0.006740767
-1.600128e-07
0.006740847
-1.584843e-07
0.006740926
-1.56823e-07
0.006741004
-1.550225e-07
0.006741081
-1.530762e-07
0.006741157
-1.509775e-07
0.006741232
-1.487196e-07
0.006741306
-1.462954e-07
0.006741379
-1.436981e-07
0.00674145
-1.409206e-07
0.006741519
-1.379561e-07
0.006741587
-1.347981e-07
0.006741654
-1.314402e-07
0.006741718
-1.278764e-07
0.006741781
-1.241016e-07
0.006741842
-1.201108e-07
0.0067419
-1.159001e-07
0.006741957
-1.114666e-07
0.006742011
-1.068082e-07
0.006742063
-1.019241e-07
0.006742112
-9.681496e-08
0.006742158
-9.148261e-08
0.006742202
-8.593076e-08
0.006742242
-8.016454e-08
0.00674228
-7.41911e-08
0.006742315
-6.801924e-08
0.006742346
-6.165986e-08
0.006742375
-5.512567e-08
0.006742399
-4.843157e-08
0.006742421
-4.159444e-08
0.006742439
-3.46335e-08
0.006742453
-2.757023e-08
0.006742464
-2.042933e-08
0.006742471
-1.323666e-08
-6.026126e-09
0.006736501
-3.686776e-07
0.006736398
-2.546055e-07
0.006736401
-1.543239e-07
0.006736411
-1.391208e-07
0.006736432
-1.309292e-07
0.006736463
-1.205173e-07
0.006736498
-1.165029e-07
0.006736535
-1.172585e-07
0.006736574
-1.201754e-07
0.006736616
-1.245163e-07
0.006736659
-1.298839e-07
0.006736704
-1.358674e-07
0.006736752
-1.421786e-07
0.006736802
-1.486339e-07
0.006736854
-1.551051e-07
0.006736908
-1.615005e-07
0.006736964
-1.677562e-07
0.006737022
-1.738279e-07
0.006737083
-1.796851e-07
0.006737145
-1.853076e-07
0.006737209
-1.906827e-07
0.006737274
-1.958032e-07
0.006737341
-2.006663e-07
0.00673741
-2.052722e-07
0.00673748
-2.096237e-07
0.006737551
-2.137253e-07
0.006737624
-2.175828e-07
0.006737698
-2.212031e-07
0.006737773
-2.245939e-07
0.006737849
-2.277629e-07
0.006737927
-2.307185e-07
0.006738005
-2.33469e-07
0.006738083
-2.360225e-07
0.006738163
-2.383874e-07
0.006738243
-2.405713e-07
0.006738325
-2.42582e-07
0.006738406
-2.444267e-07
0.006738488
-2.461121e-07
0.006738571
-2.476448e-07
0.006738654
-2.490305e-07
0.006738738
-2.502748e-07
0.006738822
-2.513826e-07
0.006738906
-2.523584e-07
0.006738991
-2.532059e-07
0.006739076
-2.539286e-07
0.006739161
-2.545293e-07
0.006739246
-2.550102e-07
0.006739331
-2.553732e-07
0.006739417
-2.556194e-07
0.006739502
-2.557494e-07
0.006739587
-2.557633e-07
0.006739673
-2.556607e-07
0.006739758
-2.554405e-07
0.006739843
-2.551012e-07
0.006739929
-2.546406e-07
0.006740013
-2.540561e-07
0.006740098
-2.533443e-07
0.006740182
-2.525015e-07
0.006740266
-2.515233e-07
0.00674035
-2.504047e-07
0.006740433
-2.491403e-07
0.006740516
-2.47724e-07
0.006740598
-2.461493e-07
0.00674068
-2.444089e-07
0.006740761
-2.424953e-07
0.006740842
-2.404003e-07
0.006740921
-2.381153e-07
0.006741
-2.356312e-07
0.006741078
-2.329386e-07
0.006741155
-2.300277e-07
0.006741231
-2.268883e-07
0.006741306
-2.235101e-07
0.006741379
-2.198826e-07
0.006741451
-2.159952e-07
0.006741522
-2.118374e-07
0.006741592
-2.07399e-07
0.00674166
-2.026698e-07
0.006741726
-1.976401e-07
0.00674179
-1.923012e-07
0.006741853
-1.866446e-07
0.006741913
-1.806632e-07
0.006741972
-1.743508e-07
0.006742028
-1.677028e-07
0.006742082
-1.60716e-07
0.006742133
-1.533891e-07
0.006742182
-1.457226e-07
0.006742228
-1.377194e-07
0.006742272
-1.293848e-07
0.006742312
-1.207265e-07
0.00674235
-1.11755e-07
0.006742384
-1.024834e-07
0.006742416
-9.292806e-08
0.006742444
-8.310792e-08
0.006742468
-7.304503e-08
0.006742489
-6.276438e-08
0.006742507
-5.229384e-08
0.006742521
-4.166384e-08
0.006742532
-3.090725e-08
0.006742538
-2.005528e-08
-9.140026e-09
0.00673659
-2.113673e-07
0.006736531
-1.947281e-07
0.006736535
-1.569594e-07
0.006736547
-1.500854e-07
0.006736564
-1.480292e-07
0.00673659
-1.452938e-07
0.006736619
-1.460257e-07
0.006736652
-1.501175e-07
0.006736688
-1.56128e-07
0.006736727
-1.633743e-07
0.006736768
-1.714746e-07
0.006736813
-1.800844e-07
0.006736859
-1.889389e-07
0.006736908
-1.978554e-07
0.00673696
-2.067035e-07
0.006737014
-2.153889e-07
0.00673707
-2.238444e-07
0.006737128
-2.320231e-07
0.006737188
-2.398928e-07
0.00673725
-2.474323e-07
0.006737314
-2.54629e-07
0.006737379
-2.614764e-07
0.006737447
-2.679729e-07
0.006737515
-2.741206e-07
0.006737586
-2.799246e-07
0.006737657
-2.853919e-07
0.00673773
-2.905311e-07
0.006737804
-2.953521e-07
0.006737879
-2.998654e-07
0.006737956
-3.040821e-07
0.006738033
-3.080136e-07
0.006738111
-3.11671e-07
0.00673819
-3.150658e-07
0.00673827
-3.18209e-07
0.00673835
-3.211111e-07
0.006738432
-3.237826e-07
0.006738513
-3.26233e-07
0.006738596
-3.284717e-07
0.006738678
-3.305071e-07
0.006738762
-3.323474e-07
0.006738845
-3.339996e-07
0.006738929
-3.354706e-07
0.006739014
-3.367662e-07
0.006739098
-3.378916e-07
0.006739183
-3.388514e-07
0.006739268
-3.396492e-07
0.006739354
-3.402882e-07
0.006739439
-3.407707e-07
0.006739525
-3.410982e-07
0.00673961
-3.412717e-07
0.006739696
-3.412912e-07
0.006739781
-3.411562e-07
0.006739866
-3.408652e-07
0.006739952
-3.404163e-07
0.006740037
-3.398065e-07
0.006740122
-3.390323e-07
0.006740207
-3.380893e-07
0.006740291
-3.369725e-07
0.006740375
-3.35676e-07
0.006740459
-3.341932e-07
0.006740542
-3.325168e-07
0.006740625
-3.306388e-07
0.006740708
-3.285503e-07
0.006740789
-3.262417e-07
0.006740871
-3.23703e-07
0.006740951
-3.209231e-07
0.006741031
-3.178905e-07
0.00674111
-3.145932e-07
0.006741188
-3.110183e-07
0.006741265
-3.071528e-07
0.006741341
-3.029831e-07
0.006741416
-2.984951e-07
0.00674149
-2.936748e-07
0.006741562
-2.88508e-07
0.006741633
-2.829804e-07
0.006741703
-2.77078e-07
0.006741771
-2.707872e-07
0.006741838
-2.64095e-07
0.006741902
-2.569891e-07
0.006741965
-2.494582e-07
0.006742026
-2.414924e-07
0.006742085
-2.330832e-07
0.006742141
-2.24224e-07
0.006742195
-2.149103e-07
0.006742247
-2.0514e-07
0.006742296
-1.949136e-07
0.006742343
-1.842346e-07
0.006742386
-1.731098e-07
0.006742427
-1.615492e-07
0.006742465
-1.495667e-07
0.0067425
-1.371797e-07
0.006742531
-1.244096e-07
0.006742559
-1.112818e-07
0.006742584
-9.782525e-08
0.006742605
-8.4073e-08
0.006742623
-7.006148e-08
0.006742637
-5.58301e-08
0.006742648
-4.142162e-08
0.006742655
-2.687732e-08
-1.225531e-08
0.006736658
-1.427489e-07
0.006736621
-1.56337e-07
0.006736613
-1.480133e-07
0.006736616
-1.52254e-07
0.006736627
-1.587812e-07
0.006736647
-1.646806e-07
0.006736673
-1.719014e-07
0.006736703
-1.808369e-07
0.006736738
-1.90904e-07
0.006736777
-2.016931e-07
0.006736818
-2.129554e-07
0.006736862
-2.244658e-07
0.006736909
-2.360337e-07
0.006736959
-2.47514e-07
0.006737011
-2.58798e-07
0.006737065
-2.69804e-07
0.006737122
-2.804716e-07
0.00673718
-2.907576e-07
0.006737241
-3.006324e-07
0.006737304
-3.100767e-07
0.006737368
-3.190794e-07
0.006737434
-3.276362e-07
0.006737502
-3.357474e-07
0.006737571
-3.434177e-07
0.006737642
-3.506547e-07
0.006737714
-3.574683e-07
0.006737787
-3.638701e-07
0.006737861
-3.698731e-07
0.006737937
-3.754909e-07
0.006738014
-3.807378e-07
0.006738091
-3.856283e-07
0.00673817
-3.901769e-07
0.006738249
-3.943977e-07
0.006738329
-3.983049e-07
0.00673841
-4.019119e-07
0.006738491
-4.052316e-07
0.006738573
-4.082762e-07
0.006738656
-4.110573e-07
0.006738739
-4.135858e-07
0.006738822
-4.158716e-07
0.006738906
-4.179239e-07
0.00673899
-4.197508e-07
0.006739075
-4.2136e-07
0.00673916
-4.227579e-07
0.006739245
-4.2395e-07
0.00673933
-4.249413e-07
0.006739415
-4.257354e-07
0.006739501
-4.263352e-07
0.006739586
-4.267428e-07
0.006739672
-4.269593e-07
0.006739758
-4.269847e-07
0.006739843
-4.268184e-07
0.006739929
-4.264586e-07
0.006740014
-4.259026e-07
0.0067401
-4.251471e-07
0.006740185
-4.241874e-07
0.00674027
-4.230182e-07
0.006740354
-4.216331e-07
0.006740439
-4.200248e-07
0.006740523
-4.181851e-07
0.006740606
-4.161048e-07
0.006740689
-4.137737e-07
0.006740772
-4.111808e-07
0.006740854
-4.083143e-07
0.006740936
-4.051612e-07
0.006741016
-4.01708e-07
0.006741096
-3.9794e-07
0.006741176
-3.93842e-07
0.006741254
-3.89398e-07
0.006741331
-3.845914e-07
0.006741408
-3.794051e-07
0.006741483
-3.738215e-07
0.006741557
-3.678225e-07
0.00674163
-3.613903e-07
0.006741702
-3.545067e-07
0.006741772
-3.471539e-07
0.00674184
-3.393146e-07
0.006741907
-3.309719e-07
0.006741972
-3.221101e-07
0.006742035
-3.127147e-07
0.006742097
-3.027727e-07
0.006742156
-2.922731e-07
0.006742213
-2.812071e-07
0.006742268
-2.695685e-07
0.00674232
-2.573541e-07
0.006742369
-2.445642e-07
0.006742416
-2.312026e-07
0.006742461
-2.172774e-07
0.006742502
-2.028008e-07
0.00674254
-1.877897e-07
0.006742575
-1.722659e-07
0.006742607
-1.56256e-07
0.006742635
-1.397915e-07
0.00674266
-1.229089e-07
0.006742682
-1.056494e-07
0.0067427
-8.805844e-08
0.006742714
-7.018542e-08
0.006742725
-5.208371e-08
0.006742732
-3.380488e-08
-1.542312e-08
0.00673666
-1.005944e-07
0.006736637
-1.323422e-07
0.006736634
-1.438199e-07
0.00673664
-1.580159e-07
0.006736654
-1.721437e-07
0.006736675
-1.850639e-07
0.006736701
-1.979767e-07
0.006736732
-2.114811e-07
0.006736766
-2.254818e-07
0.006736805
-2.397896e-07
0.006736846
-2.542571e-07
0.00673689
-2.68739e-07
0.006736937
-2.830969e-07
0.006736987
-2.972151e-07
0.006737039
-3.110017e-07
0.006737093
-3.243852e-07
0.00673715
-3.373121e-07
0.006737209
-3.497433e-07
0.00673727
-3.616525e-07
0.006737333
-3.730232e-07
0.006737397
-3.838473e-07
0.006737464
-3.941232e-07
0.006737532
-4.038544e-07
0.006737601
-4.130487e-07
0.006737672
-4.217169e-07
0.006737745
-4.298725e-07
0.006737818
-4.375306e-07
0.006737893
-4.447077e-07
0.006737969
-4.51421e-07
0.006738046
-4.576883e-07
0.006738124
-4.635276e-07
0.006738202
-4.689566e-07
0.006738282
-4.739929e-07
0.006738362
-4.786535e-07
0.006738443
-4.829549e-07
0.006738525
-4.869127e-07
0.006738607
-4.905419e-07
0.00673869
-4.938564e-07
0.006738773
-4.968694e-07
0.006738857
-4.995929e-07
0.006738941
-5.020379e-07
0.006739025
-5.042144e-07
0.00673911
-5.061315e-07
0.006739195
-5.077968e-07
0.00673928
-5.092173e-07
0.006739366
-5.103986e-07
0.006739451
-5.113454e-07
0.006739537
-5.12061e-07
0.006739623
-5.125479e-07
0.006739709
-5.128074e-07
0.006739794
-5.128397e-07
0.00673988
-5.126439e-07
0.006739966
-5.122179e-07
0.006740052
-5.115587e-07
0.006740137
-5.106619e-07
0.006740222
-5.095223e-07
0.006740307
-5.081333e-07
0.006740392
-5.064873e-07
0.006740477
-5.045755e-07
0.006740561
-5.02388e-07
0.006740645
-4.999138e-07
0.006740728
-4.971408e-07
0.006740811
-4.940557e-07
0.006740893
-4.90644e-07
0.006740975
-4.868904e-07
0.006741056
-4.827783e-07
0.006741136
-4.782902e-07
0.006741216
-4.734076e-07
0.006741295
-4.681112e-07
0.006741372
-4.623809e-07
0.006741449
-4.561957e-07
0.006741525
-4.495343e-07
0.006741599
-4.423749e-07
0.006741673
-4.346955e-07
0.006741745
-4.264739e-07
0.006741815
-4.176882e-07
0.006741884
-4.083171e-07
0.006741952
-3.983398e-07
0.006742017
-3.877369e-07
0.006742081
-3.764901e-07
0.006742143
-3.645832e-07
0.006742202
-3.520022e-07
0.00674226
-3.387357e-07
0.006742315
-3.247756e-07
0.006742368
-3.101172e-07
0.006742418
-2.947602e-07
0.006742466
-2.787084e-07
0.00674251
-2.619708e-07
0.006742552
-2.445616e-07
0.006742591
-2.265009e-07
0.006742626
-2.078142e-07
0.006742659
-1.885335e-07
0.006742687
-1.686966e-07
0.006742713
-1.483474e-07
0.006742735
-1.275357e-07
0.006742753
-1.063166e-07
0.006742768
-8.475008e-08
0.006742778
-6.290134e-08
0.006742785
-4.083386e-08
-1.864138e-08
0.006736665
-8.266839e-08
0.006736655
-1.219045e-07
0.006736655
-1.432482e-07
0.006736663
-1.644687e-07
0.006736676
-1.84945e-07
0.006736695
-2.040434e-07
0.00673672
-2.224709e-07
0.006736749
-2.407735e-07
0.006736783
-2.590419e-07
0.00673682
-2.772051e-07
0.006736861
-2.951848e-07
0.006736905
-3.128966e-07
0.006736952
-3.30251e-07
0.006737002
-3.471664e-07
0.006737055
-3.635752e-07
0.00673711
-3.794237e-07
0.006737167
-3.946711e-07
0.006737226
-4.092886e-07
0.006737288
-4.232575e-07
0.006737351
-4.365679e-07
0.006737417
-4.492172e-07
0.006737484
-4.612089e-07
0.006737552
-4.725513e-07
0.006737622
-4.832568e-07
0.006737694
-4.933406e-07
0.006737767
-5.028205e-07
0.006737841
-5.117159e-07
0.006737916
-5.200472e-07
0.006737993
-5.278358e-07
0.00673807
-5.351032e-07
0.006738148
-5.418712e-07
0.006738227
-5.481611e-07
0.006738307
-5.539939e-07
0.006738388
-5.593898e-07
0.006738469
-5.643683e-07
0.006738551
-5.68948e-07
0.006738634
-5.731465e-07
0.006738717
-5.769803e-07
0.006738801
-5.804648e-07
0.006738885
-5.836141e-07
0.006738969
-5.864411e-07
0.006739054
-5.889577e-07
0.006739139
-5.911742e-07
0.006739224
-5.930999e-07
0.006739309
-5.947426e-07
0.006739395
-5.961091e-07
0.006739481
-5.972047e-07
0.006739567
-5.980335e-07
0.006739653
-5.985982e-07
0.006739739
-5.989005e-07
0.006739825
-5.989405e-07
0.006739911
-5.987171e-07
0.006739997
-5.982281e-07
0.006740083
-5.974698e-07
0.006740169
-5.964372e-07
0.006740254
-5.95124e-07
0.00674034
-5.935228e-07
0.006740425
-5.916246e-07
0.00674051
-5.894192e-07
0.006740594
-5.86895e-07
0.006740678
-5.840391e-07
0.006740762
-5.808374e-07
0.006740845
-5.772742e-07
0.006740928
-5.733328e-07
0.00674101
-5.68995e-07
0.006741091
-5.642415e-07
0.006741172
-5.590516e-07
0.006741252
-5.534037e-07
0.006741331
-5.472748e-07
0.006741409
-5.406413e-07
0.006741487
-5.334785e-07
0.006741563
-5.25761e-07
0.006741638
-5.174629e-07
0.006741712
-5.08558e-07
0.006741784
-4.990199e-07
0.006741855
-4.888225e-07
0.006741925
-4.779399e-07
0.006741993
-4.663473e-07
0.006742059
-4.540208e-07
0.006742124
-4.409385e-07
0.006742186
-4.270804e-07
0.006742247
-4.124288e-07
0.006742305
-3.969697e-07
0.006742361
-3.806922e-07
0.006742414
-3.6359e-07
0.006742465
-3.456613e-07
0.006742513
-3.2691e-07
0.006742559
-3.073455e-07
0.006742601
-2.869837e-07
0.006742641
-2.658472e-07
0.006742677
-2.439657e-07
0.006742709
-2.213762e-07
0.006742739
-1.981229e-07
0.006742765
-1.742576e-07
0.006742787
-1.498388e-07
0.006742806
-1.249319e-07
0.006742821
-9.960778e-08
0.006742832
-7.394414e-08
0.006742839
-4.80166e-08
-2.193624e-08
0.006736652
-7.221661e-08
0.006736648
-1.174452e-07
0.006736652
-1.460625e-07
0.006736661
-1.732054e-07
0.006736676
-1.995323e-07
0.006736697
-2.243231e-07
0.006736723
-2.479405e-07
0.006736753
-2.708846e-07
0.006736787
-2.933381e-07
0.006736825
-3.153104e-07
0.006736867
-3.367815e-07
0.006736912
-3.577175e-07
0.006736959
-3.78069e-07
0.00673701
-3.977846e-07
0.006737063
-4.168184e-07
0.006737119
-4.351328e-07
0.006737177
-4.526994e-07
0.006737237
-4.694988e-07
0.006737299
-4.855201e-07
0.006737363
-5.007599e-07
0.006737429
-5.152216e-07
0.006737497
-5.28914e-07
0.006737566
-5.418507e-07
0.006737636
-5.540488e-07
0.006737709
-5.655284e-07
0.006737782
-5.76312e-07
0.006737857
-5.864232e-07
0.006737932
-5.958872e-07
0.006738009
-6.047294e-07
0.006738087
-6.129755e-07
0.006738166
-6.20651e-07
0.006738245
-6.277812e-07
0.006738326
-6.343904e-07
0.006738407
-6.405025e-07
0.006738488
-6.461399e-07
0.006738571
-6.513242e-07
0.006738654
-6.560758e-07
0.006738737
-6.604137e-07
0.006738821
-6.643556e-07
0.006738905
-6.679179e-07
0.00673899
-6.711154e-07
0.006739075
-6.739615e-07
0.00673916
-6.764683e-07
0.006739246
-6.786463e-07
0.006739331
-6.805046e-07
0.006739417
-6.820509e-07
0.006739503
-6.832911e-07
0.006739589
-6.842301e-07
0.006739676
-6.848711e-07
0.006739762
-6.852157e-07
0.006739848
-6.852643e-07
0.006739935
-6.850157e-07
0.006740021
-6.844672e-07
0.006740107
-6.836146e-07
0.006740193
-6.824523e-07
0.006740279
-6.809732e-07
0.006740364
-6.791686e-07
0.00674045
-6.770284e-07
0.006740535
-6.745408e-07
0.00674062
-6.716928e-07
0.006740704
-6.684695e-07
0.006740788
-6.648546e-07
0.006740872
-6.608303e-07
0.006740955
-6.563774e-07
0.006741037
-6.514749e-07
0.006741119
-6.461007e-07
0.0067412
-6.402308e-07
0.00674128
-6.338404e-07
0.00674136
-6.269031e-07
0.006741439
-6.193912e-07
0.006741517
-6.112762e-07
0.006741593
-6.025287e-07
0.006741669
-5.931184e-07
0.006741743
-5.830146e-07
0.006741817
-5.721865e-07
0.006741888
-5.606032e-07
0.006741959
-5.482343e-07
0.006742027
-5.350502e-07
0.006742094
-5.210227e-07
0.00674216
-5.061251e-07
0.006742223
-4.903333e-07
0.006742284
-4.736258e-07
0.006742343
-4.559849e-07
0.0067424
-4.373968e-07
0.006742454
-4.178526e-07
0.006742506
-3.973491e-07
0.006742555
-3.758891e-07
0.006742601
-3.534822e-07
0.006742644
-3.301456e-07
0.006742684
-3.059043e-07
0.006742721
-2.807917e-07
0.006742754
-2.548499e-07
0.006742784
-2.281296e-07
0.006742811
-2.006905e-07
0.006742833
-1.726005e-07
0.006742852
-1.439357e-07
0.006742868
-1.147793e-07
0.006742879
-8.522254e-08
0.006742886
-5.535469e-08
-2.530846e-08
0.006736639
-6.919371e-08
0.006736641
-1.188167e-07
0.006736648
-1.524119e-07
0.00673666
-1.843411e-07
0.006736677
-2.156884e-07
0.006736699
-2.454809e-07
0.006736725
-2.738407e-07
0.006736755
-3.012071e-07
0.00673679
-3.27773e-07
0.006736828
-3.535679e-07
0.00673687
-3.785935e-07
0.006736915
-4.028389e-07
0.006736963
-4.26278e-07
0.006737014
-4.488785e-07
0.006737067
-4.706112e-07
0.006737124
-4.914525e-07
0.006737182
-5.113857e-07
0.006737243
-5.304016e-07
0.006737306
-5.484984e-07
0.006737371
-5.656808e-07
0.006737438
-5.819594e-07
0.006737506
-5.973501e-07
0.006737576
-6.118727e-07
0.006737647
-6.255505e-07
0.00673772
-6.384095e-07
0.006737794
-6.504774e-07
0.006737869
-6.617835e-07
0.006737946
-6.723577e-07
0.006738023
-6.822303e-07
0.006738102
-6.914316e-07
0.006738181
-6.999913e-07
0.006738261
-7.079387e-07
0.006738342
-7.15302e-07
0.006738424
-7.221086e-07
0.006738506
-7.283842e-07
0.006738589
-7.341537e-07
0.006738672
-7.3944e-07
0.006738756
-7.44265e-07
0.00673884
-7.486487e-07
0.006738925
-7.526096e-07
0.00673901
-7.561645e-07
0.006739095
-7.593287e-07
0.00673918
-7.621157e-07
0.006739266
-7.645375e-07
0.006739352
-7.666041e-07
0.006739439
-7.683243e-07
0.006739525
-7.69705e-07
0.006739612
-7.707514e-07
0.006739698
-7.714671e-07
0.006739785
-7.718541e-07
0.006739871
-7.719128e-07
0.006739958
-7.716418e-07
0.006740044
-7.71038e-07
0.006740131
-7.70097e-07
0.006740217
-7.688123e-07
0.006740303
-7.671759e-07
0.006740389
-7.651782e-07
0.006740475
-7.628077e-07
0.006740561
-7.600512e-07
0.006740646
-7.56894e-07
0.006740731
-7.533194e-07
0.006740815
-7.493091e-07
0.006740899
-7.448429e-07
0.006740983
-7.398991e-07
0.006741066
-7.34454e-07
0.006741148
-7.284825e-07
0.00674123
-7.219575e-07
0.006741311
-7.148507e-07
0.006741391
-7.07132e-07
0.00674147
-6.987699e-07
0.006741549
-6.897319e-07
0.006741626
-6.79984e-07
0.006741703
-6.694916e-07
0.006741778
-6.582193e-07
0.006741852
-6.461314e-07
0.006741924
-6.33192e-07
0.006741995
-6.193657e-07
0.006742065
-6.046178e-07
0.006742133
-5.88915e-07
0.006742199
-5.722256e-07
0.006742263
-5.545207e-07
0.006742325
-5.357744e-07
0.006742385
-5.159646e-07
0.006742443
-4.950739e-07
0.006742498
-4.730905e-07
0.006742551
-4.500085e-07
0.006742601
-4.258294e-07
0.006742648
-4.005624e-07
0.006742692
-3.742254e-07
0.006742733
-3.468454e-07
0.00674277
-3.184592e-07
0.006742805
-2.891139e-07
0.006742835
-2.588669e-07
0.006742862
-2.277858e-07
0.006742886
-1.959485e-07
0.006742905
-1.634426e-07
0.006742921
-1.303638e-07
0.006742932
-9.681792e-08
0.00674294
-6.290836e-08
-2.878807e-08
0.006736621
-6.890179e-08
0.006736626
-1.230447e-07
0.006736635
-1.610414e-07
0.006736649
-1.972983e-07
0.006736667
-2.333408e-07
0.00673669
-2.678868e-07
0.006736717
-3.008303e-07
0.006736749
-3.32542e-07
0.006736784
-3.631936e-07
0.006736823
-3.928101e-07
0.006736866
-4.21401e-07
0.006736912
-4.489704e-07
0.006736961
-4.755094e-07
0.006737013
-5.010024e-07
0.006737068
-5.254354e-07
0.006737125
-5.487985e-07
0.006737185
-5.710873e-07
0.006737247
-5.923034e-07
0.006737311
-6.124547e-07
0.006737376
-6.315546e-07
0.006737444
-6.49622e-07
0.006737513
-6.666801e-07
0.006737584
-6.82756e-07
0.006737656
-6.978796e-07
0.00673773
-7.120832e-07
0.006737805
-7.254004e-07
0.006737881
-7.378662e-07
0.006737958
-7.495158e-07
0.006738036
-7.603847e-07
0.006738115
-7.705078e-07
0.006738195
-7.799195e-07
0.006738275
-7.886532e-07
0.006738357
-7.96741e-07
0.006738439
-8.04214e-07
0.006738522
-8.111013e-07
0.006738605
-8.174309e-07
0.006738689
-8.232287e-07
0.006738773
-8.285192e-07
0.006738857
-8.333248e-07
0.006738942
-8.376662e-07
0.006739028
-8.415622e-07
0.006739113
-8.450298e-07
0.006739199
-8.480841e-07
0.006739286
-8.507384e-07
0.006739372
-8.53004e-07
0.006739458
-8.548905e-07
0.006739545
-8.564056e-07
0.006739632
-8.575551e-07
0.006739719
-8.58343e-07
0.006739806
-8.587716e-07
0.006739893
-8.588413e-07
0.006739979
-8.585504e-07
0.006740066
-8.578959e-07
0.006740153
-8.568725e-07
0.00674024
-8.554731e-07
0.006740326
-8.536891e-07
0.006740412
-8.515095e-07
0.006740499
-8.489218e-07
0.006740584
-8.459113e-07
0.00674067
-8.424616e-07
0.006740755
-8.385542e-07
0.00674084
-8.341686e-07
0.006740924
-8.292825e-07
0.006741008
-8.238716e-07
0.006741092
-8.179094e-07
0.006741175
-8.113677e-07
0.006741257
-8.042164e-07
0.006741338
-7.964235e-07
0.006741419
-7.879551e-07
0.006741499
-7.78776e-07
0.006741578
-7.68849e-07
0.006741657
-7.581359e-07
0.006741734
-7.465972e-07
0.00674181
-7.341925e-07
0.006741884
-7.208809e-07
0.006741958
-7.066213e-07
0.00674203
-6.913726e-07
0.0067421
-6.750947e-07
0.006742169
-6.577484e-07
0.006742236
-6.392967e-07
0.006742301
-6.19705e-07
0.006742364
-5.989422e-07
0.006742425
-5.769812e-07
0.006742484
-5.538003e-07
0.00674254
-5.293836e-07
0.006742594
-5.037222e-07
0.006742645
-4.768152e-07
0.006742693
-4.486708e-07
0.006742738
-4.193069e-07
0.00674278
-3.887521e-07
0.006742819
-3.570461e-07
0.006742854
-3.242409e-07
0.006742885
-2.904005e-07
0.006742913
-2.556009e-07
0.006742937
-2.199304e-07
0.006742957
-1.834888e-07
0.006742973
-1.463858e-07
0.006742985
-1.087434e-07
0.006742993
-7.068093e-08
-3.237673e-08
0.006736601
-7.130805e-08
0.006736609
-1.299529e-07
0.006736621
-1.71936e-07
0.006736637
-2.122805e-07
0.006736657
-2.527535e-07
0.006736681
-2.917786e-07
0.006736709
-3.290792e-07
0.006736742
-3.649751e-07
0.006736778
-3.996092e-07
0.006736818
-4.329889e-07
0.006736862
-4.651195e-07
0.006736909
-4.960092e-07
0.006736959
-5.256569e-07
0.006737012
-5.540569e-07
0.006737068
-5.812055e-07
0.006737126
-6.071034e-07
0.006737186
-6.317563e-07
0.006737249
-6.551757e-07
0.006737314
-6.773788e-07
0.006737381
-6.983883e-07
0.006737449
-7.182315e-07
0.00673752
-7.369397e-07
0.006737591
-7.545479e-07
0.006737664
-7.710931e-07
0.006737739
-7.866148e-07
0.006737815
-8.011532e-07
0.006737891
-8.147494e-07
0.006737969
-8.274446e-07
0.006738048
-8.392797e-07
0.006738128
-8.502948e-07
0.006738208
-8.605291e-07
0.00673829
-8.700205e-07
0.006738372
-8.788053e-07
0.006738454
-8.869183e-07
0.006738538
-8.943923e-07
0.006738621
-9.012584e-07
0.006738706
-9.075458e-07
0.00673879
-9.132813e-07
0.006738876
-9.1849e-07
0.006738961
-9.231948e-07
0.006739047
-9.274166e-07
0.006739133
-9.31174e-07
0.006739219
-9.344837e-07
0.006739306
-9.373603e-07
0.006739393
-9.398164e-07
0.00673948
-9.418624e-07
0.006739567
-9.435069e-07
0.006739654
-9.447562e-07
0.006739741
-9.456148e-07
0.006739828
-9.460852e-07
0.006739916
-9.461677e-07
0.006740003
-9.458607e-07
0.00674009
-9.451607e-07
0.006740177
-9.440621e-07
0.006740264
-9.425572e-07
0.006740351
-9.406362e-07
0.006740438
-9.382874e-07
0.006740525
-9.35497e-07
0.006740611
-9.322489e-07
0.006740697
-9.285249e-07
0.006740783
-9.243048e-07
0.006740868
-9.195661e-07
0.006740953
-9.142841e-07
0.006741038
-9.084318e-07
0.006741122
-9.019803e-07
0.006741205
-8.948981e-07
0.006741288
-8.871519e-07
0.00674137
-8.78706e-07
0.006741452
-8.695228e-07
0.006741533
-8.595627e-07
0.006741613
-8.487844e-07
0.006741692
-8.371446e-07
0.00674177
-8.245991e-07
0.006741847
-8.111021e-07
0.006741922
-7.966071e-07
0.006741997
-7.810672e-07
0.00674207
-7.644353e-07
0.006742141
-7.466652e-07
0.006742211
-7.277115e-07
0.00674228
-7.075308e-07
0.006742346
-6.860823e-07
0.00674241
-6.633287e-07
0.006742473
-6.392373e-07
0.006742533
-6.137808e-07
0.00674259
-5.869384e-07
0.006742645
-5.586972e-07
0.006742697
-5.290532e-07
0.006742747
-4.980125e-07
0.006742793
-4.655921e-07
0.006742836
-4.318216e-07
0.006742876
-3.967434e-07
0.006742912
-3.604138e-07
0.006742944
-3.229033e-07
0.006742973
-2.842967e-07
0.006742998
-2.446932e-07
0.006743018
-2.042055e-07
0.006743035
-1.629585e-07
0.006743047
-1.21091e-07
0.006743055
-7.873987e-08
-3.610806e-08
0.006736579
-7.498905e-08
0.006736588
-1.384818e-07
0.006736602
-1.844447e-07
0.006736619
-2.288144e-07
0.00673664
-2.736264e-07
0.006736666
-3.170406e-07
0.006736696
-3.58633e-07
0.00673673
-3.986783e-07
0.006736767
-4.372845e-07
0.006736809
-4.744331e-07
0.006736854
-5.101172e-07
0.006736902
-5.443429e-07
0.006736953
-5.771123e-07
0.006737008
-6.084266e-07
0.006737065
-6.38291e-07
0.006737124
-6.66716e-07
0.006737186
-6.937177e-07
0.00673725
-7.193181e-07
0.006737316
-7.435447e-07
0.006737384
-7.664299e-07
0.006737454
-7.880108e-07
0.006737525
-8.083277e-07
0.006737598
-8.274242e-07
0.006737672
-8.453455e-07
0.006737747
-8.621387e-07
0.006737824
-8.778514e-07
0.006737902
-8.925313e-07
0.006737981
-9.06226e-07
0.00673806
-9.189823e-07
0.006738141
-9.308457e-07
0.006738222
-9.418604e-07
0.006738304
-9.520691e-07
0.006738387
-9.615124e-07
0.00673847
-9.70229e-07
0.006738554