/*--------------------------------*- C++ -*----------------------------------*\
| =========                 |                                                 |
| \\      /  F ield         | OpenFOAM: The Open Source CFD Toolbox           |
|  \\    /   O peration     | Version:  2.3.0                                 |
|   \\  /    A nd           | Web:      www.OpenFOAM.org                      |
|    \\/     M anipulation  |                                                 |
\*---------------------------------------------------------------------------*/
FoamFile
{
    version     2.0;
    format      ascii;
    class       volVectorField;
    location    "10000/bottomAir";
    object      U;
}
// * * * * * * * * * * * * * * * * * * * * * * * * * * * * * * * * * * * * * //

dimensions      [0 1 -1 0 0 0 0];

internalField   nonuniform List<vector> 
4000
(
(33.72391 -0.003041367 0)
(25.50652 -0.001527607 0)
(22.19007 -0.0006094627 0)
(23.0709 -0.0004708023 0)
(23.40728 -0.0003468733 0)
(23.31331 -0.0002373869 0)
(23.27948 -0.0001830734 0)
(23.28969 -0.0001545822 0)
(23.29328 -0.0001359733 0)
(23.29235 -0.000124333 0)
(23.29216 -0.0001175776 0)
(23.29243 -0.0001137917 0)
(23.29263 -0.0001118963 0)
(23.29278 -0.0001112807 0)
(23.29295 -0.0001115382 0)
(23.29314 -0.000112387 0)
(23.29333 -0.0001136363 0)
(23.29353 -0.0001151524 0)
(23.29373 -0.0001168393 0)
(23.29394 -0.0001186274 0)
(23.29416 -0.0001204652 0)
(23.29438 -0.0001223151 0)
(23.29461 -0.0001241484 0)
(23.29484 -0.000125945 0)
(23.29508 -0.0001276889 0)
(23.29533 -0.0001293697 0)
(23.29558 -0.0001309791 0)
(23.29583 -0.0001325121 0)
(23.29609 -0.000133965 0)
(23.29635 -0.0001353363 0)
(23.29661 -0.000136625 0)
(23.29688 -0.0001378316 0)
(23.29715 -0.0001389566 0)
(23.29743 -0.0001400016 0)
(23.2977 -0.0001409681 0)
(23.29798 -0.0001418582 0)
(23.29826 -0.0001426737 0)
(23.29855 -0.0001434169 0)
(23.29883 -0.0001440898 0)
(23.29912 -0.0001446945 0)
(23.29941 -0.0001452329 0)
(23.2997 -0.0001457067 0)
(23.29999 -0.0001461177 0)
(23.30028 -0.0001464673 0)
(23.30057 -0.0001467568 0)
(23.30087 -0.0001469871 0)
(23.30116 -0.0001471593 0)
(23.30146 -0.0001472736 0)
(23.30175 -0.0001473305 0)
(23.30205 -0.00014733 0)
(23.30234 -0.000147272 0)
(23.30264 -0.0001471557 0)
(23.30293 -0.0001469807 0)
(23.30323 -0.0001467454 0)
(23.30352 -0.000146449 0)
(23.30382 -0.0001460893 0)
(23.30411 -0.0001456647 0)
(23.3044 -0.0001451727 0)
(23.30469 -0.0001446108 0)
(23.30498 -0.000143976 0)
(23.30527 -0.0001432653 0)
(23.30556 -0.0001424749 0)
(23.30584 -0.0001416012 0)
(23.30613 -0.0001406399 0)
(23.30641 -0.0001395868 0)
(23.30669 -0.0001384369 0)
(23.30696 -0.0001371856 0)
(23.30724 -0.0001358273 0)
(23.30751 -0.000134357 0)
(23.30777 -0.0001327687 0)
(23.30804 -0.0001310569 0)
(23.3083 -0.0001292154 0)
(23.30855 -0.0001272384 0)
(23.30881 -0.0001251198 0)
(23.30905 -0.0001228538 0)
(23.3093 -0.0001204342 0)
(23.30953 -0.0001178556 0)
(23.30976 -0.0001151123 0)
(23.30999 -0.0001121995 0)
(23.31021 -0.0001091123 0)
(23.31042 -0.0001058469 0)
(23.31062 -0.0001023996 0)
(23.31082 -9.876818e-05 0)
(23.31101 -9.495059e-05 0)
(23.31119 -9.094646e-05 0)
(23.31137 -8.675598e-05 0)
(23.31153 -8.238113e-05 0)
(23.31168 -7.782473e-05 0)
(23.31183 -7.309156e-05 0)
(23.31196 -6.818745e-05 0)
(23.31209 -6.312034e-05 0)
(23.3122 -5.789945e-05 0)
(23.3123 -5.253645e-05 0)
(23.31239 -4.704493e-05 0)
(23.31247 -4.144222e-05 0)
(23.31254 -3.575127e-05 0)
(23.31259 -3.000553e-05 0)
(23.31264 -2.426948e-05 0)
(23.31267 -1.863865e-05 0)
(23.31269 -1.349926e-05 0)
(33.71856 -0.003797226 0)
(25.50393 -0.001644528 0)
(22.18545 -0.0004940059 0)
(23.06567 -0.0004073323 0)
(23.4021 -0.0003084585 0)
(23.30804 -0.000208843 0)
(23.27412 -0.0001758393 0)
(23.28431 -0.0001709925 0)
(23.28789 -0.000173564 0)
(23.28695 -0.0001813074 0)
(23.28676 -0.0001925014 0)
(23.28703 -0.0002052107 0)
(23.28722 -0.0002184689 0)
(23.28738 -0.0002318314 0)
(23.28756 -0.0002450243 0)
(23.28775 -0.0002578745 0)
(23.28794 -0.0002702834 0)
(23.28814 -0.0002821947 0)
(23.28835 -0.0002935778 0)
(23.28856 -0.0003044179 0)
(23.28879 -0.0003147114 0)
(23.28901 -0.0003244619 0)
(23.28925 -0.0003336778 0)
(23.28949 -0.0003423715 0)
(23.28973 -0.0003505571 0)
(23.28998 -0.000358251 0)
(23.29023 -0.0003654702 0)
(23.29049 -0.0003722326 0)
(23.29075 -0.0003785561 0)
(23.29102 -0.0003844592 0)
(23.29129 -0.0003899595 0)
(23.29156 -0.0003950747 0)
(23.29184 -0.0003998219 0)
(23.29211 -0.0004042176 0)
(23.2924 -0.0004082774 0)
(23.29268 -0.0004120163 0)
(23.29296 -0.0004154483 0)
(23.29325 -0.0004185867 0)
(23.29354 -0.0004214438 0)
(23.29383 -0.0004240307 0)
(23.29413 -0.000426358 0)
(23.29442 -0.0004284348 0)
(23.29472 -0.0004302696 0)
(23.29501 -0.0004318697 0)
(23.29531 -0.0004332415 0)
(23.29561 -0.0004343902 0)
(23.29591 -0.0004353203 0)
(23.29621 -0.0004360351 0)
(23.29651 -0.0004365369 0)
(23.29681 -0.0004368272 0)
(23.29711 -0.0004369063 0)
(23.29741 -0.0004367735 0)
(23.29771 -0.0004364273 0)
(23.29801 -0.0004358651 0)
(23.29831 -0.0004350833 0)
(23.2986 -0.0004340773 0)
(23.2989 -0.0004328417 0)
(23.2992 -0.0004313699 0)
(23.29949 -0.0004296544 0)
(23.29979 -0.0004276868 0)
(23.30008 -0.0004254575 0)
(23.30037 -0.0004229562 0)
(23.30066 -0.0004201716 0)
(23.30095 -0.0004170914 0)
(23.30124 -0.0004137024 0)
(23.30152 -0.0004099908 0)
(23.3018 -0.0004059416 0)
(23.30208 -0.0004015394 0)
(23.30236 -0.000396768 0)
(23.30263 -0.0003916104 0)
(23.3029 -0.0003860494 0)
(23.30316 -0.0003800674 0)
(23.30342 -0.0003736464 0)
(23.30368 -0.0003667684 0)
(23.30393 -0.0003594157 0)
(23.30418 -0.0003515705 0)
(23.30442 -0.000343216 0)
(23.30465 -0.0003343359 0)
(23.30488 -0.0003249151 0)
(23.30511 -0.0003149399 0)
(23.30533 -0.0003043981 0)
(23.30553 -0.0002932798 0)
(23.30574 -0.0002815773 0)
(23.30593 -0.0002692856 0)
(23.30612 -0.0002564031 0)
(23.3063 -0.0002429312 0)
(23.30646 -0.0002288754 0)
(23.30662 -0.000214245 0)
(23.30677 -0.000199054 0)
(23.30691 -0.0001833207 0)
(23.30704 -0.0001670685 0)
(23.30716 -0.0001503256 0)
(23.30726 -0.0001331257 0)
(23.30736 -0.0001155081 0)
(23.30744 -9.751843e-05 0)
(23.30751 -7.921112e-05 0)
(23.30757 -6.06519e-05 0)
(23.30762 -4.193435e-05 0)
(23.30765 -2.317253e-05 0)
(23.30768 -4.704808e-06 0)
(33.7184 -0.001451067 0)
(25.50509 -0.0007387147 0)
(22.186 -0.0003914065 0)
(23.06594 -0.0004059128 0)
(23.40241 -0.0003919859 0)
(23.30836 -0.0003600602 0)
(23.27442 -0.0003515329 0)
(23.28461 -0.0003559464 0)
(23.28819 -0.0003647351 0)
(23.28726 -0.0003769729 0)
(23.28706 -0.0003918843 0)
(23.28733 -0.000408355 0)
(23.28753 -0.0004256568 0)
(23.28769 -0.0004433445 0)
(23.28786 -0.0004610908 0)
(23.28805 -0.0004786549 0)
(23.28825 -0.0004958651 0)
(23.28845 -0.0005125992 0)
(23.28866 -0.0005287711 0)
(23.28887 -0.0005443209 0)
(23.28909 -0.0005592095 0)
(23.28932 -0.0005734125 0)
(23.28955 -0.0005869184 0)
(23.28979 -0.0005997241 0)
(23.29003 -0.000611834 0)
(23.29028 -0.0006232578 0)
(23.29053 -0.0006340094 0)
(23.29079 -0.0006441057 0)
(23.29105 -0.0006535661 0)
(23.29132 -0.0006624111 0)
(23.29159 -0.0006706626 0)
(23.29186 -0.0006783425 0)
(23.29213 -0.0006854732 0)
(23.29241 -0.0006920766 0)
(23.29269 -0.0006981743 0)
(23.29297 -0.0007037871 0)
(23.29326 -0.0007089347 0)
(23.29354 -0.0007136361 0)
(23.29383 -0.0007179089 0)
(23.29412 -0.0007217696 0)
(23.29442 -0.0007252333 0)
(23.29471 -0.0007283138 0)
(23.295 -0.0007310233 0)
(23.2953 -0.0007333728 0)
(23.29559 -0.0007353715 0)
(23.29589 -0.0007370274 0)
(23.29619 -0.0007383468 0)
(23.29649 -0.0007393346 0)
(23.29679 -0.0007399938 0)
(23.29708 -0.0007403264 0)
(23.29738 -0.0007403323 0)
(23.29768 -0.0007400103 0)
(23.29798 -0.0007393572 0)
(23.29828 -0.0007383685 0)
(23.29858 -0.0007370379 0)
(23.29887 -0.0007353577 0)
(23.29917 -0.0007333183 0)
(23.29947 -0.000730909 0)
(23.29976 -0.0007281169 0)
(23.30005 -0.000724928 0)
(23.30035 -0.0007213261 0)
(23.30064 -0.0007172942 0)
(23.30093 -0.000712813 0)
(23.30121 -0.0007078623 0)
(23.3015 -0.0007024197 0)
(23.30178 -0.0006964621 0)
(23.30206 -0.0006899645 0)
(23.30234 -0.000682901 0)
(23.30261 -0.0006752442 0)
(23.30288 -0.0006669662 0)
(23.30315 -0.0006580376 0)
(23.30342 -0.0006484289 0)
(23.30368 -0.0006381099 0)
(23.30393 -0.0006270504 0)
(23.30418 -0.00061522 0)
(23.30443 -0.0006025895 0)
(23.30467 -0.0005891297 0)
(23.3049 -0.0005748135 0)
(23.30513 -0.0005596149 0)
(23.30536 -0.0005435106 0)
(23.30557 -0.0005264799 0)
(23.30578 -0.0005085056 0)
(23.30598 -0.0004895743 0)
(23.30618 -0.0004696772 0)
(23.30636 -0.0004488107 0)
(23.30654 -0.0004269768 0)
(23.30671 -0.0004041839 0)
(23.30687 -0.0003804474 0)
(23.30701 -0.0003557895 0)
(23.30715 -0.0003302407 0)
(23.30728 -0.000303839 0)
(23.3074 -0.0002766312 0)
(23.3075 -0.000248672 0)
(23.3076 -0.0002200251 0)
(23.30768 -0.0001907624 0)
(23.30775 -0.0001609642 0)
(23.30781 -0.0001307174 0)
(23.30785 -0.0001001126 0)
(23.30789 -6.923042e-05 0)
(23.30791 -3.809869e-05 0)
(33.71801 -0.001001774 0)
(25.50561 -0.0008514996 0)
(22.18655 -0.0006479471 0)
(23.0664 -0.0005864137 0)
(23.40287 -0.0005422957 0)
(23.30881 -0.0005011402 0)
(23.27485 -0.000480863 0)
(23.28502 -0.0004781103 0)
(23.28858 -0.0004857306 0)
(23.28764 -0.0005003693 0)
(23.28744 -0.0005199356 0)
(23.28771 -0.0005426398 0)
(23.2879 -0.0005671753 0)
(23.28806 -0.0005926522 0)
(23.28823 -0.0006184451 0)
(23.28842 -0.0006441091 0)
(23.28861 -0.0006693314 0)
(23.28881 -0.0006938938 0)
(23.28902 -0.0007176459 0)
(23.28923 -0.0007404863 0)
(23.28946 -0.0007623499 0)
(23.28968 -0.0007831983 0)
(23.28992 -0.000803013 0)
(23.29015 -0.0008217906 0)
(23.2904 -0.0008395388 0)
(23.29065 -0.0008562738 0)
(23.2909 -0.0008720178 0)
(23.29116 -0.0008867976 0)
(23.29142 -0.000900643 0)
(23.29168 -0.0009135859 0)
(23.29195 -0.0009256594 0)
(23.29223 -0.0009368969 0)
(23.2925 -0.000947332 0)
(23.29278 -0.0009569974 0)
(23.29306 -0.0009659252 0)
(23.29334 -0.0009741461 0)
(23.29363 -0.0009816895 0)
(23.29391 -0.000988583 0)
(23.2942 -0.0009948526 0)
(23.29449 -0.001000522 0)
(23.29479 -0.001005614 0)
(23.29508 -0.001010148 0)
(23.29537 -0.001014142 0)
(23.29567 -0.001017612 0)
(23.29597 -0.001020571 0)
(23.29626 -0.001023031 0)
(23.29656 -0.001025 0)
(23.29686 -0.001026487 0)
(23.29716 -0.001027496 0)
(23.29746 -0.001028029 0)
(23.29776 -0.001028087 0)
(23.29806 -0.001027668 0)
(23.29835 -0.001026767 0)
(23.29865 -0.001025379 0)
(23.29895 -0.001023495 0)
(23.29925 -0.001021103 0)
(23.29955 -0.001018191 0)
(23.29984 -0.001014744 0)
(23.30014 -0.001010743 0)
(23.30043 -0.001006169 0)
(23.30072 -0.001000999 0)
(23.30101 -0.0009952099 0)
(23.3013 -0.0009887741 0)
(23.30159 -0.0009816632 0)
(23.30188 -0.0009738462 0)
(23.30216 -0.0009652904 0)
(23.30244 -0.0009559608 0)
(23.30272 -0.000945821 0)
(23.30299 -0.0009348328 0)
(23.30326 -0.0009229563 0)
(23.30353 -0.0009101509 0)
(23.3038 -0.0008963747 0)
(23.30406 -0.0008815852 0)
(23.30431 -0.0008657397 0)
(23.30457 -0.0008487958 0)
(23.30481 -0.0008307114 0)
(23.30505 -0.000811446 0)
(23.30529 -0.0007909605 0)
(23.30552 -0.0007692185 0)
(23.30574 -0.0007461866 0)
(23.30596 -0.0007218352 0)
(23.30617 -0.0006961396 0)
(23.30637 -0.0006690805 0)
(23.30657 -0.000640645 0)
(23.30676 -0.0006108273 0)
(23.30693 -0.0005796298 0)
(23.3071 -0.0005470638 0)
(23.30726 -0.0005131501 0)
(23.30741 -0.00047792 0)
(23.30755 -0.0004414156 0)
(23.30768 -0.0004036901 0)
(23.3078 -0.0003648087 0)
(23.3079 -0.0003248482 0)
(23.308 -0.0002838972 0)
(23.30808 -0.0002420559 0)
(23.30815 -0.0001994361 0)
(23.30821 -0.0001561593 0)
(23.30826 -0.0001123588 0)
(23.30829 -6.816466e-05 0)
(23.30831 -2.37517e-05 0)
(33.71788 -0.0005610169 0)
(25.50596 -0.0005342913 0)
(22.18689 -0.0004601555 0)
(23.06665 -0.0004624776 0)
(23.40309 -0.0004792974 0)
(23.30901 -0.0004952059 0)
(23.27504 -0.0005182327 0)
(23.2852 -0.0005483474 0)
(23.28876 -0.0005822878 0)
(23.28782 -0.0006183494 0)
(23.28761 -0.0006556347 0)
(23.28788 -0.0006933715 0)
(23.28807 -0.0007309565 0)
(23.28823 -0.000767971 0)
(23.28841 -0.0008041196 0)
(23.28859 -0.0008391904 0)
(23.28879 -0.0008730352 0)
(23.28899 -0.0009055533 0)
(23.2892 -0.0009366804 0)
(23.28942 -0.0009663795 0)
(23.28964 -0.0009946349 0)
(23.28987 -0.001021447 0)
(23.29011 -0.00104683 0)
(23.29035 -0.001070806 0)
(23.29059 -0.001093407 0)
(23.29084 -0.00111467 0)
(23.2911 -0.001134634 0)
(23.29135 -0.001153344 0)
(23.29162 -0.001170846 0)
(23.29188 -0.001187186 0)
(23.29215 -0.001202412 0)
(23.29243 -0.001216569 0)
(23.2927 -0.001229703 0)
(23.29298 -0.001241859 0)
(23.29326 -0.00125308 0)
(23.29355 -0.001263407 0)
(23.29383 -0.001272878 0)
(23.29412 -0.00128153 0)
(23.29441 -0.001289397 0)
(23.2947 -0.001296511 0)
(23.29499 -0.001302901 0)
(23.29529 -0.001308592 0)
(23.29558 -0.001313609 0)
(23.29588 -0.001317971 0)
(23.29618 -0.001321696 0)
(23.29648 -0.0013248 0)
(23.29677 -0.001327295 0)
(23.29707 -0.001329189 0)
(23.29737 -0.001330489 0)
(23.29767 -0.0013312 0)
(23.29797 -0.00133132 0)
(23.29827 -0.001330849 0)
(23.29857 -0.00132978 0)
(23.29887 -0.001328107 0)
(23.29917 -0.001325817 0)
(23.29947 -0.001322898 0)
(23.29976 -0.001319331 0)
(23.30006 -0.001315099 0)
(23.30036 -0.001310177 0)
(23.30065 -0.001304541 0)
(23.30094 -0.001298161 0)
(23.30124 -0.001291007 0)
(23.30153 -0.001283044 0)
(23.30181 -0.001274235 0)
(23.3021 -0.001264541 0)
(23.30238 -0.001253918 0)
(23.30267 -0.001242322 0)
(23.30294 -0.001229705 0)
(23.30322 -0.001216019 0)
(23.30349 -0.00120121 0)
(23.30376 -0.001185227 0)
(23.30403 -0.001168015 0)
(23.30429 -0.001149518 0)
(23.30455 -0.001129681 0)
(23.3048 -0.001108448 0)
(23.30505 -0.001085764 0)
(23.30529 -0.001061575 0)
(23.30553 -0.001035831 0)
(23.30576 -0.001008482 0)
(23.30599 -0.0009794852 0)
(23.30621 -0.0009488 0)
(23.30642 -0.0009163933 0)
(23.30662 -0.0008822384 0)
(23.30682 -0.0008463173 0)
(23.30701 -0.0008086207 0)
(23.30719 -0.0007691503 0)
(23.30736 -0.0007279189 0)
(23.30752 -0.0006849521 0)
(23.30767 -0.0006402886 0)
(23.30781 -0.0005939815 0)
(23.30794 -0.0005460986 0)
(23.30806 -0.0004967228 0)
(23.30817 -0.0004459521 0)
(23.30826 -0.0003938995 0)
(23.30835 -0.0003406926 0)
(23.30842 -0.0002864724 0)
(23.30848 -0.0002313906 0)
(23.30852 -0.0001756111 0)
(23.30856 -0.0001192908 0)
(23.30858 -6.265389e-05 0)
(33.71769 -0.0004144759 0)
(25.50602 -0.0005065984 0)
(22.18698 -0.0005307922 0)
(23.06673 -0.0005711447 0)
(23.40317 -0.0006081385 0)
(23.30911 -0.0006388884 0)
(23.27514 -0.0006702445 0)
(23.2853 -0.0007047816 0)
(23.28886 -0.0007420676 0)
(23.28791 -0.0007814494 0)
(23.28771 -0.0008223802 0)
(23.28797 -0.000864255 0)
(23.28817 -0.0009064858 0)
(23.28833 -0.0009485751 0)
(23.2885 -0.0009901197 0)
(23.28869 -0.001030799 0)
(23.28889 -0.001070366 0)
(23.28909 -0.001108633 0)
(23.2893 -0.001145466 0)
(23.28952 -0.001180772 0)
(23.28974 -0.001214492 0)
(23.28997 -0.001246592 0)
(23.29021 -0.001277064 0)
(23.29045 -0.001305913 0)
(23.2907 -0.001333159 0)
(23.29095 -0.001358832 0)
(23.2912 -0.001382971 0)
(23.29146 -0.00140562 0)
(23.29173 -0.001426826 0)
(23.29199 -0.001446641 0)
(23.29227 -0.001465115 0)
(23.29254 -0.001482301 0)
(23.29282 -0.001498253 0)
(23.2931 -0.00151302 0)
(23.29338 -0.001526652 0)
(23.29366 -0.001539197 0)
(23.29395 -0.0015507 0)
(23.29424 -0.001561205 0)
(23.29453 -0.001570751 0)
(23.29482 -0.001579376 0)
(23.29511 -0.001587112 0)
(23.29541 -0.001593992 0)
(23.29571 -0.001600043 0)
(23.296 -0.001605289 0)
(23.2963 -0.00160975 0)
(23.2966 -0.001613445 0)
(23.2969 -0.001616388 0)
(23.2972 -0.001618589 0)
(23.2975 -0.001620055 0)
(23.2978 -0.00162079 0)
(23.2981 -0.001620795 0)
(23.2984 -0.001620066 0)
(23.2987 -0.001618597 0)
(23.299 -0.001616378 0)
(23.2993 -0.001613394 0)
(23.2996 -0.00160963 0)
(23.29989 -0.001605063 0)
(23.30019 -0.00159967 0)
(23.30049 -0.001593424 0)
(23.30078 -0.001586292 0)
(23.30108 -0.001578239 0)
(23.30137 -0.001569228 0)
(23.30166 -0.001559216 0)
(23.30195 -0.001548158 0)
(23.30224 -0.001536004 0)
(23.30252 -0.001522703 0)
(23.3028 -0.0015082 0)
(23.30308 -0.001492435 0)
(23.30336 -0.00147535 0)
(23.30363 -0.001456878 0)
(23.3039 -0.001436957 0)
(23.30417 -0.001415517 0)
(23.30443 -0.001392491 0)
(23.30469 -0.00136781 0)
(23.30495 -0.001341405 0)
(23.3052 -0.001313207 0)
(23.30544 -0.001283149 0)
(23.30568 -0.001251167 0)
(23.30592 -0.001217202 0)
(23.30614 -0.001181195 0)
(23.30636 -0.001143098 0)
(23.30658 -0.001102868 0)
(23.30678 -0.00106047 0)
(23.30698 -0.00101588 0)
(23.30717 -0.0009690852 0)
(23.30735 -0.0009200852 0)
(23.30752 -0.0008688945 0)
(23.30769 -0.0008155425 0)
(23.30784 -0.0007600756 0)
(23.30798 -0.0007025578 0)
(23.30811 -0.0006430714 0)
(23.30824 -0.0005817175 0)
(23.30834 -0.0005186164 0)
(23.30844 -0.000453907 0)
(23.30853 -0.0003877463 0)
(23.3086 -0.0003203085 0)
(23.30866 -0.0002517822 0)
(23.30871 -0.0001823728 0)
(23.30874 -0.0001122798 0)
(23.30877 -4.1795e-05 0)
(33.71759 -0.000304659 0)
(25.50607 -0.0004204919 0)
(22.18707 -0.0004753782 0)
(23.06681 -0.0005343661 0)
(23.40325 -0.0005925926 0)
(23.30918 -0.0006478754 0)
(23.27521 -0.0007030714 0)
(23.28536 -0.0007596675 0)
(23.28891 -0.0008173947 0)
(23.28797 -0.0008756113 0)
(23.28776 -0.0009337771 0)
(23.28802 -0.0009914032 0)
(23.28822 -0.001048047 0)
(23.28838 -0.001103345 0)
(23.28856 -0.001157018 0)
(23.28875 -0.001208856 0)
(23.28895 -0.001258707 0)
(23.28915 -0.00130647 0)
(23.28936 -0.001352082 0)
(23.28958 -0.001395513 0)
(23.28981 -0.001436758 0)
(23.29004 -0.001475835 0)
(23.29028 -0.001512774 0)
(23.29052 -0.00154762 0)
(23.29077 -0.001580429 0)
(23.29102 -0.00161126 0)
(23.29128 -0.001640181 0)
(23.29154 -0.001667262 0)
(23.29181 -0.001692574 0)
(23.29208 -0.001716189 0)
(23.29235 -0.00173818 0)
(23.29263 -0.001758618 0)
(23.2929 -0.001777572 0)
(23.29319 -0.00179511 0)
(23.29347 -0.001811295 0)
(23.29375 -0.00182619 0)
(23.29404 -0.001839851 0)
(23.29433 -0.001852334 0)
(23.29462 -0.001863688 0)
(23.29492 -0.001873961 0)
(23.29521 -0.001883195 0)
(23.29551 -0.001891428 0)
(23.2958 -0.001898696 0)
(23.2961 -0.001905027 0)
(23.2964 -0.001910449 0)
(23.2967 -0.001914984 0)
(23.297 -0.001918648 0)
(23.2973 -0.001921456 0)
(23.2976 -0.001923418 0)
(23.2979 -0.001924538 0)
(23.2982 -0.001924817 0)
(23.2985 -0.001924253 0)
(23.29881 -0.001922838 0)
(23.29911 -0.00192056 0)
(23.29941 -0.001917405 0)
(23.29971 -0.001913351 0)
(23.3 -0.001908375 0)
(23.3003 -0.001902449 0)
(23.3006 -0.001895539 0)
(23.3009 -0.001887609 0)
(23.30119 -0.001878617 0)
(23.30148 -0.001868517 0)
(23.30178 -0.001857261 0)
(23.30207 -0.001844793 0)
(23.30236 -0.001831056 0)
(23.30264 -0.001815988 0)
(23.30293 -0.001799523 0)
(23.30321 -0.001781591 0)
(23.30349 -0.00176212 0)
(23.30376 -0.001741033 0)
(23.30403 -0.001718252 0)
(23.3043 -0.001693696 0)
(23.30457 -0.001667283 0)
(23.30483 -0.001638929 0)
(23.30508 -0.00160855 0)
(23.30534 -0.001576064 0)
(23.30558 -0.001541389 0)
(23.30582 -0.001504447 0)
(23.30606 -0.001465163 0)
(23.30629 -0.001423466 0)
(23.30651 -0.001379296 0)
(23.30673 -0.001332598 0)
(23.30694 -0.001283328 0)
(23.30714 -0.001231453 0)
(23.30733 -0.001176955 0)
(23.30751 -0.00111983 0)
(23.30769 -0.001060091 0)
(23.30785 -0.000997772 0)
(23.30801 -0.0009329239 0)
(23.30815 -0.0008656205 0)
(23.30829 -0.0007959576 0)
(23.30841 -0.0007240541 0)
(23.30852 -0.0006500519 0)
(23.30862 -0.0005741158 0)
(23.30871 -0.0004964324 0)
(23.30878 -0.0004172095 0)
(23.30884 -0.0003366721 0)
(23.30889 -0.0002550661 0)
(23.30892 -0.0001726303 0)
(23.30895 -8.971669e-05 0)
(33.71747 -0.0002652796 0)
(25.50604 -0.0004133956 0)
(22.18706 -0.000504687 0)
(23.0668 -0.0005927158 0)
(23.40325 -0.0006769181 0)
(23.30919 -0.0007550172 0)
(23.27522 -0.000828899 0)
(23.28537 -0.0009005011 0)
(23.28893 -0.0009705292 0)
(23.28798 -0.001039102 0)
(23.28778 -0.001106223 0)
(23.28805 -0.001171817 0)
(23.28824 -0.001235737 0)
(23.2884 -0.001297815 0)
(23.28858 -0.001357894 0)
(23.28878 -0.001415838 0)
(23.28898 -0.001471538 0)
(23.28918 -0.001524915 0)
(23.2894 -0.001575916 0)
(23.28962 -0.001624512 0)
(23.28985 -0.001670701 0)
(23.29008 -0.001714494 0)
(23.29032 -0.001755924 0)
(23.29057 -0.001795034 0)
(23.29082 -0.001831879 0)
(23.29107 -0.001866521 0)
(23.29133 -0.00189903 0)
(23.2916 -0.001929479 0)
(23.29186 -0.001957943 0)
(23.29214 -0.001984502 0)
(23.29241 -0.002009232 0)
(23.29269 -0.00203221 0)
(23.29297 -0.002053513 0)
(23.29325 -0.002073212 0)
(23.29353 -0.002091378 0)
(23.29382 -0.002108079 0)
(23.29411 -0.002123379 0)
(23.2944 -0.002137335 0)
(23.29469 -0.002150006 0)
(23.29499 -0.00216144 0)
(23.29528 -0.002171687 0)
(23.29558 -0.002180787 0)
(23.29588 -0.002188779 0)
(23.29618 -0.002195695 0)
(23.29648 -0.002201565 0)
(23.29678 -0.002206413 0)
(23.29708 -0.002210257 0)
(23.29738 -0.002213113 0)
(23.29768 -0.00221499 0)
(23.29798 -0.002215893 0)
(23.29828 -0.002215824 0)
(23.29859 -0.002214777 0)
(23.29889 -0.002212744 0)
(23.29919 -0.002209711 0)
(23.29949 -0.002205659 0)
(23.29979 -0.002200566 0)
(23.30009 -0.002194403 0)
(23.30039 -0.002187138 0)
(23.30069 -0.002178732 0)
(23.30098 -0.002169142 0)
(23.30128 -0.002158321 0)
(23.30157 -0.002146216 0)
(23.30187 -0.00213277 0)
(23.30216 -0.002117919 0)
(23.30245 -0.002101598 0)
(23.30274 -0.002083733 0)
(23.30302 -0.002064249 0)
(23.3033 -0.002043065 0)
(23.30358 -0.002020096 0)
(23.30386 -0.001995254 0)
(23.30414 -0.001968447 0)
(23.30441 -0.00193958 0)
(23.30467 -0.001908557 0)
(23.30494 -0.001875279 0)
(23.3052 -0.001839649 0)
(23.30545 -0.001801568 0)
(23.3057 -0.00176094 0)
(23.30594 -0.001717671 0)
(23.30618 -0.001671671 0)
(23.30641 -0.001622857 0)
(23.30664 -0.001571154 0)
(23.30686 -0.001516494 0)
(23.30707 -0.001458823 0)
(23.30727 -0.0013981 0)
(23.30747 -0.001334299 0)
(23.30765 -0.001267411 0)
(23.30783 -0.001197449 0)
(23.308 -0.001124447 0)
(23.30816 -0.001048463 0)
(23.3083 -0.0009695781 0)
(23.30844 -0.0008879031 0)
(23.30856 -0.0008035745 0)
(23.30868 -0.000716757 0)
(23.30878 -0.0006276425 0)
(23.30887 -0.00053645 0)
(23.30894 -0.0004434235 0)
(23.309 -0.000348829 0)
(23.30905 -0.0002529579 0)
(23.30909 -0.0001560949 0)
(23.30911 -5.866089e-05 0)
(33.71737 -0.0002408823 0)
(25.506 -0.0004024165 0)
(22.18705 -0.0005088685 0)
(23.06679 -0.0006098014 0)
(23.40325 -0.0007081463 0)
(23.30919 -0.0008013023 0)
(23.27522 -0.0008902503 0)
(23.28538 -0.0009766336 0)
(23.28894 -0.001061093 0)
(23.28799 -0.001143667 0)
(23.28779 -0.001224273 0)
(23.28806 -0.001302781 0)
(23.28825 -0.001379009 0)
(23.28842 -0.001452771 0)
(23.2886 -0.001523902 0)
(23.28879 -0.001592268 0)
(23.289 -0.001657773 0)
(23.28921 -0.001720353 0)
(23.28942 -0.001779975 0)
(23.28965 -0.001836638 0)
(23.28988 -0.001890361 0)
(23.29011 -0.001941185 0)
(23.29036 -0.00198917 0)
(23.29061 -0.002034385 0)
(23.29086 -0.002076912 0)
(23.29112 -0.002116839 0)
(23.29138 -0.002154262 0)
(23.29164 -0.002189276 0)
(23.29191 -0.002221982 0)
(23.29219 -0.002252478 0)
(23.29246 -0.002280862 0)
(23.29274 -0.00230723 0)
(23.29302 -0.002331676 0)
(23.29331 -0.00235429 0)
(23.29359 -0.002375158 0)
(23.29388 -0.00239436 0)
(23.29417 -0.002411975 0)
(23.29446 -0.002428073 0)
(23.29476 -0.002442722 0)
(23.29505 -0.002455982 0)
(23.29535 -0.002467911 0)
(23.29565 -0.002478557 0)
(23.29595 -0.002487968 0)
(23.29625 -0.002496181 0)
(23.29655 -0.002503232 0)
(23.29685 -0.002509148 0)
(23.29715 -0.002513954 0)
(23.29745 -0.002517666 0)
(23.29776 -0.002520297 0)
(23.29806 -0.002521854 0)
(23.29836 -0.002522338 0)
(23.29867 -0.002521745 0)
(23.29897 -0.002520065 0)
(23.29927 -0.002517283 0)
(23.29957 -0.00251338 0)
(23.29987 -0.002508327 0)
(23.30018 -0.002502095 0)
(23.30048 -0.002494645 0)
(23.30078 -0.002485935 0)
(23.30107 -0.002475916 0)
(23.30137 -0.002464534 0)
(23.30167 -0.002451728 0)
(23.30196 -0.002437434 0)
(23.30226 -0.00242158 0)
(23.30255 -0.002404088 0)
(23.30284 -0.002384878 0)
(23.30312 -0.00236386 0)
(23.30341 -0.002340943 0)
(23.30369 -0.002316029 0)
(23.30397 -0.002289016 0)
(23.30425 -0.002259797 0)
(23.30452 -0.002228264 0)
(23.30479 -0.002194304 0)
(23.30505 -0.002157803 0)
(23.30531 -0.002118645 0)
(23.30557 -0.002076717 0)
(23.30582 -0.002031903 0)
(23.30607 -0.001984094 0)
(23.30631 -0.001933182 0)
(23.30655 -0.001879068 0)
(23.30678 -0.001821659 0)
(23.307 -0.001760875 0)
(23.30721 -0.001696647 0)
(23.30742 -0.001628922 0)
(23.30762 -0.001557663 0)
(23.30781 -0.001482857 0)
(23.30799 -0.00140451 0)
(23.30816 -0.001322656 0)
(23.30832 -0.001237355 0)
(23.30847 -0.001148698 0)
(23.30861 -0.001056806 0)
(23.30874 -0.0009618328 0)
(23.30885 -0.000863966 0)
(23.30896 -0.0007634248 0)
(23.30905 -0.0006604608 0)
(23.30912 -0.0005553561 0)
(23.30919 -0.000448419 0)
(23.30924 -0.0003399888 0)
(23.30927 -0.0002303973 0)
(23.3093 -0.0001201363 0)
(33.71727 -0.0002377024 0)
(25.50593 -0.000417119 0)
(22.187 -0.0005418728 0)
(23.06675 -0.0006611614 0)
(23.40321 -0.0007791367 0)
(23.30916 -0.0008917554 0)
(23.27519 -0.000998945 0)
(23.28535 -0.00110203 0)
(23.28892 -0.001201618 0)
(23.28798 -0.001297822 0)
(23.28777 -0.001390693 0)
(23.28804 -0.00148026 0)
(23.28825 -0.001566502 0)
(23.28841 -0.001649373 0)
(23.2886 -0.001728832 0)
(23.2888 -0.001804846 0)
(23.289 -0.001877401 0)
(23.28922 -0.001946499 0)
(23.28944 -0.002012163 0)
(23.28966 -0.002074433 0)
(23.2899 -0.002133366 0)
(23.29014 -0.002189033 0)
(23.29038 -0.002241518 0)
(23.29063 -0.002290913 0)
(23.29089 -0.002337319 0)
(23.29115 -0.002380843 0)
(23.29141 -0.002421592 0)
(23.29168 -0.002459679 0)
(23.29195 -0.002495215 0)
(23.29223 -0.002528312 0)
(23.29251 -0.002559079 0)
(23.29279 -0.002587622 0)
(23.29307 -0.002614044 0)
(23.29336 -0.002638444 0)
(23.29365 -0.002660915 0)
(23.29394 -0.002681548 0)
(23.29423 -0.002700425 0)
(23.29452 -0.002717626 0)
(23.29482 -0.002733222 0)
(23.29512 -0.00274728 0)
(23.29541 -0.002759861 0)
(23.29571 -0.00277102 0)
(23.29601 -0.002780806 0)
(23.29631 -0.002789261 0)
(23.29662 -0.002796422 0)
(23.29692 -0.002802321 0)
(23.29722 -0.002806981 0)
(23.29752 -0.002810421 0)
(23.29783 -0.002812656 0)
(23.29813 -0.002813691 0)
(23.29844 -0.002813528 0)
(23.29874 -0.002812162 0)
(23.29904 -0.002809581 0)
(23.29935 -0.002805769 0)
(23.29965 -0.002800703 0)
(23.29995 -0.002794354 0)
(23.30025 -0.002786686 0)
(23.30056 -0.002777658 0)
(23.30086 -0.002767222 0)
(23.30116 -0.002755324 0)
(23.30146 -0.002741904 0)
(23.30175 -0.002726895 0)
(23.30205 -0.002710223 0)
(23.30234 -0.002691809 0)
(23.30264 -0.002671567 0)
(23.30293 -0.002649405 0)
(23.30322 -0.002625225 0)
(23.3035 -0.002598921 0)
(23.30379 -0.002570385 0)
(23.30407 -0.002539502 0)
(23.30435 -0.00250615 0)
(23.30462 -0.002470207 0)
(23.30489 -0.002431544 0)
(23.30516 -0.00239003 0)
(23.30543 -0.002345535 0)
(23.30569 -0.002297925 0)
(23.30594 -0.002247069 0)
(23.30619 -0.002192839 0)
(23.30643 -0.002135109 0)
(23.30667 -0.002073763 0)
(23.30691 -0.00200869 0)
(23.30713 -0.001939794 0)
(23.30735 -0.00186699 0)
(23.30756 -0.001790211 0)
(23.30776 -0.001709411 0)
(23.30796 -0.001624566 0)
(23.30814 -0.001535677 0)
(23.30831 -0.001442774 0)
(23.30848 -0.001345922 0)
(23.30863 -0.001245216 0)
(23.30878 -0.00114079 0)
(23.30891 -0.001032814 0)
(23.30902 -0.0009214997 0)
(23.30913 -0.0008070949 0)
(23.30922 -0.0006898865 0)
(23.3093 -0.0005701977 0)
(23.30937 -0.0004483833 0)
(23.30942 -0.0003248355 0)
(23.30946 -0.0001999386 0)
(23.30948 -7.426371e-05 0)
(33.71716 -0.0002411486 0)
(25.50586 -0.0004350606 0)
(22.18695 -0.0005726378 0)
(23.06671 -0.0007045514 0)
(23.40317 -0.0008362263 0)
(23.30912 -0.0009627335 0)
(23.27517 -0.001083482 0)
(23.28533 -0.001199708 0)
(23.28889 -0.001311988 0)
(23.28796 -0.001420407 0)
(23.28776 -0.001525003 0)
(23.28803 -0.001625804 0)
(23.28824 -0.001722787 0)
(23.28841 -0.001815905 0)
(23.2886 -0.001905116 0)
(23.2888 -0.00199039 0)
(23.28901 -0.002071717 0)
(23.28922 -0.002149107 0)
(23.28945 -0.002222592 0)
(23.28968 -0.002292226 0)
(23.28992 -0.00235808 0)
(23.29016 -0.002420244 0)
(23.29041 -0.002478819 0)
(23.29066 -0.002533917 0)
(23.29092 -0.002585659 0)
(23.29118 -0.002634172 0)
(23.29145 -0.002679585 0)
(23.29172 -0.002722031 0)
(23.292 -0.002761639 0)
(23.29227 -0.002798541 0)
(23.29255 -0.002832864 0)
(23.29284 -0.002864732 0)
(23.29312 -0.002894262 0)
(23.29341 -0.00292157 0)
(23.2937 -0.002946765 0)
(23.29399 -0.002969947 0)
(23.29429 -0.002991214 0)
(23.29458 -0.003010655 0)
(23.29488 -0.003028352 0)
(23.29518 -0.003044382 0)
(23.29548 -0.003058813 0)
(23.29578 -0.003071709 0)
(23.29608 -0.003083123 0)
(23.29638 -0.003093105 0)
(23.29669 -0.003101696 0)
(23.29699 -0.003108932 0)
(23.29729 -0.00311484 0)
(23.2976 -0.003119441 0)
(23.2979 -0.003122751 0)
(23.29821 -0.003124778 0)
(23.29851 -0.003125522 0)
(23.29882 -0.003124978 0)
(23.29912 -0.003123135 0)
(23.29943 -0.003119973 0)
(23.29973 -0.003115468 0)
(23.30004 -0.003109586 0)
(23.30034 -0.003102288 0)
(23.30065 -0.003093529 0)
(23.30095 -0.003083255 0)
(23.30125 -0.003071407 0)
(23.30155 -0.003057915 0)
(23.30185 -0.003042707 0)
(23.30215 -0.003025701 0)
(23.30244 -0.003006807 0)
(23.30274 -0.002985929 0)
(23.30303 -0.002962964 0)
(23.30332 -0.002937802 0)
(23.30361 -0.002910326 0)
(23.3039 -0.002880412 0)
(23.30418 -0.00284793 0)
(23.30446 -0.002812744 0)
(23.30474 -0.002774714 0)
(23.30502 -0.002733694 0)
(23.30529 -0.002689536 0)
(23.30556 -0.002642088 0)
(23.30582 -0.002591198 0)
(23.30608 -0.002536715 0)
(23.30633 -0.002478488 0)
(23.30658 -0.002416373 0)
(23.30682 -0.00235023 0)
(23.30706 -0.00227993 0)
(23.30729 -0.002205355 0)
(23.30751 -0.002126401 0)
(23.30772 -0.002042986 0)
(23.30793 -0.001955045 0)
(23.30813 -0.001862543 0)
(23.30832 -0.001765471 0)
(23.3085 -0.001663855 0)
(23.30867 -0.001557756 0)
(23.30882 -0.001447274 0)
(23.30897 -0.001332552 0)
(23.3091 -0.001213778 0)
(23.30923 -0.001091184 0)
(23.30934 -0.0009650469 0)
(23.30943 -0.0008356911 0)
(23.30951 -0.0007034829 0)
(23.30958 -0.0005688267 0)
(23.30963 -0.0004321717 0)
(23.30967 -0.0002939595 0)
(23.3097 -0.0001548468 0)
(33.71705 -0.0002524277 0)
(25.50577 -0.0004632294 0)
(22.18689 -0.0006151868 0)
(23.06665 -0.0007619608 0)
(23.40311 -0.0009098543 0)
(23.30907 -0.001052881 0)
(23.27512 -0.001189815 0)
(23.28528 -0.001321644 0)
(23.28885 -0.001448763 0)