/*--------------------------------*- C++ -*----------------------------------*\
| =========                 |                                                 |
| \\      /  F ield         | OpenFOAM: The Open Source CFD Toolbox           |
|  \\    /   O peration     | Version:  2.3.0                                 |
|   \\  /    A nd           | Web:      www.OpenFOAM.org                      |
|    \\/     M anipulation  |                                                 |
\*---------------------------------------------------------------------------*/
FoamFile
{
    version     2.0;
    format      ascii;
    class       surfaceScalarField;
    location    "9800/topAir";
    object      phi;
}
// * * * * * * * * * * * * * * * * * * * * * * * * * * * * * * * * * * * * * //

dimensions      [1 0 -1 0 0 0 0];

internalField   nonuniform List<scalar> 
7860
(
0.009442716
4.801594e-06
0.009438485
4.232452e-06
0.009435113
3.374709e-06
0.009431658
3.456914e-06
0.00942806
3.600087e-06
0.009424417
3.643239e-06
0.009420746
3.67188e-06
0.009417042
3.703905e-06
0.009413311
3.731019e-06
0.009409559
3.752426e-06
0.009405789
3.770014e-06
0.009402004
3.784698e-06
0.009398207
3.796943e-06
0.009394399
3.807189e-06
0.009390583
3.815804e-06
0.00938676
3.823074e-06
0.00938293
3.829222e-06
0.009379096
3.834426e-06
0.009375257
3.838831e-06
0.009371414
3.842554e-06
0.009367568
3.845691e-06
0.00936372
3.848321e-06
0.009359869
3.850511e-06
0.009356016
3.852315e-06
0.009352162
3.853781e-06
0.009348307
3.854948e-06
0.009344451
3.85585e-06
0.009340595
3.856515e-06
0.009336737
3.856969e-06
0.00933288
3.857234e-06
0.009329023
3.857328e-06
0.009325165
3.857268e-06
0.009321308
3.857068e-06
0.009317451
3.856741e-06
0.009313595
3.856298e-06
0.009309739
3.855748e-06
0.009305884
3.855101e-06
0.009302029
3.854363e-06
0.009298176
3.853541e-06
0.009294323
3.852641e-06
0.009290471
3.851669e-06
0.00928662
3.850627e-06
0.009282771
3.849521e-06
0.009278922
3.848353e-06
0.009275075
3.847126e-06
0.009271229
3.845842e-06
0.009267385
3.844504e-06
0.009263542
3.843111e-06
0.0092597
3.841666e-06
0.00925586
3.840169e-06
0.009252021
3.83862e-06
0.009248184
3.837019e-06
0.009244349
3.835364e-06
0.009240515
3.833656e-06
0.009236683
3.831892e-06
0.009232853
3.83007e-06
0.009229025
3.828189e-06
0.009225198
3.826245e-06
0.009221374
3.824235e-06
0.009217552
3.822155e-06
0.009213732
3.820001e-06
0.009209914
3.817767e-06
0.009206099
3.815447e-06
0.009202285
3.813035e-06
0.009198475
3.810522e-06
0.009194667
3.8079e-06
0.009190862
3.805159e-06
0.009187059
3.802288e-06
0.00918326
3.799273e-06
0.009179464
3.796101e-06
0.009175671
3.792753e-06
0.009171882
3.789211e-06
0.009168097
3.785452e-06
0.009164315
3.781451e-06
0.009160538
3.777178e-06
0.009156765
3.772599e-06
0.009152998
3.767672e-06
0.009149235
3.76235e-06
0.009145479
3.756576e-06
0.009141728
3.750283e-06
0.009137985
3.743387e-06
0.009134249
3.73579e-06
0.009130522
3.72737e-06
0.009126804
3.717973e-06
0.009123096
3.707409e-06
0.009119401
3.695433e-06
0.009115719
3.681726e-06
0.009112053
3.665867e-06
0.009108406
3.647285e-06
0.009104781
3.625186e-06
0.009101182
3.598427e-06
0.009097617
3.565306e-06
0.009094094
3.523166e-06
0.009090626
3.467639e-06
0.009087235
3.391206e-06
0.009083955
3.279679e-06
0.009080848
3.107072e-06
0.009078037
2.811379e-06
0.009075735
2.301112e-06
1.159505e-06
0.009452588
6.63719e-07
0.00945414
2.68234e-06
0.009454624
2.893187e-06
0.009455125
2.958157e-06
0.009455589
3.138195e-06
0.009455966
3.267195e-06
0.009456285
3.353543e-06
0.009456564
3.424292e-06
0.009456813
3.482778e-06
0.009457035
3.53024e-06
0.009457235
3.569442e-06
0.009457417
3.602407e-06
0.009457584
3.630415e-06
0.009457736
3.654426e-06
0.009457876
3.675197e-06
0.009458006
3.693306e-06
0.009458126
3.709205e-06
0.009458237
3.723248e-06
0.00945834
3.735721e-06
0.009458435
3.746854e-06
0.009458524
3.756835e-06
0.009458606
3.76582e-06
0.009458682
3.773937e-06
0.009458753
3.781295e-06
0.009458819
3.787985e-06
0.009458879
3.794083e-06
0.009458936
3.799657e-06
0.009458987
3.804764e-06
0.009459035
3.809451e-06
0.009459078
3.813763e-06
0.009459117
3.817735e-06
0.009459153
3.821399e-06
0.009459185
3.824785e-06
0.009459214
3.827917e-06
0.009459239
3.830816e-06
0.009459261
3.833501e-06
0.00945928
3.83599e-06
0.009459296
3.838297e-06
0.009459309
3.840435e-06
0.00945932
3.842415e-06
0.009459327
3.844247e-06
0.009459332
3.84594e-06
0.009459333
3.847501e-06
0.009459333
3.848937e-06
0.00945933
3.850253e-06
0.009459324
3.851453e-06
0.009459316
3.85254e-06
0.009459305
3.853518e-06
0.009459293
3.854388e-06
0.009459278
3.855151e-06
0.00945926
3.855807e-06
0.009459241
3.856356e-06
0.009459219
3.856797e-06
0.009459196
3.857126e-06
0.00945917
3.857342e-06
0.009459143
3.85744e-06
0.009459114
3.857416e-06
0.009459083
3.857264e-06
0.00945905
3.856977e-06
0.009459016
3.856547e-06
0.00945898
3.855965e-06
0.009458942
3.855221e-06
0.009458903
3.854303e-06
0.009458863
3.853198e-06
0.009458822
3.851889e-06
0.009458779
3.850359e-06
0.009458736
3.848589e-06
0.009458691
3.846555e-06
0.009458646
3.844233e-06
0.009458601
3.841592e-06
0.009458555
3.838599e-06
0.009458509
3.835216e-06
0.009458463
3.831398e-06
0.009458417
3.827096e-06
0.009458372
3.822249e-06
0.009458328
3.816789e-06
0.009458285
3.810636e-06
0.009458244
3.803696e-06
0.009458204
3.795856e-06
0.009458168
3.786982e-06
0.009458134
3.776915e-06
0.009458104
3.765458e-06
0.009458079
3.752373e-06
0.00945806
3.737364e-06
0.009458047
3.72006e-06
0.009458043
3.69999e-06
0.009458048
3.676545e-06
0.009458065
3.64893e-06
0.009458096
3.616079e-06
0.009458144
3.576542e-06
0.009458215
3.528294e-06
0.009458311
3.468433e-06
0.009458442
3.392702e-06
0.009458615
3.294649e-06
0.009458842
3.164281e-06
0.009459136
2.985468e-06
0.009459511
2.732525e-06
0.009459962
2.359511e-06
0.009460461
1.802245e-06
8.967113e-07
0.009449712
9.68132e-07
0.009450523
1.873433e-06
0.009451142
2.276525e-06
0.009451604
2.498104e-06
0.009452018
2.726436e-06
0.009452382
2.904232e-06
0.009452704
3.031365e-06
0.009452997
3.131857e-06
0.009453265
3.21434e-06
0.009453513
3.282025e-06
0.009453744
3.338247e-06
0.009453961
3.385664e-06
0.009454165
3.42608e-06
0.009454358
3.460827e-06
0.009454543
3.490939e-06
0.009454718
3.517222e-06
0.009454887
3.540305e-06
0.009455049
3.560692e-06
0.009455206
3.578787e-06
0.009455358
3.594921e-06
0.009455505
3.609363e-06
0.009455648
3.622339e-06
0.009455788
3.634037e-06
0.009455924
3.644613e-06
0.009456058
3.654201e-06
0.009456189
3.662916e-06
0.009456318
3.670855e-06
0.009456444
3.6781e-06
0.009456569
3.684726e-06
0.009456692
3.690795e-06
0.009456813
3.696361e-06
0.009456933
3.701473e-06
0.009457051
3.706172e-06
0.009457168
3.710495e-06
0.009457285
3.714475e-06
0.0094574
3.718139e-06
0.009457514
3.721513e-06
0.009457628
3.724619e-06
0.009457741
3.727476e-06
0.009457853
3.730101e-06
0.009457965
3.732509e-06
0.009458076
3.734713e-06
0.009458187
3.736724e-06
0.009458297
3.738552e-06
0.009458407
3.740203e-06
0.009458517
3.741686e-06
0.009458626
3.743005e-06
0.009458735
3.744164e-06
0.009458844
3.745166e-06
0.009458954
3.746012e-06
0.009459063
3.746703e-06
0.009459172
3.747239e-06
0.009459281
3.747617e-06
0.00945939
3.747834e-06
0.009459499
3.747886e-06
0.009459609
3.747767e-06
0.009459719
3.747471e-06
0.009459829
3.746989e-06
0.00945994
3.746311e-06
0.009460051
3.745425e-06
0.009460163
3.74432e-06
0.009460275
3.742978e-06
0.009460388
3.741383e-06
0.009460501
3.739515e-06
0.009460616
3.737352e-06
0.009460731
3.734867e-06
0.009460848
3.732032e-06
0.009460966
3.728814e-06
0.009461085
3.725175e-06
0.009461205
3.721072e-06
0.009461327
3.716458e-06
0.009461451
3.711275e-06
0.009461577
3.705461e-06
0.009461705
3.698942e-06
0.009461836
3.691631e-06
0.009461969
3.683432e-06
0.009462105
3.674227e-06
0.009462245
3.663882e-06
0.009462389
3.652235e-06
0.009462537
3.639097e-06
0.009462689
3.62424e-06
0.009462847
3.607387e-06
0.009463011
3.588203e-06
0.009463183
3.566274e-06
0.009463362
3.541087e-06
0.009463549
3.511995e-06
0.009463748
3.478174e-06
0.009463958
3.438561e-06
0.009464182
3.391759e-06
0.009464423
3.335907e-06
0.009464683
3.268484e-06
0.009464965
3.186007e-06
0.009465274
3.083595e-06
0.009465615
2.954282e-06
0.009465991
2.788053e-06
0.009466406
2.570364e-06
0.009466858
2.280645e-06
0.009467327
1.889987e-06
0.009467765
1.364842e-06
6.759248e-07
0.00945077
6.259825e-07
0.009451181
1.464177e-06
0.00945154
1.92017e-06
0.009451861
2.179201e-06
0.009452178
2.411506e-06
0.009452479
2.604093e-06
0.009452758
2.752398e-06
0.009453018
2.871943e-06
0.009453262
2.971301e-06
0.009453489
3.054215e-06
0.009453703
3.123946e-06
0.009453906
3.183232e-06
0.009454097
3.23408e-06
0.00945428
3.278007e-06
0.009454455
3.316213e-06
0.009454622
3.349646e-06
0.009454783
3.379064e-06
0.009454938
3.405078e-06
0.009455089
3.428184e-06
0.009455235
3.448792e-06
0.009455376
3.467238e-06
0.009455515
3.483804e-06
0.00945565
3.498727e-06
0.009455782
3.512205e-06
0.009455912
3.524409e-06
0.009456039
3.535484e-06
0.009456164
3.545554e-06
0.009456287
3.554726e-06
0.009456409
3.563094e-06
0.009456529
3.570738e-06
0.009456647
3.577729e-06
0.009456764
3.584128e-06
0.00945688
3.589991e-06
0.009456996
3.595364e-06
0.00945711
3.600289e-06
0.009457223
3.604803e-06
0.009457335
3.608939e-06
0.009457447
3.612725e-06
0.009457558
3.616187e-06
0.009457669
3.619345e-06
0.009457779
3.622221e-06
0.009457889
3.62483e-06
0.009457998
3.627187e-06
0.009458108
3.629304e-06
0.009458217
3.631192e-06
0.009458325
3.63286e-06
0.009458434
3.634313e-06
0.009458543
3.635558e-06
0.009458651
3.636597e-06
0.00945876
3.637434e-06
0.009458868
3.638068e-06
0.009458977
3.638498e-06
0.009459086
3.638722e-06
0.009459195
3.638737e-06
0.009459304
3.638536e-06
0.009459414
3.638111e-06
0.009459524
3.637455e-06
0.009459634
3.636556e-06
0.009459745
3.635402e-06
0.009459856
3.633976e-06
0.009459968
3.632262e-06
0.009460081
3.630241e-06
0.009460194
3.627889e-06
0.009460309
3.62518e-06
0.009460424
3.622086e-06
0.00946054
3.618573e-06
0.009460658
3.614603e-06
0.009460776
3.610133e-06
0.009460896
3.605116e-06
0.009461018
3.599495e-06
0.009461141
3.593208e-06
0.009461266
3.586184e-06
0.009461393
3.578339e-06
0.009461523
3.56958e-06
0.009461654
3.559797e-06
0.009461789
3.548864e-06
0.009461927
3.536634e-06
0.009462067
3.522934e-06
0.009462212
3.507563e-06
0.009462361
3.49028e-06
0.009462514
3.4708e-06
0.009462673
3.44878e-06
0.009462837
3.423806e-06
0.009463008
3.39537e-06
0.009463186
3.362851e-06
0.009463373
3.325475e-06
0.009463569
3.282268e-06
0.009463775
3.231998e-06
0.009463994
3.173083e-06
0.009464226
3.103469e-06
0.009464474
3.020467e-06
0.00946474
2.920518e-06
0.009465025
2.798886e-06
0.00946533
2.649246e-06
0.009465654
2.463198e-06
0.009465995
2.229759e-06
0.00946634
1.935128e-06
0.009466667
1.563421e-06
0.009466933
1.098907e-06
5.415463e-07
0.009450632
6.612587e-07
0.009450865
1.233313e-06
0.00945118
1.606965e-06
0.009451486
1.876414e-06
0.009451782
2.11648e-06
0.009452067
2.320659e-06
0.009452334
2.485329e-06
0.009452585
2.620922e-06
0.009452822
2.734906e-06
0.009453045
2.83118e-06
0.009453255
2.91296e-06
0.009453455
2.983002e-06
0.009453646
3.043431e-06
0.009453828
3.095894e-06
0.009454002
3.141707e-06
0.00945417
3.181928e-06
0.009454331
3.217413e-06
0.009454487
3.248857e-06
0.009454638
3.276833e-06
0.009454785
3.301815e-06
0.009454928
3.324196e-06
0.009455067
3.344307e-06
0.009455203
3.362428e-06
0.009455336
3.378795e-06
0.009455467
3.393612e-06
0.009455595
3.407051e-06
0.009455721
3.419262e-06
0.009455845
3.430374e-06
0.009455968
3.440501e-06
0.009456089
3.449739e-06
0.009456208
3.458176e-06
0.009456326
3.465885e-06
0.009456443
3.472933e-06
0.009456559
3.479378e-06
0.009456674
3.485272e-06
0.009456788
3.490658e-06
0.009456901
3.495579e-06
0.009457014
3.500067e-06
0.009457126
3.504155e-06
0.009457237
3.507869e-06
0.009457348
3.511233e-06
0.009457459
3.514269e-06
0.009457569
3.516993e-06
0.009457679
3.51942e-06
0.009457788
3.521565e-06
0.009457897
3.523437e-06
0.009458007
3.525046e-06
0.009458116
3.526396e-06
0.009458225
3.527494e-06
0.009458334
3.528341e-06
0.009458443
3.528938e-06
0.009458552
3.529285e-06
0.009458661
3.529377e-06
0.009458771
3.529211e-06
0.009458881
3.52878e-06
0.009458991
3.528074e-06
0.009459101
3.527083e-06
0.009459212
3.525793e-06
0.009459323
3.524189e-06
0.009459434
3.522252e-06
0.009459547
3.519962e-06
0.00945966
3.517294e-06
0.009459773
3.514221e-06
0.009459888
3.51071e-06
0.009460003
3.506728e-06
0.009460119
3.502232e-06
0.009460237
3.497178e-06
0.009460355
3.491514e-06
0.009460475
3.485181e-06
0.009460597
3.478112e-06
0.00946072
3.470232e-06
0.009460844
3.461455e-06
0.009460971
3.451681e-06
0.0094611
3.440798e-06
0.009461231
3.428676e-06
0.009461364
3.415163e-06
0.009461501
3.400087e-06
0.009461641
3.383244e-06
0.009461784
3.364397e-06
0.009461931
3.343265e-06
0.009462082
3.319518e-06
0.009462238
3.29276e-06
0.009462399
3.262519e-06
0.009462566
3.228223e-06
0.00946274
3.189175e-06
0.009462921
3.144524e-06
0.00946311
3.093215e-06
0.009463308
3.033939e-06
0.009463516
2.965053e-06
0.009463735
2.884483e-06
0.009463966
2.789604e-06
0.009464209
2.677077e-06
0.009464465
2.542669e-06
0.009464734
2.381057e-06
0.009465011
2.185668e-06
0.009465292
1.9487e-06
0.009465566
1.66149e-06
0.009465813
1.316176e-06
0.009466005
9.07184e-07
4.448605e-07
0.009451081
4.870029e-07
0.009451293
1.023235e-06
0.009451525
1.377412e-06
0.00945176
1.643544e-06
0.009451996
1.882511e-06
0.009452228
2.088829e-06
0.009452454
2.259992e-06
0.009452672
2.403754e-06
0.00945288
2.526237e-06
0.00945308
2.631007e-06
0.009453272
2.721009e-06
0.009453456
2.798801e-06
0.009453633
2.866425e-06
0.009453803
2.92551e-06
0.009453967
2.977379e-06
0.009454126
3.023117e-06
0.009454279
3.063616e-06
0.009454428
3.099611e-06
0.009454573
3.131714e-06
0.009454714
3.160436e-06
0.009454852
3.186208e-06
0.009454987
3.209395e-06
0.009455119
3.230306e-06
0.009455248
3.249205e-06
0.009455375
3.266319e-06
0.0094555
3.281844e-06
0.009455623
3.295949e-06
0.009455745
3.308782e-06
0.009455865
3.320471e-06
0.009455983
3.331128e-06
0.0094561
3.340851e-06
0.009456216
3.349726e-06
0.009456331
3.357831e-06
0.009456445
3.365231e-06
0.009456559
3.371986e-06
0.009456671
3.378148e-06
0.009456783
3.383764e-06
0.009456894
3.388875e-06
0.009457004
3.393516e-06
0.009457114
3.397718e-06
0.009457224
3.401511e-06
0.009457333
3.404916e-06
0.009457442
3.407957e-06
0.009457551
3.410649e-06
0.00945766
3.413009e-06
0.009457768
3.415048e-06
0.009457876
3.416777e-06
0.009457984
3.418203e-06
0.009458092
3.419331e-06
0.0094582
3.420165e-06
0.009458309
3.420705e-06
0.009458417
3.420949e-06
0.009458525
3.420895e-06
0.009458634
3.420537e-06
0.009458743
3.419867e-06
0.009458852
3.418873e-06
0.009458962
3.417544e-06
0.009459071
3.415864e-06
0.009459182
3.413814e-06
0.009459293
3.411374e-06
0.009459404
3.408518e-06
0.009459516
3.405218e-06
0.009459629
3.401443e-06
0.009459742
3.397155e-06
0.009459857
3.392313e-06
0.009459972
3.38687e-06
0.009460088
3.380774e-06
0.009460206
3.373964e-06
0.009460325
3.366373e-06
0.009460445
3.357923e-06
0.009460567
3.348528e-06
0.00946069
3.338088e-06
0.009460815
3.32649e-06
0.009460942
3.313606e-06
0.009461072
3.299288e-06
0.009461203
3.283364e-06
0.009461338
3.26564e-06
0.009461475
3.245886e-06
0.009461616
3.223838e-06
0.00946176
3.199185e-06
0.009461908
3.171563e-06
0.00946206
3.140541e-06
0.009462217
3.105607e-06
0.009462379
3.06615e-06
0.009462546
3.021436e-06
0.00946272
2.970577e-06
0.009462901
2.9125e-06
0.009463089
2.845891e-06
0.009463285
2.769148e-06
0.009463489
2.680306e-06
0.009463702
2.576958e-06
0.009463923
2.456171e-06
0.009464151
2.314405e-06
0.009464384
2.147466e-06
0.00946462
1.950555e-06
0.00946485
1.71851e-06
0.009465065
1.446325e-06
0.00946525
1.13065e-06
0.009465387
7.704525e-07
3.761138e-07
0.009451114
4.788003e-07
0.009451235
9.045341e-07
0.009451409
1.205626e-06
0.0094516
1.454792e-06
0.009451801
1.68306e-06
0.009452007
1.883866e-06
0.009452212
2.055125e-06
0.009452414
2.202218e-06
0.009452611
2.329608e-06
0.009452802
2.440116e-06
0.009452986
2.536204e-06
0.009453165
2.620086e-06
0.009453337
2.69361e-06
0.009453504
2.758295e-06
0.009453666
2.815414e-06
0.009453823
2.86603e-06
0.009453975
2.911033e-06
0.009454123
2.951172e-06
0.009454268
2.987076e-06
0.009454409
3.019281e-06
0.009454547
3.048238e-06
0.009454681
3.074336e-06
0.009454814
3.097906e-06
0.009454943
3.119233e-06
0.009455071
3.138564e-06
0.009455196
3.156112e-06
0.00945532
3.172063e-06
0.009455442
3.18658e-06
0.009455563
3.199804e-06
0.009455682
3.21186e-06
0.0094558
3.222858e-06
0.009455916
3.232893e-06
0.009456032
3.242051e-06
0.009456147
3.250407e-06
0.009456261
3.258029e-06
0.009456374
3.264974e-06
0.009456486
3.271295e-06
0.009456598
3.277038e-06
0.009456709
3.282244e-06
0.00945682
3.286949e-06
0.00945693
3.291184e-06
0.00945704
3.294976e-06
0.009457149
3.298349e-06
0.009457259
3.301324e-06
0.009457368
3.303917e-06
0.009457477
3.306142e-06
0.009457585
3.308012e-06
0.009457694
3.309534e-06
0.009457802
3.310715e-06
0.009457911
3.311557e-06
0.00945802
3.312063e-06
0.009458128
3.312231e-06
0.009458237
3.312056e-06
0.009458346
3.311532e-06
0.009458455
3.310651e-06
0.009458565
3.3094e-06
0.009458674
3.307765e-06
0.009458784
3.305729e-06
0.009458895
3.30327e-06
0.009459006
3.300365e-06
0.009459117
3.296985e-06
0.009459229
3.293099e-06
0.009459342
3.28867e-06
0.009459456
3.283658e-06
0.00945957
3.278016e-06
0.009459685
3.27169e-06
0.009459801
3.264622e-06
0.009459918
3.256745e-06
0.009460037
3.247982e-06
0.009460156
3.238248e-06
0.009460277
3.227446e-06
0.0094604
3.215466e-06
0.009460524
3.202184e-06
0.00946065
3.187456e-06
0.009460779
3.171121e-06
0.009460909
3.152992e-06
0.009461042
3.132857e-06
0.009461177
3.110468e-06
0.009461315
3.08554e-06
0.009461457
3.057743e-06
0.009461602
3.026691e-06
0.00946175
2.991931e-06
0.009461903
2.952933e-06
0.00946206
2.90907e-06
0.009462222
2.859599e-06
0.009462389
2.803637e-06
0.009462561
2.740134e-06
0.009462739
2.667835e-06
0.009462923
2.585243e-06
0.009463113
2.490577e-06
0.009463308
2.381729e-06
0.009463508
2.256228e-06
0.009463711
2.111235e-06
0.009463915
1.943581e-06
0.009464115
1.749903e-06
0.009464307
1.52695e-06
0.009464481
1.272084e-06
0.009464627
9.844307e-07
0.009464733
6.651154e-07
3.233269e-07
0.009451352
3.981544e-07
0.009451471
7.883723e-07
0.009451617
1.061541e-06
0.009451781
1.293324e-06
0.009451955
1.510683e-06
0.009452134
1.705416e-06
0.009452315
1.874844e-06
0.009452495
2.022832e-06
0.009452671
2.152696e-06
0.009452845
2.26665e-06
0.009453014
2.366739e-06
0.009453179
2.454875e-06
0.00945334
2.5327e-06
0.009453496
2.60161e-06
0.009453649
2.662795e-06
0.009453797
2.717272e-06
0.009453942
2.765906e-06
0.009454084
2.809436e-06
0.009454222
2.848491e-06
0.009454357
2.883611e-06
0.00945449
2.915259e-06
0.009454621
2.943834e-06
0.009454749
2.969681e-06
0.009454874
2.993099e-06
0.009454999
3.014346e-06
0.009455121
3.033651e-06
0.009455242
3.051209e-06
0.009455361
3.067196e-06
0.009455479
3.081763e-06
0.009455595
3.095044e-06
0.009455711
3.107158e-06
0.009455825
3.11821e-06
0.009455939
3.128292e-06
0.009456052
3.137487e-06
0.009456164
3.145866e-06
0.009456275
3.153496e-06
0.009456386
3.160433e-06
0.009456496
3.166727e-06
0.009456606
3.172424e-06
0.009456715
3.177562e-06
0.009456824
3.182177e-06
0.009456933
3.186299e-06
0.009457041
3.189953e-06
0.009457149
3.193163e-06
0.009457257
3.195946e-06
0.009457365
3.19832e-06
0.009457473
3.200296e-06
0.00945758
3.201883e-06
0.009457688
3.203089e-06
0.009457795
3.203918e-06
0.009457903
3.20437e-06
0.009458011
3.204444e-06
0.009458119
3.204136e-06
0.009458227
3.203438e-06
0.009458335
3.20234e-06
0.009458443
3.200829e-06
0.009458552
3.19889e-06
0.009458661
3.196503e-06
0.009458771
3.193644e-06
0.009458881
3.190287e-06
0.009458992
3.186402e-06
0.009459103
3.181953e-06
0.009459214
3.176901e-06
0.009459327
3.171199e-06
0.00945944
3.164797e-06
0.009459554
3.157637e-06
0.009459669
3.149654e-06
0.009459785
3.140775e-06
0.009459902
3.130917e-06
0.00946002
3.119987e-06
0.00946014
3.10788e-06
0.009460261
3.094476e-06
0.009460383
3.079643e-06
0.009460507
3.063227e-06
0.009460634
3.045054e-06
0.009460762
3.024928e-06
0.009460892
3.002622e-06
0.009461024
2.977877e-06
0.009461159
2.950397e-06
0.009461297
2.919839e-06
0.009461438
2.885806e-06
0.009461582
2.847839e-06
0.00946173
2.805404e-06
0.009461881
2.757879e-06
0.009462036
2.704537e-06
0.009462195
2.644529e-06
0.009462358
2.576863e-06
0.009462526
2.500378e-06
0.009462697
2.413727e-06
0.009462872
2.315349e-06
0.009463051
2.203462e-06
0.009463231
2.076059e-06
0.009463411
1.930947e-06
0.009463589
1.765822e-06
0.00946376
1.578435e-06
0.00946392
1.36688e-06
0.009464062
1.129984e-06
0.009464179
8.681111e-07
0.009464261
5.831282e-07
2.823859e-07
0.009451445
3.740071e-07
0.009451526
7.092211e-07
0.00945164
9.505572e-07
0.00945177
1.164717e-06
0.009451914
1.368595e-06
0.009452067
1.553682e-06
0.009452225
1.71745e-06
0.009452385
1.862724e-06
0.009452546
1.991887e-06
0.009452706
2.106562e-06
0.009452864
2.20835e-06
0.00945302
2.298813e-06
0.009453173
2.37934e-06
0.009453323
2.451146e-06
0.009453471
2.515296e-06
0.009453615
2.57272e-06
0.009453756
2.624226e-06
0.009453895
2.670514e-06
0.009454031
2.712191e-06
0.009454165
2.749785e-06
0.009454296
2.783754e-06
0.009454425
2.814497e-06
0.009454552
2.842361e-06
0.009454677
2.86765e-06
0.009454801
2.89063e-06
0.009454923
2.911536e-06
0.009455043
2.930571e-06
0.009455162
2.947917e-06
0.00945528
2.963735e-06
0.009455397
2.978164e-06
0.009455513
2.991331e-06
0.009455628
3.003346e-06
0.009455741
3.014308e-06
0.009455854
3.024305e-06
0.009455967
3.033415e-06
0.009456079
3.041706e-06
0.00945619
3.04924e-06
0.0094563
3.056073e-06
0.00945641
3.062251e-06
0.00945652
3.067818e-06
0.009456629
3.072811e-06
0.009456738
3.077263e-06
0.009456847
3.081202e-06
0.009456955
3.084653e-06
0.009457064
3.087636e-06
0.009457172
3.090168e-06
0.00945728
3.092262e-06
0.009457387
3.09393e-06
0.009457495
3.095178e-06
0.009457603
3.096011e-06
0.009457711
3.096429e-06
0.009457819
3.096432e-06
0.009457927
3.096014e-06
0.009458035
3.095168e-06
0.009458144
3.093883e-06
0.009458252
3.092144e-06
0.009458361
3.089934e-06
0.009458471
3.087233e-06
0.00945858
3.084014e-06
0.00945869
3.08025e-06
0.009458801
3.075908e-06
0.009458912
3.070948e-06
0.009459023
3.065328e-06
0.009459135
3.058999e-06
0.009459248
3.051906e-06
0.009459362
3.043988e-06
0.009459476
3.035173e-06
0.009459592
3.025385e-06
0.009459708
3.014534e-06
0.009459825
3.002522e-06
0.009459944
2.989238e-06
0.009460064
2.974555e-06
0.009460185
2.958332e-06
0.009460308
2.94041e-06
0.009460432
2.920606e-06
0.009460559
2.898717e-06
0.009460687
2.874508e-06
0.009460817
2.847716e-06
0.009460949
2.818035e-06
0.009461084
2.785122e-06
0.009461221
2.748578e-06
0.009461361
2.70795e-06
0.009461504
2.662713e-06
0.009461649
2.612266e-06
0.009461798
2.555918e-06
0.009461949
2.492873e-06
0.009462104
2.422217e-06
0.009462261
2.34291e-06
0.009462421
2.253768e-06
0.009462583
2.153463e-06
0.009462746
2.040527e-06
0.009462909
1.913378e-06
0.009463069
1.770365e-06
0.009463225
1.609871e-06
0.009463373
1.430461e-06
0.009463509
1.231124e-06
0.009463627
1.01156e-06
0.009463723
7.727266e-07
0.009463789
5.166782e-07
2.493109e-07
0.009451595
3.294467e-07
0.009451671
6.351774e-07
0.00945177
8.541273e-07
0.009451886
1.051238e-06
0.009452014
1.241817e-06
0.009452152
1.41729e-06
0.009452295
1.574882e-06
0.009452441
1.716577e-06
0.009452589
1.844036e-06
0.009452737
1.958384e-06
0.009452884
2.060832e-06
0.00945303
2.152633e-06
0.009453175
2.234942e-06
0.009453317
2.308806e-06
0.009453457
2.375163e-06
0.009453594
2.434856e-06
0.00945373
2.488627e-06
0.009453863
2.537134e-06
0.009453994
2.580954e-06
0.009454123
2.620596e-06
0.00945425
2.656507e-06
0.009454375
2.689078e-06
0.009454498
2.718657e-06
0.00945462
2.745547e-06
0.009454741
2.770018e-06
0.00945486
2.792305e-06
0.009454978
2.81262e-06
0.009455094
2.831149e-06
0.00945521
2.848055e-06
0.009455324
2.863486e-06
0.009455438
2.877573e-06
0.009455551
2.89043e-06
0.009455663
2.902162e-06
0.009455774
2.91286e-06
0.009455885
2.922607e-06
0.009455995
2.931476e-06
0.009456105
2.939531e-06
0.009456214
2.946831e-06
0.009456322
2.953427e-06
0.009456431
2.959364e-06
0.009456539
2.964681e-06
0.009456647
2.969415e-06
0.009456754
2.973595e-06
0.009456861
2.977247e-06
0.009456969
2.980393e-06
0.009457076
2.983051e-06
0.009457183
2.985237e-06
0.00945729
2.98696e-06
0.009457396
2.988229e-06
0.009457503
2.989049e-06
0.00945761
2.98942e-06
0.009457717
2.989342e-06
0.009457825
2.988808e-06
0.009457932
2.987811e-06
0.009458039
2.986338e-06
0.009458147
2.984375e-06
0.009458255
2.981904e-06
0.009458363
2.978901e-06
0.009458472
2.97534e-06
0.009458581
2.97119e-06
0.00945869
2.966417e-06
0.0094588
2.960979e-06
0.009458911
2.95483e-06
0.009459022
2.947919e-06
0.009459134
2.940188e-06
0.009459246
2.931571e-06
0.009459359
2.921995e-06
0.009459473
2.911377e-06
0.009459588
2.899625e-06
0.009459704
2.886634e-06
0.009459821
2.87229e-06
0.009459939
2.856462e-06
0.009460058
2.839003e-06
0.009460179
2.819749e-06
0.009460301
2.798514e-06
0.009460424
2.775089e-06
0.00946055
2.749238e-06
0.009460677
2.720695e-06
0.009460806
2.689157e-06
0.009460936
2.654281e-06
0.009461069
2.615679e-06
0.009461204
2.572909e-06
0.009461341
2.52547e-06
0.009461481
2.472792e-06
0.009461623
2.414232e-06
0.009461766
2.349059e-06
0.009461912
2.276453e-06
0.00946206
2.195499e-06
0.009462208
2.105182e-06
0.009462357
2.004397e-06
0.009462506
1.891965e-06
0.009462652
1.766665e-06
0.009462795
1.627295e-06
0.009462932
1.47276e-06
0.009463061
1.302206e-06
0.009463177
1.115204e-06
0.009463276
9.119508e-07
0.009463355
6.936249e-07
0.00946341
4.621795e-07
2.222736e-07
0.009451693
3.053206e-07
0.009451752
5.778403e-07
0.009451833
7.754283e-07
0.009451929
9.574436e-07
0.009452037
1.135245e-06
0.009452155
1.300573e-06
0.00945228
1.45079e-06
0.009452409
1.587352e-06
0.009452541
1.711418e-06
0.009452676
1.823749e-06
0.009452811
1.925246e-06
0.009452947
2.016898e-06
0.009453082
2.099647e-06
0.009453216
2.174371e-06
0.009453349
2.241881e-06
0.009453481
2.302917e-06
0.009453611
2.358147e-06
0.00945374
2.40817e-06
0.009453867
2.453522e-06
0.009453993
2.494682e-06
0.009454117
2.532073e-06
0.00945424
2.566074e-06
0.009454361
2.59702e-06
0.009454482
2.625209e-06
0.0094546
2.650907e-06
0.009454718
2.674348e-06
0.009454835
2.695744e-06
0.009454951
2.71528e-06
0.009455065
2.733125e-06
0.009455179
2.749426e-06
0.009455293
2.764318e-06
0.009455405
2.777918e-06
0.009455517
2.790333e-06
0.009455628
2.801658e-06
0.009455738
2.811978e-06
0.009455848
2.821368e-06
0.009455958
2.829897e-06
0.009456067
2.837624e-06
0.009456176
2.844603e-06
0.009456284
2.850882e-06
0.009456392
2.856501e-06
0.0094565
2.861499e-06
0.009456608
2.865906e-06
0.009456715
2.869749e-06
0.009456822
2.873053e-06
0.009456929
2.875835e-06
0.009457036
2.878112e-06
0.009457143
2.879896e-06
0.00945725
2.881193e-06
0.009457357
2.88201e-06
0.009457464
2.882347e-06
0.009457572
2.882203e-06
0.009457679
2.881573e-06
0.009457786
2.880447e-06
0.009457894
2.878813e-06
0.009458001
2.876655e-06
0.009458109
2.873954e-06
0.009458217
2.870686e-06
0.009458326
2.866823e-06
0.009458435
2.862333e-06
0.009458544
2.857178e-06
0.009458653
2.851316e-06
0.009458764
2.844699e-06
0.009458874
2.837273e-06
0.009458985
2.828978e-06
0.009459097
2.819744e-06
0.00945921
2.809496e-06
0.009459323
2.798149e-06
0.009459437
2.785606e-06
0.009459552
2.771761e-06
0.009459667
2.756495e-06
0.009459784
2.739675e-06
0.009459902
2.721152e-06
0.009460021
2.700759e-06
0.009460141
2.678308e-06
0.009460263
2.653591e-06
0.009460385
2.626373e-06
0.00946051
2.596388e-06
0.009460635
2.563342e-06
0.009460763
2.526901e-06
0.009460892
2.48669e-06
0.009461022
2.442288e-06
0.009461155
2.393224e-06
0.009461288
2.338969e-06
0.009461424
2.278931e-06
0.00946156
2.212457e-06
0.009461698
2.138822e-06
0.009461836
2.057235e-06
0.009461974
1.966844e-06
0.009462112
1.866746e-06
0.009462248
1.756012e-06
0.009462381
1.633724e-06
0.009462509
1.499029e-06
0.009462631
1.351223e-06
0.009462743
1.189852e-06
0.009462843
1.014854e-06
0.009462929
8.266897e-07
0.009462996
6.26582e-07
0.009463042
4.162977e-07
1.995802e-07
0.009451803
2.762844e-07
0.009451857
5.256118e-07
0.009451929
7.060947e-07
0.009452015
8.739282e-07
0.009452112
1.039412e-06
0.009452219
1.194745e-06
0.009452333
1.337361e-06
0.009452452
1.468314e-06
0.009452575
1.588385e-06
0.009452701
1.698038e-06
0.009452828
1.797908e-06
0.009452956
1.888748e-06
0.009453084
1.971306e-06
0.009453212
2.046302e-06
0.009453339
2.114421e-06
0.009453465
2.176305e-06
0.009453591
2.232543e-06
0.009453715
2.283676e-06
0.009453838
2.330196e-06
0.00945396
2.372544e-06
0.009454081
2.411121e-06
0.0094542
2.446285e-06
0.009454319
2.47836e-06
0.009454436
2.507633e-06
0.009454553
2.534363e-06
0.009454668
2.558784e-06
0.009454782
2.581102e-06
0.009454896
2.601504e-06
0.009455009
2.620158e-06
0.009455121
2.637212e-06
0.009455232
2.652802e-06
0.009455343
2.667048e-06
0.009455453
2.680058e-06
0.009455563
2.691929e-06
0.009455672
2.702748e-06
0.009455781
2.712593e-06
0.009455889
2.721535e-06
0.009455997
2.729634e-06
0.009456104
2.736946e-06
0.009456212
2.743521e-06
0.009456319
2.749401e-06
0.009456426
2.754625e-06
0.009456532
2.759226e-06
0.009456639
2.763232e-06
0.009456745
2.766667e-06
0.009456851
2.769552e-06
0.009456957
2.771902e-06
0.009457063
2.773729e-06
0.009457169
2.775043e-06
0.009457276
2.775848e-06
0.009457382
2.776146e-06
0.009457488
2.775935e-06
0.009457594
2.775209e-06
0.009457701
2.773959e-06
0.009457807
2.772172e-06
0.009457914
2.769832e-06
0.009458021
2.766918e-06
0.009458128
2.763405e-06
0.009458236
2.759265e-06
0.009458344
2.754464e-06
0.009458452
2.748963e-06
0.00945856
2.742719e-06
0.009458669
2.735681e-06
0.009458779
2.727795e-06
0.009458889
2.718997e-06
0.009458999
2.709216e-06
0.00945911
2.698376e-06
0.009459222
2.686389e-06
0.009459335
2.673156e-06
0.009459448
2.658571e-06
0.009459562
2.642511e-06
0.009459676
2.624843e-06
0.009459792
2.605417e-06
0.009459909
2.584067e-06
0.009460026
2.560606e-06
0.009460145
2.534827e-06
0.009460265
2.5065e-06
0.009460386
2.475368e-06
0.009460508
2.441144e-06
0.009460632
2.403508e-06