/*--------------------------------*- C++ -*----------------------------------*\
| =========                 |                                                 |
| \\      /  F ield         | OpenFOAM: The Open Source CFD Toolbox           |
|  \\    /   O peration     | Version:  2.3.0                                 |
|   \\  /    A nd           | Web:      www.OpenFOAM.org                      |
|    \\/     M anipulation  |                                                 |
\*---------------------------------------------------------------------------*/
FoamFile
{
    version     2.0;
    format      ascii;
    class       volVectorField;
    location    "10000";
    object      U;
}
// * * * * * * * * * * * * * * * * * * * * * * * * * * * * * * * * * * * * * //

dimensions      [0 1 -1 0 0 0 0];

internalField   nonuniform List<vector> 
26600
(
(9.87237 5.23031 -11.798)
(9.41771 5.27164 -11.4491)
(9.41528 5.30697 -11.1537)
(9.51293 5.32973 -10.8878)
(9.69379 5.34958 -10.6217)
(9.94623 5.40463 -10.3704)
(10.2236 5.49317 -10.1146)
(10.5098 5.59429 -9.8553)
(10.7816 5.6974 -9.59622)
(11.037 5.79664 -9.34184)
(11.2689 5.88849 -9.09184)
(11.4759 5.97131 -8.85023)
(11.6557 6.04415 -8.61527)
(11.811 6.10748 -8.39013)
(11.9422 6.16113 -8.17195)
(12.0529 6.20659 -7.9638)
(12.1451 6.24383 -7.76197)
(12.2217 6.27497 -7.56939)
(12.2852 6.29982 -7.38143)
(12.3368 6.31945 -7.20272)
(12.378 6.33389 -7.02803)
(12.4101 6.34407 -6.86028)
(12.4326 6.35031 -6.70125)
(12.4472 6.35278 -6.51104)
(12.4533 6.34953 -6.37585)
(12.4523 6.33874 -6.1725)
(12.4475 6.32842 -6.05521)
(12.4269 6.30702 -5.85811)
(12.411 6.29183 -5.75203)
(12.3683 6.25869 -5.56044)
(12.3358 6.23413 -5.44816)
(12.277 6.19409 -5.29116)
(12.2207 6.15766 -5.17093)
(12.1551 6.11665 -5.05153)
(12.079 6.06951 -4.93295)
(11.9942 6.01802 -4.81579)
(11.8954 5.95801 -4.69986)
(11.7831 5.8916 -4.58659)
(11.6539 5.81086 -4.48166)
(11.5233 5.77689 -4.34835)
(10.0082 4.64491 -11.833)
(9.62918 4.67344 -11.5944)
(9.63703 4.73044 -11.3154)
(9.758 4.92396 -11.0388)
(9.91204 5.13916 -10.7342)
(10.1138 5.32449 -10.4292)
(10.3498 5.4854 -10.1329)
(10.6024 5.62669 -9.84448)
(10.8579 5.75552 -9.56178)
(11.104 5.86821 -9.28906)
(11.3322 5.96779 -9.02497)
(11.5403 6.05217 -8.77266)
(11.7252 6.12462 -8.53025)
(11.8885 6.18489 -8.29891)
(12.0294 6.23524 -8.07718)
(12.1506 6.27701 -7.8651)
(12.2528 6.31054 -7.66094)
(12.3373 6.33717 -7.46543)
(12.4049 6.35682 -7.27638)
(12.4576 6.37028 -7.09354)
(12.4948 6.37754 -6.91505)
(12.5185 6.37897 -6.7402)
(12.5268 6.37383 -6.56751)
(12.5221 6.36205 -6.39521)
(12.5006 6.34123 -6.22456)
(12.4634 6.31271 -6.05382)
(12.4073 6.27468 -5.88447)
(12.3362 6.22956 -5.71478)
(12.2468 6.17489 -5.5475)
(12.1461 6.11409 -5.38095)
(12.028 6.04401 -5.21772)
(11.9056 5.97193 -5.05751)
(11.7628 5.89012 -4.9008)
(11.6279 5.81212 -4.7521)
(11.4648 5.71781 -4.6052)
(11.3341 5.64053 -4.47219)
(11.1486 5.52821 -4.3328)
(11.0465 5.46277 -4.22304)
(10.803 5.29103 -4.06424)
(10.9359 5.35283 -4.08851)
(9.98859 4.78074 -11.8325)
(9.56089 4.9682 -11.5375)
(9.56012 5.1233 -11.2376)
(9.68537 5.30025 -10.9314)
(9.84115 5.46274 -10.6165)
(10.0308 5.61894 -10.2966)
(10.244 5.76753 -9.9804)
(10.4712 5.90299 -9.67122)
(10.7014 6.02288 -9.37048)
(10.9264 6.12542 -9.08084)
(11.1375 6.21304 -8.80148)
(11.3309 6.2843 -8.5356)
(11.5033 6.34367 -8.28021)
(11.6545 6.39013 -8.03656)
(11.7831 6.42669 -7.80257)
(11.8908 6.45393 -7.57734)
(11.977 6.47144 -7.35913)
(12.0421 6.48068 -7.14702)
(12.0856 6.4799 -6.9387)
(12.1072 6.46888 -6.73356)
(12.1047 6.44667 -6.52954)
(12.0785 6.41183 -6.32607)
(12.0267 6.36302 -6.12276)
(11.9509 6.30102 -5.92007)
(11.8505 6.22595 -5.71833)
(11.7298 6.13887 -5.51936)
(11.5898 6.04134 -5.3245)
(11.4373 5.93626 -5.13581)
(11.2727 5.82598 -4.95402)
(11.1041 5.7131 -4.78073)
(10.929 5.59967 -4.61604)
(10.7578 5.48889 -4.46098)
(10.5801 5.37951 -4.31374)
(10.4148 5.27519 -4.17647)
(10.2362 5.16896 -4.04491)
(10.0893 5.07402 -3.92629)
(9.90053 4.96536 -3.8062)
(9.79662 4.88743 -3.71183)
(9.53861 4.7511 -3.58054)
(9.65212 4.78845 -3.59642)
(10.0201 4.76311 -11.8299)
(9.63869 5.01488 -11.5074)
(9.60357 5.23871 -11.1819)
(9.6727 5.45283 -10.836)
(9.78907 5.64859 -10.4928)
(9.95091 5.82572 -10.1489)
(10.1408 5.9836 -9.81077)
(10.3463 6.12073 -9.48138)
(10.5555 6.23684 -9.1631)
(10.7618 6.33095 -8.85721)
(10.9561 6.40632 -8.5627)
(11.1341 6.46236 -8.28245)
(11.2916 6.5045 -8.01162)
(11.4265 6.53058 -7.75183)
(11.5359 6.5445 -7.49927)
(11.6188 6.54511 -7.25177)
(11.6721 6.53098 -7.00696)
(11.6931 6.50251 -6.76258)
(11.6788 6.45548 -6.51593)
(11.6269 6.3888 -6.26705)
(11.5347 6.30141 -6.01518)
(11.4051 6.19328 -5.76272)
(11.2412 6.06681 -5.51296)
(11.0495 5.92668 -5.26931)
(10.8378 5.77722 -5.03525)
(10.6143 5.62303 -4.81363)
(10.3851 5.46932 -4.60641)
(10.158 5.32005 -4.41479)
(9.93432 5.17688 -4.23785)
(9.72062 5.0414 -4.07602)
(9.51446 4.91417 -3.9276)
(9.32164 4.79551 -3.79213)
(9.13448 4.68455 -3.66712)
(8.96451 4.58119 -3.55331)
(8.79363 4.4822 -3.44716)
(8.65118 4.39132 -3.35183)
(8.48355 4.29803 -3.25903)
(8.38892 4.22076 -3.18364)
(8.16606 4.11108 -3.09126)
(8.28268 4.13867 -3.10745)
(10.014 4.78588 -11.8205)
(9.66815 5.11525 -11.4929)
(9.60481 5.39343 -11.1359)
(9.63236 5.63403 -10.7556)
(9.71806 5.85198 -10.3774)
(9.85371 6.04464 -10.0037)
(10.0212 6.21168 -9.63929)
(10.2069 6.35154 -9.2864)
(10.3979 6.46483 -8.94753)
(10.587 6.55158 -8.62179)
(10.7643 6.61427 -8.30788)
(10.9237 6.6535 -8.00727)
(11.0598 6.67386 -7.71235)
(11.1654 6.67167 -7.42351)
(11.2345 6.65032 -7.13401)
(11.2581 6.60398 -6.83872)
(11.2297 6.52833 -6.53557)
(11.1408 6.42165 -6.22209)
(10.9906 6.27878 -5.90012)
(10.7825 6.10371 -5.57614)
(10.5265 5.90371 -5.2576)
(10.2387 5.68832 -4.95292)
(9.93578 5.46997 -4.66999)
(9.63003 5.25683 -4.41151)
(9.33163 5.0551 -4.17862)
(9.04792 4.86826 -3.97138)
(8.78162 4.69663 -3.78759)
(8.53341 4.53986 -3.62407)
(8.30285 4.39763 -3.47853)
(8.09118 4.26834 -3.3491)
(7.89465 4.15105 -3.23313)
(7.71544 4.04436 -3.12938)
(7.54764 3.94725 -3.03556)
(7.39715 3.85862 -2.95154)
(7.25143 3.77657 -2.87462)
(7.12896 3.70029 -2.80601)
(6.99374 3.6272 -2.74146)
(6.9136 3.5606 -2.68725)
(6.73619 3.4817 -2.63158)
(6.85501 3.49917 -2.64886)
(10.0077 4.80421 -11.8202)
(9.67892 5.19596 -11.4797)
(9.59462 5.51778 -11.0844)
(9.5861 5.79814 -10.6763)
(9.64396 6.0439 -10.2655)
(9.75331 6.25583 -9.86113)
(9.89783 6.43519 -9.46858)
(10.0633 6.5804 -9.08923)
(10.2367 6.69278 -8.72571)
(10.4082 6.7725 -8.37363)
(10.5665 6.81951 -8.03172)
(10.6988 6.83562 -7.69628)
(10.7958 6.8201 -7.3562)
(10.8353 6.76483 -7.00478)
(10.8045 6.66652 -6.63403)
(10.6782 6.51026 -6.23547)
(10.4591 6.29543 -5.82049)
(10.1463 6.02903 -5.39636)
(9.77165 5.72817 -4.98455)
(9.36422 5.4169 -4.60224)
(8.95233 5.11656 -4.26009)
(8.55698 4.83775 -3.96141)
(8.18947 4.58727 -3.7048)
(7.85121 4.36517 -3.48446)
(7.54517 4.16936 -3.2961)
(7.26944 3.99739 -3.13485)
(7.02033 3.84655 -2.99615)
(6.79618 3.71323 -2.8764)
(6.59479 3.59576 -2.77293)
(6.41389 3.49117 -2.68299)
(6.25008 3.39793 -2.60415)
(6.10302 3.31455 -2.53497)
(5.96847 3.23991 -2.47364)
(5.84876 3.17222 -2.41957)
(5.7366 3.11095 -2.37126)
(5.64179 3.05385 -2.32877)
(5.54268 3.00163 -2.29038)
(5.4822 2.95053 -2.25821)
(5.35159 2.89912 -2.23228)
(5.46599 2.90575 -2.24956)
(9.96076 4.82919 -11.8307)
(9.67481 5.27036 -11.4467)
(9.57046 5.63772 -11.0251)
(9.53629 5.957 -10.5897)
(9.5687 6.2321 -10.1507)
(9.65256 6.46527 -9.7178)
(9.77415 6.65906 -9.29705)
(9.91884 6.81082 -8.88903)
(10.0749 6.92278 -8.49565)
(10.2251 6.99265 -8.10635)
(10.3548 7.01442 -7.71887)
(10.4315 6.98702 -7.31527)
(10.4285 6.89196 -6.87876)
(10.2916 6.70418 -6.38934)
(10.0104 6.41941 -5.85812)
(9.57604 6.03688 -5.29867)
(9.05901 5.60879 -4.76308)
(8.49969 5.17406 -4.27409)
(7.9609 4.77052 -3.85432)
(7.46627 4.41615 -3.50518)
(7.02198 4.11286 -3.21761)
(6.63161 3.85677 -2.98326)
(6.28949 3.63995 -2.79168)
(5.99029 3.45683 -2.63486)
(5.72949 3.30159 -2.50635)
(5.50084 3.16771 -2.39985)
(5.3006 3.05212 -2.31137)
(5.12452 2.95247 -2.23753)
(4.96894 2.86637 -2.17563)
(4.83158 2.79104 -2.12358)
(4.70948 2.72491 -2.07946)
(4.6015 2.66672 -2.04207)
(4.50479 2.61559 -2.0102)
(4.41972 2.56984 -1.98316)
(4.34209 2.5292 -1.9601)
(4.27707 2.49148 -1.94086)
(4.21156 2.45833 -1.92483)
(4.17262 2.42425 -1.91307)
(4.08364 2.39439 -1.90921)
(4.19201 2.39417 -1.92739)
(9.92497 4.85198 -11.8095)
(9.6673 5.34254 -11.3926)
(9.54119 5.75608 -10.9536)
(9.48627 6.11332 -10.4947)
(9.49491 6.41918 -10.0305)
(9.55426 6.67559 -9.57084)
(9.65382 6.8854 -9.12184)
(9.77753 7.04504 -8.68131)
(9.91464 7.1554 -8.24773)
(10.0309 7.20315 -7.79884)
(10.0906 7.16958 -7.32167)
(10.011 7.02142 -6.76949)
(9.72055 6.70618 -6.12169)
(9.18713 6.21575 -5.40115)
(8.49969 5.62848 -4.68833)
(7.75561 5.02711 -4.04577)
(7.06234 4.48963 -3.51416)
(6.43929 4.03871 -3.0877)
(5.9076 3.67123 -2.75518)
(5.45745 3.37556 -2.49777)
(5.07797 3.13798 -2.29938)
(4.7613 2.94498 -2.14747)
(4.49433 2.78626 -2.03002)
(4.2686 2.65603 -1.93911)
(4.07628 2.54814 -1.86854)
(3.91137 2.45747 -1.81347)
(3.76891 2.3805 -1.77018)
(3.64526 2.31483 -1.73613)
(3.53729 2.25873 -1.7095)
(3.44302 2.21038 -1.68894)
(3.36045 2.16861 -1.67328)
(3.2885 2.1325 -1.66172)
(3.22542 2.1015 -1.65357)
(3.171 2.0744 -1.64836)
(3.12281 2.05101 -1.64563)
(3.08368 2.02969 -1.64526)
(3.04562 2.01181 -1.64715)
(3.02535 1.99264 -1.65232)
(2.97031 1.9788 -1.66387)
(3.07062 1.97572 -1.68424)
(9.90499 4.885 -11.7725)
(9.65366 5.41763 -11.3328)
(9.51103 5.87334 -10.8734)
(9.43652 6.26917 -10.3927)
(9.4233 6.60735 -9.9047)
(9.46005 6.8885 -9.41871)
(9.53904 7.11699 -8.93869)
(9.64205 7.28398 -8.45517)
(9.74858 7.38224 -7.95639)
(9.77421 7.36336 -7.38949)
(9.60662 7.15326 -6.70655)
(9.0807 6.64952 -5.84563)
(8.23378 5.89976 -4.90127)
(7.27085 5.08549 -4.03098)
(6.3567 4.35255 -3.31084)
(5.57304 3.76375 -2.76269)
(4.92384 3.30128 -2.35196)
(4.39859 2.95511 -2.05461)
(3.982 2.69185 -1.84376)
(3.64848 2.48795 -1.69371)
(3.38006 2.33141 -1.588)
(3.16065 2.20811 -1.51354)
(2.97949 2.10853 -1.46111)
(2.82823 2.02769 -1.42455)
(2.70049 1.96124 -1.39975)
(2.59208 1.90578 -1.38387)
(2.49947 1.85918 -1.37465)
(2.42003 1.82001 -1.3705)
(2.3515 1.78719 -1.3703)
(2.29239 1.7596 -1.3733)
(2.24146 1.73649 -1.37889)
(2.19795 1.71727 -1.38665)
(2.1608 1.70157 -1.39624)
(2.12984 1.68861 -1.40743)
(2.10369 1.67825 -1.42003)
(2.08394 1.66935 -1.43401)
(2.06578 1.66284 -1.44949)
(2.05966 1.65536 -1.46742)
(2.02836 1.65221 -1.48951)
(2.11891 1.64969 -1.51346)
(9.89112 4.92136 -11.7374)
(9.63425 5.49159 -11.2751)
(9.47779 5.99003 -10.7907)
(9.38581 6.42599 -10.2868)
(9.35378 6.79804 -9.77434)
(9.37038 7.10692 -9.25905)
(9.43146 7.3545 -8.73888)
(9.50649 7.52041 -8.18458)
(9.51487 7.55304 -7.54926)
(9.22295 7.27911 -6.70989)
(8.42044 6.55124 -5.60967)
(7.20677 5.4946 -4.40877)
(6.00176 4.48002 -3.38186)
(4.97361 3.66596 -2.60534)
(4.15162 3.05674 -2.04892)
(3.53114 2.63514 -1.68238)
(3.0633 2.32888 -1.44266)
(2.71383 2.11504 -1.29084)
(2.44546 1.96063 -1.19594)
(2.23493 1.8435 -1.13705)
(2.06646 1.75356 -1.1021)
(1.92928 1.68257 -1.08365)
(1.81593 1.62512 -1.07636)
(1.72122 1.57859 -1.07682)
(1.6412 1.54063 -1.08287)
(1.57325 1.50924 -1.09309)
(1.51541 1.48319 -1.10641)
(1.46625 1.4618 -1.12208)
(1.42438 1.44451 -1.13954)
(1.38885 1.43075 -1.15843)
(1.35891 1.42008 -1.17849)
(1.33408 1.41215 -1.19956)
(1.31377 1.40672 -1.2215)
(1.29783 1.40328 -1.24425)
(1.28552 1.4017 -1.26775)
(1.27776 1.40122 -1.29206)
(1.27167 1.40236 -1.31731)
(1.27396 1.40282 -1.3441)
(1.2576 1.40648 -1.37372)
(1.33638 1.40665 -1.40226)
(9.87805 4.95374 -11.709)
(9.60831 5.56369 -11.2221)
(9.43907 6.10764 -10.7091)
(9.33304 6.58574 -10.1794)
(9.28561 6.99451 -9.63904)
(9.28689 7.33123 -9.08619)
(9.32734 7.59454 -8.49882)
(9.30896 7.70404 -7.79096)
(8.91935 7.41214 -6.82858)
(7.78952 6.42408 -5.46784)
(6.21202 5.05983 -3.98539)
(4.80251 3.88343 -2.79173)
(3.70486 3.01857 -1.94296)
(2.91283 2.45476 -1.41276)
(2.37471 2.08931 -1.11069)
(2.00955 1.85704 -0.950956)
(1.74344 1.69544 -0.865295)
(1.54332 1.58247 -0.82121)
(1.38644 1.49893 -0.802442)
(1.26003 1.43405 -0.79929)
(1.15612 1.3834 -0.806258)
(1.06942 1.34287 -0.820089)
(0.99618 1.30962 -0.838441)
(0.933993 1.28253 -0.859885)
(0.880785 1.26059 -0.883525)
(0.835142 1.24277 -0.90878)
(0.796105 1.22842 -0.935242)
(0.762938 1.21718 -0.962626)
(0.734909 1.2088 -0.990723)
(0.711447 1.20301 -1.0194)
(0.692096 1.19955 -1.04857)
(0.676533 1.19822 -1.0782)
(0.664392 1.19882 -1.10826)
(0.655545 1.20103 -1.13876)
(0.649577 1.20469 -1.16971)
(0.646989 1.20925 -1.20118)
(0.646053 1.21495 -1.23328)
(0.651135 1.22027 -1.26633)
(0.642526 1.22805 -1.30093)
(0.707932 1.23155 -1.33479)
(9.86447 4.9787 -11.6851)
(9.5745 5.6353 -11.1735)
(9.39466 6.22852 -10.6298)
(9.27797 6.75242 -10.0707)
(9.22031 7.19839 -9.49577)
(9.21012 7.56054 -8.88147)
(9.17695 7.79668 -8.13812)
(8.71332 7.52101 -7.05388)
(7.30375 6.34811 -5.50447)
(5.36109 4.67945 -3.71772)
(3.7544 3.31271 -2.28094)
(2.64558 2.47107 -1.36181)
(1.9789 1.9982 -0.891767)
(1.57108 1.73157 -0.685119)
(1.29783 1.55961 -0.597321)
(1.10156 1.44104 -0.56491)
(0.952875 1.35264 -0.560805)
(0.83339 1.28695 -0.570753)
(0.733273 1.2363 -0.588941)
(0.647641 1.19546 -0.612234)
(0.573781 1.16267 -0.638942)
(0.509326 1.13597 -0.667943)
(0.452955 1.11394 -0.698485)
(0.403737 1.09601 -0.730088)
(0.360722 1.08167 -0.762453)
(0.323183 1.07037 -0.795395)
(0.290614 1.06174 -0.828792)
(0.262599 1.05556 -0.862561)
(0.238717 1.05168 -0.896649)
(0.218593 1.04994 -0.931028)
(0.201903 1.05019 -0.96569)
(0.188392 1.05227 -1.00065)
(0.17779 1.05601 -1.03591)
(0.169955 1.06117 -1.07153)
(0.164609 1.06757 -1.10752)
(0.162005 1.07481 -1.14396)
(0.161073 1.08292 -1.18092)
(0.164675 1.09091 -1.21852)
(0.158483 1.101 -1.25692)
(0.208715 1.10721 -1.29539)
(9.84873 4.9952 -11.6644)
(9.53323 5.70823 -11.1272)
(9.34572 6.35743 -10.5518)
(9.22412 6.92882 -9.95888)
(9.16241 7.41023 -9.33195)
(9.11089 7.7755 -8.57294)
(8.63956 7.61776 -7.40981)
(7.06982 6.38038 -5.78351)
(4.69155 4.34803 -3.61364)
(2.9058 2.84181 -1.88532)
(1.96035 2.11923 -0.960127)
(1.45309 1.77293 -0.569783)
(1.1453 1.56248 -0.425268)
(0.931635 1.41994 -0.379953)
(0.767742 1.31576 -0.375925)
(0.635994 1.23775 -0.390794)
(0.526569 1.17585 -0.415226)
(0.432808 1.12688 -0.444378)
(0.350425 1.08789 -0.476217)
(0.27708 1.05603 -0.509645)
(0.211479 1.03007 -0.544101)
(0.152464 1.00882 -0.579256)
(0.0995148 0.991425 -0.614922)
(0.0521875 0.977418 -0.650972)
(0.00998101 0.966432 -0.687332)
(-0.0275427 0.958094 -0.723967)
(-0.0607254 0.952124 -0.76086)
(-0.0898685 0.948345 -0.798009)
(-0.115279 0.94663 -0.835417)
(-0.13725 0.946854 -0.873101)
(-0.156055 0.948894 -0.91108)
(-0.171931 0.952611 -0.949385)
(-0.185113 0.957856 -0.988047)
(-0.195767 0.964418 -1.02711)
(-0.204112 0.972105 -1.0666)
(-0.210049 0.980597 -1.10658)
(-0.214271 0.989829 -1.1471)
(-0.214942 0.999139 -1.18824)
(-0.222206 1.01017 -1.23009)
(-0.187666 1.01784 -1.27162)
(9.83286 5.00325 -11.6438)
(9.48681 5.78568 -11.0809)
(9.29858 6.49787 -10.473)
(9.17901 7.11686 -9.83777)
(9.10552 7.62601 -9.09216)
(8.67151 7.66503 -7.87638)
(7.11321 6.52508 -6.27469)
(4.21397 4.09351 -3.69697)
(2.33771 2.49672 -1.69269)
(1.53752 1.93246 -0.713759)
(1.18091 1.68583 -0.36731)
(0.962143 1.51517 -0.270932)
(0.787287 1.38079 -0.251012)
(0.638902 1.27592 -0.259309)
(0.509348 1.19299 -0.281004)
(0.394373 1.12721 -0.309508)
(0.292578 1.07375 -0.341977)
(0.202108 1.03049 -0.376649)
(0.12083 0.99555 -0.412574)
(0.0473265 0.967 -0.449215)
(-0.0193722 0.943708 -0.486285)
(-0.080074 0.924773 -0.523655)
(-0.135276 0.909487 -0.561278)
(-0.185359 0.897383 -0.599139)
(-0.23071 0.888096 -0.63724)
(-0.271679 0.881302 -0.675597)
(-0.308563 0.87675 -0.714233)
(-0.341632 0.874264 -0.753175)
(-0.371154 0.873713 -0.792451)
(-0.397394 0.874981 -0.832093)
(-0.420603 0.877949 -0.872134)
(-0.441015 0.882486 -0.91261)
(-0.458852 0.888446 -0.953558)
(-0.474297 0.895639 -0.995015)
(-0.487546 0.903874 -1.03702)
(-0.498595 0.912879 -1.07961)
(-0.50793 0.922532 -1.12283)
(-0.514408 0.932352 -1.16674)
(-0.525277 0.943396 -1.21143)
(-0.504666 0.951607 -1.25579)
(9.82386 5.0053 -11.6198)
(9.44277 5.87049 -11.0324)
(9.263 6.65172 -10.391)
(9.15561 7.31895 -9.6779)
(8.78338 7.61046 -8.46308)
(7.31014 6.67283 -6.84428)
(4.03477 4.00141 -4.01797)
(1.95152 2.2449 -1.70187)
(1.27033 1.80854 -0.597606)
(1.06037 1.69025 -0.256732)
(0.907751 1.55255 -0.176671)
(0.758948 1.41162 -0.166132)
(0.618941 1.28978 -0.18039)
(0.486909 1.19126 -0.20401)
(0.364762 1.11313 -0.232929)
(0.252514 1.0513 -0.265166)
(0.150226 1.00151 -0.299615)
(0.0574386 0.961255 -0.335486)
(-0.0269657 0.928651 -0.372238)
(-0.103954 0.902095 -0.409536)
(-0.17433 0.880519 -0.447186)
(-0.238809 0.863122 -0.48511)
(-0.297932 0.849269 -0.523289)
(-0.352125 0.838487 -0.561739)
(-0.401768 0.830406 -0.600487)
(-0.447201 0.824718 -0.639568)
(-0.488715 0.821178 -0.679021)
(-0.526575 0.819608 -0.718885)
(-0.561039 0.81987 -0.7592)
(-0.592358 0.821844 -0.800005)
(-0.620775 0.82541 -0.84134)
(-0.646516 0.830438 -0.883245)
(-0.6698 0.836784 -0.925759)
(-0.690814 0.84427 -0.96892)
(-0.709748 0.852708 -1.01276)
(-0.726656 0.861857 -1.05732)
(-0.741909 0.871556 -1.10263)
(-0.754814 0.881416 -1.1487)
(-0.770703 0.892003 -1.19552)
(-0.762209 0.900296 -1.24287)
(9.83378 5.00837 -11.5891)
(9.41227 5.96345 -10.9818)
(9.26046 6.81378 -10.3072)
(8.96251 7.39991 -9.16597)
(7.59679 6.74992 -7.49216)
(4.21225 4.09396 -4.55431)
(1.7315 2.08159 -1.88729)
(1.07435 1.67609 -0.611791)
(0.989098 1.70659 -0.209854)
(0.917133 1.64859 -0.117359)
(0.792751 1.50033 -0.105962)
(0.656928 1.3511 -0.120542)
(0.520681 1.22544 -0.144513)
(0.390967 1.12618 -0.172889)
(0.269605 1.04924 -0.203976)
(0.156918 0.989389 -0.237027)
(0.0529657 0.942012 -0.271572)
(-0.0424696 0.904112 -0.307215)
(-0.130083 0.873619 -0.343632)
(-0.210601 0.848962 -0.380594)
(-0.284699 0.829071 -0.417961)
(-0.353019 0.81318 -0.455674)
(-0.416106 0.800694 -0.493723)
(-0.474413 0.791156 -0.532131)
(-0.528333 0.784202 -0.570933)
(-0.578208 0.779533 -0.610171)
(-0.624335 0.776915 -0.649891)
(-0.666981 0.776164 -0.69014)
(-0.706401 0.77714 -0.730963)
(-0.742836 0.779714 -0.772406)
(-0.776521 0.783768 -0.814514)
(-0.807677 0.789169 -0.857329)
(-0.836517 0.795775 -0.900895)
(-0.863229 0.803416 -0.94525)
(-0.887996 0.811905 -0.99043)
(-0.910908 0.821017 -1.03647)
(-0.932268 0.830568 -1.08338)
(-0.951666 0.84021 -1.13119)
(-0.973091 0.850192 -1.17988)
(-0.975368 0.858174 -1.2294)
(9.87818 5.02927 -11.5489)
(9.41296 6.06736 -10.9591)
(9.17341 6.97541 -9.96624)
(7.94113 6.68694 -8.23417)
(4.61107 4.28654 -5.19646)
(1.6425 1.96533 -2.11403)
(0.865237 1.4439 -0.634107)
(0.891521 1.66631 -0.160339)
(0.93186 1.75102 -0.0683155)
(0.872999 1.65143 -0.0613426)
(0.736243 1.46498 -0.0732254)
(0.593112 1.30039 -0.095759)
(0.452669 1.16902 -0.123049)
(0.320969 1.06843 -0.152823)
(0.198553 0.992156 -0.184267)
(0.0849687 0.933903 -0.217057)
(-0.0202369 0.888638 -0.250981)
(-0.117511 0.852963 -0.285836)
(-0.207463 0.824593 -0.321429)
(-0.290707 0.801912 -0.357604)
(-0.367831 0.783813 -0.394262)
(-0.439406 0.769526 -0.431358)
(-0.505947 0.758478 -0.468888)
(-0.567906 0.750228 -0.506875)
(-0.625676 0.744425 -0.545359)
(-0.679599 0.740786 -0.584383)
(-0.729972 0.739083 -0.623999)
(-0.777065 0.739136 -0.664257)
(-0.821125 0.740799 -0.705207)
(-0.862388 0.743945 -0.746901)
(-0.901082 0.748449 -0.789387)
(-0.937421 0.75418 -0.832713)
(-0.971607 0.760994 -0.876925)
(-1.00383 0.768727 -0.922063)
(-1.03425 0.777195 -0.968167)
(-1.063 0.786181 -1.01527)
(-1.09032 0.795481 -1.06339)
(-1.11599 0.80477 -1.11255)
(-1.14303 0.814083 -1.16274)
(-1.15476 0.821575 -1.21394)
(10.0057 5.05902 -11.4866)
(9.42852 6.19037 -10.889)
(8.27721 6.38652 -9.03786)
(5.08055 4.38115 -5.82711)
(1.71942 1.9048 -2.32026)
(0.768431 1.2446 -0.75023)
(0.833193 1.52748 -0.184482)
(0.988945 1.83179 -0.0367153)
(0.979022 1.82571 -0.0247281)
(0.868666 1.65175 -0.0356181)
(0.705943 1.42787 -0.0555208)
(0.548142 1.24964 -0.0808202)
(0.400194 1.1143 -0.108968)
(0.264904 1.01344 -0.138742)
(0.140879 0.938314 -0.169708)
(0.0264931 0.88184 -0.201715)
(-0.0794389 0.838685 -0.234669)
(-0.177744 0.805201 -0.268463)
(-0.269134 0.778955 -0.302982)
(-0.35423 0.758275 -0.338128)
(-0.43358 0.742016 -0.373831)
(-0.507698 0.729389 -0.410061)
(-0.577061 0.719827 -0.446817)
(-0.642098 0.712899 -0.484127)
(-0.703187 0.70827 -0.522028)
(-0.760663 0.705669 -0.560568)
(-0.814817 0.704879 -0.599799)
(-0.865913 0.705725 -0.639777)
(-0.914193 0.70806 -0.680556)
(-0.959887 0.711756 -0.72219)
(-1.00321 0.716685 -0.764733)
(-1.04437 0.722717 -0.808237)
(-1.08356 0.729708 -0.852752)
(-1.12095 0.737497 -0.898322)
(-1.15672 0.745901 -0.94499)
(-1.19098 0.754708 -0.992791)
(-1.22395 0.763703 -1.04175)
(-1.25551 0.772573 -1.09189)
(-1.28801 0.781222 -1.1432)
(-1.30803 0.788162 -1.19569)
(10.1443 5.10936 -11.5078)
(8.61249 5.715 -9.83927)
(5.40546 4.10835 -6.21274)
(1.91558 1.81942 -2.37744)
(0.846337 1.13815 -0.810183)
(0.85371 1.34035 -0.150954)
(1.10946 1.79088 -0.0283217)
(1.14992 1.9744 -0.00884523)
(1.07019 1.88458 -0.00948428)
(0.881789 1.62782 -0.0238837)
(0.689114 1.38032 -0.0457791)
(0.513562 1.19441 -0.0714417)
(0.356862 1.05839 -0.0992191)
(0.217353 0.9591 -0.128268)
(0.0915375 0.886103 -0.158295)
(-0.0235083 0.831847 -0.189218)
(-0.129762 0.79093 -0.220993)
(-0.228504 0.759643 -0.253564)
(-0.320642 0.73549 -0.286863)
(-0.406868 0.716769 -0.320828)
(-0.487743 0.70232 -0.355415)
(-0.563753 0.691336 -0.390607)
(-0.635338 0.683247 -0.426408)
(-0.702897 0.67763 -0.462846)
(-0.766786 0.67416 -0.499961)
(-0.827324 0.672578 -0.537802)
(-0.884791 0.672678 -0.576424)
(-0.939442 0.674288 -0.615884)
(-0.99151 0.677264 -0.656241)
(-1.04121 0.681476 -0.697553)
(-1.08876 0.686798 -0.739877)
(-1.13434 0.693098 -0.78327)
(-1.17814 0.700235 -0.827786)
(-1.22032 0.708046 -0.873474)
(-1.26105 0.716353 -0.920379)
(-1.30044 0.724947 -0.968541)
(-1.33868 0.733606 -1.01799)
(-1.37569 0.742031 -1.06875)
(-1.41335 0.750046 -1.12082)
(-1.44069 0.75644 -1.17421)
(9.45856 4.90687 -10.2339)
(5.06101 3.19531 -5.61341)
(1.95723 1.56675 -1.87713)
(1.05095 1.14537 -0.706217)
(1.1001 1.28457 -0.0804696)
(1.3128 1.65568 -0.0153681)
(1.41554 2.00806 -0.0030302)
(1.34897 2.08461 -0.00102315)
(1.16724 1.89832 -0.00505832)
(0.902053 1.57611 -0.0196128)
(0.677902 1.31828 -0.0406858)
(0.484463 1.13235 -0.0654622)
(0.319079 0.999789 -0.0921914)
(0.175434 0.904334 -0.120093)
(0.0478907 0.834675 -0.148903)
(-0.0676713 0.783233 -0.178552)
(-0.173976 0.744777 -0.209012)
(-0.272759 0.715717 -0.240252)
(-0.365163 0.693606 -0.272232)
(-0.45199 0.676764 -0.304913)
(-0.533842 0.664036 -0.338271)
(-0.611206 0.654618 -0.372296)
(-0.684498 0.647935 -0.407002)
(-0.754089 0.64357 -0.442416)
(-0.820313 0.641205 -0.47858)
(-0.883466 0.640591 -0.515546)
(-0.943814 0.641528 -0.553368)
(-1.0016 0.643851 -0.592107)
(-1.05704 0.647418 -0.631825)
(-1.11035 0.6521 -0.672583)
(-1.16171 0.657769 -0.714444)
(-1.21132 0.664295 -0.757467)
(-1.25933 0.671537 -0.801709)
(-1.30591 0.679336 -0.847225)
(-1.3512 0.687514 -0.894064)
(-1.39531 0.695868 -0.942269)
(-1.4384 0.704176 -0.991875)
(-1.48043 0.71215 -1.04291)
(-1.52288 0.719578 -1.09538)
(-1.5567 0.725455 -1.14929)
(4.33332 1.05562 0.00325864)
(2.12971 1.12376 -0.13934)
(1.49786 1.23392 -0.141007)
(1.63652 1.36308 0.0316534)
(1.72915 1.60387 0.0112959)
(1.77925 1.89665 0.0046672)
(1.72873 2.16895 0.00187903)
(1.57076 2.14554 0.000656866)
(1.2347 1.84093 -0.00469437)
(0.917985 1.4944 -0.0183238)
(0.665244 1.24031 -0.0381235)
(0.456994 1.06262 -0.0615455)
(0.284414 0.937951 -0.0868861)
(0.137326 0.848665 -0.113404)
(0.00838787 0.783606 -0.14083)
(-0.107495 0.735623 -0.169084)
(-0.213656 0.699899 -0.198139)
(-0.312224 0.673122 -0.227975)
(-0.404577 0.653 -0.258566)
(-0.491639 0.637936 -0.289888)
(-0.574069 0.626813 -0.321929)
(-0.652369 0.618841 -0.354689)
(-0.726951 0.613458 -0.388187)
(-0.798166 0.610248 -0.422452)
(-0.866322 0.608901 -0.457527)
(-0.931696 0.609175 -0.493464)
(-0.994539 0.610875 -0.530322)
(-1.05507 0.613841 -0.568162)
(-1.11351 0.617932 -0.607048)
(-1.17004 0.62302 -0.647046)
(-1.22485 0.62898 -0.688221)
(-1.2781 0.635681 -0.730636)
(-1.32995 0.642982 -0.774351)
(-1.38054 0.650729 -0.819425)
(-1.43 0.658748 -0.865911)
(-1.47842 0.66684 -0.913854)
(-1.52595 0.674787 -0.963293)
(-1.57255 0.682318 -1.01426)
(-1.6194 0.689207 -1.06677)
(-1.65898 0.694613 -1.12082)
(4.46744 1.163 -0.00373981)
(3.3702 1.52981 0.00938007)
(2.75932 1.49397 0.0162593)
(2.49806 1.61151 0.00486187)
(2.31467 1.79591 0.00287634)
(2.22829 2.06544 0.0010926)
(2.04626 2.24784 0.00038196)
(1.71571 2.10823 5.84936e-06)
(1.26423 1.72406 -0.00548809)
(0.917805 1.3858 -0.0183122)
(0.645721 1.14835 -0.0368756)
(0.42814 0.986158 -0.0588203)
(0.250967 0.87314 -0.0826394)
(0.101723 0.792076 -0.107657)
(-0.0279967 0.732752 -0.133604)
(-0.143906 0.688829 -0.160391)
(-0.249745 0.656107 -0.187985)
(-0.347932 0.63168 -0.216366)
(-0.440032 0.613501 -0.245516)
(-0.527086 0.600108 -0.275422)
(-0.609814 0.590457 -0.30608)
(-0.688745 0.583797 -0.337496)
(-0.764292 0.579581 -0.369693)
(-0.836795 0.577407 -0.402702)
(-0.906547 0.576968 -0.436569)
(-0.973806 0.578029 -0.471347)
(-1.0388 0.5804 -0.507094)
(-1.10175 0.583922 -0.543875)
(-1.16284 0.588458 -0.581756)
(-1.22225 0.59388 -0.620805)
(-1.28015 0.600064 -0.661088)
(-1.33668 0.606881 -0.702674)
(-1.392 0.614192 -0.745625)
(-1.44623 0.621846 -0.790001)
(-1.49948 0.629674 -0.835859)
(-1.55183 0.637484 -0.883247)
(-1.60339 0.645067 -0.932206)
(-1.65413 0.65217 -0.982769)
(-1.705 0.658567 -1.03495)
(-1.74971 0.663552 -1.08877)
(4.59095 0.759391 -0.000663395)
(3.89417 1.26775 -0.000334504)
(3.30555 1.45861 0.00125469)
(2.9693 1.63776 0.00118656)
(2.74794 1.88379 0.000665359)
(2.58102 2.14958 8.12759e-05)
(2.25056 2.22942 0.000245026)
(1.74912 1.96328 -0.000445019)
(1.26141 1.56976 -0.00634102)
(0.89706 1.2579 -0.0187877)
(0.616483 1.04669 -0.0362523)
(0.395854 0.904974 -0.0567333)
(0.217332 0.806271 -0.0790014)
(0.0676606 0.734932 -0.102472)
(-0.0619903 0.682196 -0.126897)
(-0.177524 0.642802 -0.152178)
(-0.282847 0.6133 -0.178276)
(-0.380524 0.591279 -0.205169)
(-0.472246 0.574996 -0.232843)
(-0.559139 0.56317 -0.26129)
(-0.641979 0.554859 -0.290511)
(-0.721321 0.549368 -0.320518)
(-0.797588 0.54618 -0.351335)
(-0.871116 0.544907 -0.382998)
(-0.942187 0.545254 -0.415553)
(-1.01104 0.546988 -0.449053)
(-1.0779 0.549924 -0.48356)
(-1.14296 0.553907 -0.519137)
(-1.20639 0.558799 -0.555853)
(-1.26837 0.564476 -0.593778)
(-1.32903 0.570812 -0.632981)
(-1.38853 0.577682 -0.67353)
(-1.44698 0.584951 -0.715491)
(-1.50449 0.592469 -0.758927)
(-1.56117 0.600075 -0.803895)
(-1.61707 0.607586 -0.850444)
(-1.67228 0.614805 -0.898619)
(-1.72677 0.621495 -0.948451)
(-1.78128 0.627445 -0.999961)
(-1.83055 0.632056 -1.05315)
(4.69563 0.553688 -0.000121852)
(4.20343 1.16472 -0.000250405)
(3.70482 1.43668 3.73535e-05)
(3.36369 1.67165 0.000120303)
(3.11806 1.94096 5.23049e-05)
(2.79616 2.14708 -7.51347e-05)
(2.32461 2.09054 0.000229424)
(1.72279 1.76209 -0.00097444)
(1.22171 1.39032 -0.0073096)
(0.855099 1.11809 -0.0194573)
(0.576536 0.939982 -0.0358824)
(0.359084 0.821687 -0.0549361)
(0.182723 0.738717 -0.0756639)
(0.0345101 0.67788 -0.0975844)
(-0.0940938 0.632192 -0.120475)
(-0.208777 0.597593 -0.144235)
(-0.313362 0.571439 -0.16882)
(-0.41042 0.551846 -0.194205)
(-0.501682 0.537405 -0.220377)
(-0.588322 0.527044 -0.24733)
(-0.671154 0.519946 -0.275071)
(-0.750757 0.515484 -0.303613)
(-0.827565 0.513182 -0.332985)
(-0.901914 0.512675 -0.363222)
(-0.974079 0.513677 -0.394373)
(-1.04429 0.515965 -0.426491)
(-1.11276 0.519356 -0.459638)
(-1.17967 0.523698 -0.49388)
(-1.24517 0.528854 -0.529285)
(-1.30942 0.534701 -0.565924)
(-1.37256 0.541116 -0.603868)
(-1.43471 0.547975 -0.643186)
(-1.49597 0.555146 -0.683944)
(-1.55645 0.562487 -0.726207)
(-1.61621 0.569841 -0.770033)
(-1.67532 0.577038 -0.815471)
(-1.73382 0.583891 -0.862564)
(-1.79168 0.590186 -0.911345)
(-1.84949 0.595728 -0.961833)
(-1.90281 0.600006 -1.01402)
(4.76108 0.437323 -1.42547e-05)
(4.43239 1.05071 -9.5771e-05)
(4.01138 1.38488 -6.29196e-05)
(3.65674 1.654 -2.04183e-05)
(3.29988 1.91505 -1.95891e-05)
(2.86942 2.02207 -3.78492e-05)
(2.26213 1.86697 0.000185401)
(1.62998 1.52519 -0.00165194)
(1.14357 1.19828 -0.00839846)
(0.791892 0.974703 -0.0201894)
(0.526498 0.833308 -0.0355481)
(0.317892 0.739228 -0.0532008)
(0.14695 0.67206 -0.0724167)
(0.00198924 0.621718 -0.0928058)
(-0.124603 0.583101 -0.11417)
(-0.237946 0.553329 -0.136411)
(-0.341565 0.53053 -0.159478)
(-0.437901 0.513333 -0.183344)
(-0.528648 0.500664 -0.207995)
(-0.614983 0.491668 -0.233429)
(-0.697735 0.48566 -0.259652)
(-0.777499 0.482095 -0.286684)
(-0.854719 0.480544 -0.314551)
(-0.929733 0.480669 -0.343293)
(-1.00282 0.4822 -0.372957)
(-1.07419 0.484921 -0.403599)
(-1.14405 0.488655 -0.435278)
(-1.21258 0.493252 -0.468063)
(-1.27991 0.498578 -0.502021)
(-1.34618 0.504511 -0.537223)
(-1.41152 0.51093 -0.57374)
(-1.47604 0.517713 -0.611643)
(-1.53983 0.524734 -0.650997)
(-1.60296 0.531855 -0.691867)
(-1.6655 0.53893 -0.734309)
(-1.72748 0.545797 -0.778373)
(-1.78894 0.552285 -0.8241)
(-1.84982 0.5582 -0.87152)
(-1.91059 0.563365 -0.920651)
(-1.96753 0.567346 -0.971486)
(4.79413 0.368114 3.19521e-06)
(4.5586 0.967709 -2.48564e-05)
(4.15662 1.3173 -3.46189e-05)
(3.7495 1.59636 -1.02536e-05)
(3.31997 1.78685 -3.61944e-05)
(2.74946 1.8011 2.96686e-05)
(2.08503 1.59148 1.4732e-05)
(1.47472 1.27281 -0.00251623)
(1.03061 1.00715 -0.00958537)
(0.711966 0.837774 -0.0208534)
(0.468812 0.732036 -0.0350946)
(0.273481 0.660405 -0.051372)
(0.11044 0.607813 -0.0691163)
(-0.0298464 0.567247 -0.0880064)
(-0.15362 0.535312 -0.107866)
(-0.265194 0.510165 -0.128598)
(-0.367638 0.490604 -0.150149)
(-0.463163 0.475711 -0.172491)
(-0.553357 0.464722 -0.195609)
(-0.639359 0.456986 -0.219502)
(-0.721991 0.451953 -0.244179)
(-0.801855 0.449161 -0.269659)
(-0.879396 0.448234 -0.295971)
(-0.95496 0.448865 -0.323155)
(-1.02882 0.450802 -0.351258)
(-1.10119 0.45384 -0.380336)
(-1.17226 0.457809 -0.410449)
(-1.2422 0.46256 -0.441664)