/*--------------------------------*- C++ -*----------------------------------*\
| =========                 |                                                 |
| \\      /  F ield         | OpenFOAM: The Open Source CFD Toolbox           |
|  \\    /   O peration     | Version:  2.3.0                                 |
|   \\  /    A nd           | Web:      www.OpenFOAM.org                      |
|    \\/     M anipulation  |                                                 |
\*---------------------------------------------------------------------------*/
FoamFile
{
    version     2.0;
    format      ascii;
    class       volScalarField;
    location    "0";
    object      y;
}
// * * * * * * * * * * * * * * * * * * * * * * * * * * * * * * * * * * * * * //

dimensions      [0 1 0 0 0 0 0];

internalField   nonuniform List<scalar> 
26600
(
0.000565443
0.000579402
0.000593361
0.00060732
0.000621279
0.000635238
0.000649197
0.000663156
0.000677115
0.000691074
0.000705034
0.000718993
0.000732952
0.000746911
0.000760871
0.00077483
0.00078879
0.000802749
0.000816708
0.000830668
0.000844627
0.000858587
0.000872546
0.000886506
0.000900466
0.000914425
0.000928385
0.000942344
0.000956304
0.000970264
0.000984223
0.000998183
0.00101214
0.0010261
0.00104006
0.00105402
0.00106798
0.00108194
0.0010959
0.00110986
0.00189333
0.00194019
0.00198705
0.00203391
0.00208077
0.00212762
0.00217447
0.00222133
0.00226817
0.00231502
0.00236187
0.00240871
0.00245555
0.0025024
0.00254924
0.00259608
0.00264291
0.00268975
0.00273659
0.00278342
0.00283025
0.00287709
0.00292392
0.00297075
0.00301758
0.00306441
0.00311124
0.00315807
0.0032049
0.00325173
0.00326547
0.00329502
0.00332496
0.00335529
0.003386
0.00341707
0.0034485
0.00348027
0.00351239
0.00354483
0.003159
0.00323711
0.00327745
0.00332713
0.0033779
0.00342969
0.00348246
0.00353618
0.00359079
0.00364626
0.00370254
0.00375961
0.00381742
0.00387594
0.00393514
0.00399499
0.00405546
0.00411653
0.00417816
0.00424034
0.00430304
0.00436623
0.00442989
0.00449402
0.00455857
0.00462355
0.00468892
0.00475468
0.00482081
0.00488728
0.0049541
0.00502124
0.0050887
0.00515645
0.00522449
0.00529281
0.0053614
0.00543024
0.00549933
0.00556865
0.00442468
0.00415478
0.00424167
0.00432958
0.00441846
0.00450823
0.00459885
0.00469027
0.00478244
0.00487533
0.00496888
0.00506307
0.00515785
0.00525321
0.00534909
0.00544548
0.00554236
0.00563969
0.00573745
0.00583562
0.00593418
0.00603312
0.0061324
0.00623203
0.00633197
0.00643222
0.00653276
0.00663358
0.00673466
0.00683599
0.00693757
0.00703938
0.00714142
0.00724366
0.00734611
0.00744875
0.00755159
0.0076546
0.00775778
0.00786113
0.00569035
0.00524047
0.00536375
0.00548787
0.00561276
0.00573838
0.00586468
0.00599162
0.00611915
0.00624725
0.00637587
0.00650499
0.00663457
0.00676459
0.00689503
0.00702585
0.00715705
0.0072886
0.00742047
0.00755266
0.00768515
0.00781792
0.00795096
0.00808426
0.0082178
0.00835156
0.00848555
0.00861975
0.00875414
0.00888873
0.0090235
0.00910018
0.00921709
0.00933465
0.00945284
0.00957164
0.00969101
0.00981095
0.00993144
0.0100524
0.00695602
0.00640522
0.00656323
0.00672191
0.00688122
0.00704113
0.00720158
0.00736255
0.007524
0.0076859
0.00784822
0.00801093
0.00817402
0.00833747
0.00850124
0.00866532
0.0088297
0.00899435
0.0091011
0.00924408
0.00938803
0.00953291
0.00967867
0.00982527
0.00997267
0.0101208
0.0102698
0.0104194
0.0105697
0.0107206
0.0108722
0.0110243
0.0111771
0.0113303
0.0114841
0.0116384
0.0117932
0.0119485
0.0121042
0.0122603
0.00822168
0.00761282
0.00780448
0.0079967
0.00818945
0.00838268
0.00857637
0.00877049
0.008965
0.00910182
0.00927091
0.00944134
0.00961304
0.00978594
0.00995998
0.0101351
0.0103112
0.0104884
0.0106664
0.0108453
0.0110251
0.0112057
0.011387
0.011569
0.0117517
0.0119351
0.0121191
0.0123038
0.0124889
0.0126747
0.0128609
0.0130477
0.0132349
0.0134226
0.0136108
0.0137993
0.0139883
0.0141777
0.0143674
0.0145575
0.00948734
0.00884574
0.00902487
0.00921935
0.00941565
0.00961365
0.00981325
0.0100144
0.0102169
0.0104207
0.0106259
0.0108322
0.0110396
0.0112481
0.0114575
0.011668
0.0118793
0.0120914
0.0123044
0.0125181
0.0127326
0.0129477
0.0131635
0.01338
0.013597
0.0138145
0.0140327
0.0142513
0.0144704
0.01469
0.0149101
0.0151305
0.0152737
0.0154772
0.0156815
0.0158867
0.0160926
0.0162993
0.0165068
0.0167149
0.010753
0.0100947
0.0101498
0.0103804
0.0106127
0.0108465
0.0110817
0.0113183
0.0115562
0.0117952
0.0120353
0.0122765
0.0125187
0.0127618
0.0130058
0.0132506
0.0134962
0.0137425
0.0139896
0.0142373
0.0144856
0.0147346
0.0149841
0.0152341
0.0153963
0.0156276
0.0158599
0.0160932
0.0163276
0.0165629
0.016799
0.0170361
0.017274
0.0175126
0.0177521
0.0179922
0.0182331
0.0184747
0.0187169
0.0189597
0.0120186
0.0113544
0.0113188
0.0115847
0.0118521
0.0121208
0.0123908
0.012662
0.0129344
0.0132078
0.0134822
0.0137575
0.0140337
0.0143107
0.0145885
0.0148671
0.0151463
0.0153426
0.0156008
0.0158604
0.0161213
0.0163834
0.0166466
0.016911
0.0171765
0.0174429
0.0177103
0.0179786
0.0182479
0.0185179
0.0187888
0.0190604
0.0193328
0.0196059
0.0198797
0.0201541
0.0204291
0.0207048
0.020981
0.0212578
0.0132843
0.0126216
0.0125196
0.01282
0.0131218
0.0134248
0.0137289
0.0140341
0.0143404
0.0146475
0.0149556
0.0152645
0.0154788
0.0157651
0.016053
0.0163424
0.0166332
0.0169254
0.0172189
0.0175137
0.0178095
0.0181065
0.0184046
0.0187037
0.0190037
0.0193046
0.0196064
0.019909
0.0202124
0.0205166
0.0208215
0.0211271
0.0214334
0.0217403
0.0219345
0.0222257
0.0225179
0.0228111
0.0231053
0.0234003
0.0145499
0.0138943
0.0137438
0.0140782
0.0144138
0.0147505
0.0150883
0.0153435
0.0156562
0.015971
0.0162876
0.0166059
0.0169259
0.0172474
0.0175703
0.0178947
0.0182204
0.0185473
0.0188754
0.0192046
0.0195349
0.0198662
0.0201984
0.0205316
0.0208656
0.0212004
0.0215361
0.0218724
0.0220874
0.0224069
0.0227277
0.0230496
0.0233726
0.0236967
0.0240217
0.0243477
0.0246747
0.0250025
0.0253312
0.0256607
0.0158155
0.0151711
0.0149857
0.0152761
0.0156157
0.0159577
0.0163018
0.0166479
0.016996
0.0173459
0.0176975
0.0180507
0.0184054
0.0187615
0.019119
0.0194778
0.0198377
0.0201988
0.020561
0.0209241
0.0212883
0.0216534
0.0219077
0.0222544
0.0226025
0.022952
0.0233027
0.0236548
0.024008
0.0243624
0.0247178
0.0250743
0.0254318
0.0257903
0.0261496
0.0265099
0.026871
0.0272329
0.0275956
0.0279591
0.0170811
0.016451
0.0162413
0.016468
0.016843
0.0172201
0.0175992
0.0179803
0.0183631
0.0187476
0.0191337
0.0195212
0.0199102
0.0203004
0.0206919
0.0210846
0.0214784
0.0218732
0.0221436
0.0225192
0.0228963
0.023275
0.0236551
0.0240367
0.0244195
0.0248037
0.025189
0.0255755
0.025963
0.0263517
0.0267413
0.0271319
0.0275234
0.0279158
0.028309
0.0287031
0.0289511
0.0293307
0.0297114
0.0300932
0.0183467
0.0177334
0.0175076
0.0176841
0.0180939
0.0185057
0.0189193
0.0193348
0.0197519
0.0201705
0.0205906
0.0210121
0.0214349
0.0218589
0.0221578
0.0225613
0.0229667
0.0233737
0.0237825
0.0241928
0.0246047
0.0250179
0.0254325
0.0258484
0.0262655
0.0266838
0.0271033
0.0275237
0.0279452
0.0283677
0.0287911
0.0290638
0.0294719
0.0298813
0.030292
0.0307038
0.0311168
0.0315309
0.031946
0.0323622
0.0196123
0.0190177
0.0187824
0.0189197
0.0193638
0.0198099
0.0202576
0.0207071
0.0211581
0.0216105
0.0219502
0.0223805
0.022813
0.0232475
0.023684
0.0241223
0.0245623
0.0250039
0.0254471
0.0258918
0.0263379
0.0267853
0.0272339
0.0276838
0.0281348
0.0285869
0.02904
0.0293313
0.0297685
0.0302072
0.0306472
0.0310886
0.0315312
0.031975
0.03242
0.0328661
0.0333132
0.0337614
0.0342106
0.0346607
0.0208779
0.0203036
0.020064
0.0201711
0.0206493
0.0211292
0.0216108
0.0219782
0.0224365
0.0228972
0.0233603
0.0238255
0.0242927
0.0247618
0.0252328
0.0257054
0.0261797
0.0266555
0.0271328
0.0276114
0.0280914
0.0285726
0.0290549
0.0293738
0.0298395
0.0303067
0.0307755
0.0312458
0.0317174
0.0321904
0.0326647
0.0331403
0.033617
0.0340948
0.0345737
0.0350537
0.0355347
0.0360166
0.0364994
0.0367894
0.0221434
0.0215908
0.0213514
0.0214357
0.0219476
0.0223254
0.0228136
0.0233043
0.0237975
0.0242929
0.0247906
0.0252902
0.0257918
0.0262952
0.0268003
0.0273069
0.0278151
0.0283248
0.0288358
0.0291911
0.0296843
0.0301794
0.0306762
0.0311747
0.0316747
0.0321763
0.0326794
0.0331838
0.0336895
0.0341966
0.0347048
0.0352141
0.0357246
0.0362362
0.0365623
0.03706
0.037559
0.0380594
0.038561
0.0390638
0.023409
0.022879
0.0226434
0.0227112
0.0230799
0.0236002
0.0241231
0.0246484
0.0251761
0.0257059
0.0262378
0.0267716
0.0273072
0.0278444
0.0283833
0.0289237
0.0293039
0.0298258
0.0303497
0.0308756
0.0314033
0.0319327
0.0324638
0.0329965
0.0335307
0.0340663
0.0346032
0.0351415
0.035681
0.0362217
0.0365767
0.0371029
0.0376306
0.0381598
0.0386903
0.0392223
0.0397554
0.0402899
0.0408255
0.0413623
0.0246745
0.0241682
0.0239393
0.0239959
0.024336
0.0248908
0.0254481
0.0260078
0.0265696
0.0271335
0.0276993
0.0282669
0.0288362
0.0292478
0.0297977
0.0303499
0.0309043
0.0314606
0.0320189
0.032579
0.0331409
0.0337044
0.0342695
0.034836
0.035404
0.0359733
0.0365439
0.036918
0.0374737
0.0380311
0.03859
0.0391505
0.0397123
0.0402756
0.0408401
0.041406
0.041973
0.0425412
0.0431106
0.043681
0.02594
0.025458
0.0252386
0.0252884
0.0256059
0.026195
0.0267864
0.0273801
0.0279758
0.0285734
0.0290231
0.0296002
0.03018
0.0307621
0.0313465
0.0319331
0.0325217
0.0331122
0.0337046
0.0342986
0.0348944
0.0354916
0.0360904
0.036506
0.037089
0.0376738
0.0382604
0.0388486
0.0394386
0.04003
0.040623
0.0412174
0.0418131
0.0424101
0.0430084
0.0436079
0.0442086
0.0448103
0.0451758
0.0457652
0.0272054
0.0267486
0.0265406
0.0265875
0.0268878
0.0275108
0.0281361
0.0287634
0.0292341
0.0298405
0.0304496
0.0310613
0.0316754
0.0322919
0.0329105
0.0335311
0.0341537
0.0347781
0.0354043
0.036032
0.0366614
0.0370891
0.0377025
0.0383178
0.038935
0.0395539
0.0401746
0.0407969
0.0414207
0.042046
0.0426727
0.0433008
0.0439302
0.0445607
0.0449605
0.0455783
0.0461975
0.0468182
0.0474402
0.0480636
0.0284709
0.0280396
0.0278451
0.0278923
0.0281799
0.0288366
0.0293327
0.0299679
0.030606
0.0312468
0.0318903
0.0325363
0.0331846
0.033835
0.0344876
0.035142
0.0357983
0.0364564
0.0369183
0.0375597
0.0382032
0.0388488
0.0394963
0.0401457
0.0407969
0.0414498
0.0421043
0.0427603
0.0434178
0.0440767
0.044737
0.0451615
0.0458085
0.0464572
0.0471073
0.047759
0.0484122
0.0490667
0.0497225
0.0503796
0.0297362
0.0293311
0.0291517
0.029202
0.0294809
0.0299821
0.0306487
0.0313183
0.0319907
0.0326658
0.0333434
0.0340234
0.0347055
0.0353898
0.036076
0.0365773
0.0372459
0.037917
0.0385904
0.0392659
0.0399435
0.0406231
0.0413046
0.0419878
0.0426728
0.0433593
0.0440474
0.0447369
0.0451902
0.0458661
0.0465437
0.0472231
0.047904
0.0485865
0.0492705
0.0499559
0.0506427
0.0513308
0.0520201
0.0527107
0.0310016
0.030623
0.03046
0.0305159
0.0307897
0.0312755
0.0319764
0.0326803
0.0333868
0.0340959
0.0348073
0.0355211
0.0362369
0.036762
0.0374598
0.0381603
0.0388632
0.0395684
0.0402758
0.0409853
0.0416968
0.0424102
0.0431253
0.0438422
0.0445607
0.0450466
0.0457508
0.046457
0.0471651
0.0478749
0.0485864
0.0492995
0.0500142
0.0507303
0.0514479
0.0521668
0.0528871
0.0536086
0.0540545
0.0547645
0.0322669
0.0319152
0.0317699
0.0318336
0.0321053
0.0325795
0.0333146
0.0340524
0.0347928
0.0355356
0.0362807
0.036833
0.0375597
0.0382891
0.0390212
0.0397558
0.0404927
0.0412319
0.0419731
0.0427164
0.0434615
0.0442084
0.0447309
0.045463
0.0461973
0.0469335
0.0476718
0.0484118
0.0491537
0.0498972
0.0506424
0.0513891
0.0521373
0.0528869
0.0536378
0.0541122
0.0548514
0.0555921
0.0563344
0.0570782
0.0335321
0.0332077
0.0330811
0.0331546
0.0334268
0.0338929
0.0346619
0.0354334
0.0362075
0.0367902
0.0375453
0.0383033
0.0390642
0.0398278
0.0405939
0.0413624
0.0421331
0.0429059
0.0436808
0.0444576
0.0450032
0.0457649
0.0465288
0.047295
0.0480631
0.0488332
0.0496052
0.0503789
0.0511544
0.0519315
0.0527101
0.0534902
0.0539961
0.054764
0.0555337
0.056305
0.0570778
0.0578523
0.0586281
0.0594054
0.0347972
0.0345004
0.0343936
0.0344784
0.0347536
0.0352146
0.0360172
0.0366338
0.0374167
0.0382029
0.0389921
0.0397843
0.0405792
0.0413766
0.0421765
0.0429787
0.043783
0.0445894
0.0451608
0.0459518
0.0467451
0.0475408
0.0483386
0.0491385
0.0499404
0.0507442
0.0515497
0.0523569
0.0531658
0.0539762
0.0545026
0.0553007
0.0561006
0.0569023
0.0577056
0.0585105
0.0593169
0.0601247
0.060934
0.0617446
0.0360622
0.0357933
0.035707
0.0358048
0.0360851
0.0365437
0.0371741
0.0379879
0.038805
0.0396253
0.0404486
0.0412747
0.0421034
0.0429345
0.043768
0.0446037
0.0452035
0.0460234
0.0468459
0.0476708
0.048498
0.0493274
0.050159
0.0509925
0.0518279
0.0526651
0.053504
0.0540675
0.0548936
0.0557217
0.0565517
0.0573835
0.058217
0.0590522
0.059889
0.0607273
0.061567
0.0624082
0.0632507
0.0640945
0.0373271
0.0370862
0.0370213
0.0371333
0.0374206
0.0378793
0.0385032
0.0393512
0.0402024
0.0410566
0.0419137
0.0427735
0.0436358
0.0445004
0.0451312
0.0459796
0.0468309
0.0476847
0.048541
0.0493997
0.0502606
0.0511236
0.0519886
0.0528556
0.0537243
0.054313
0.0551688
0.0560266
0.0568864
0.0577481
0.0586116
0.0594769
0.0603439
0.0612124
0.0620825
0.0629541
0.063827
0.0643735
0.0652358
0.0660998
0.0385918
0.0383792
0.0383363
0.0384637
0.0387598
0.0392207
0.0398407
0.0407226
0.0416077
0.0424957
0.0433864
0.0442797
0.044944
0.0458205
0.0467001
0.0475825
0.0484676
0.0493552
0.0502452
0.0511374
0.0520318
0.0529283
0.0538266
0.0544425
0.0553276
0.0562149
0.0571043
0.0579957
0.0588891
0.0597843
0.0606812
0.0615799
0.0624801
0.0633819
0.0642851
0.0648545
0.065747
0.0666412
0.067537
0.0684343
0.0398563
0.0396721
0.0396518
0.0397958
0.0401021
0.0405673
0.0411857
0.0421014
0.0430202
0.0439417
0.0448659
0.0455463
0.0464538
0.0473643
0.0482777
0.0491939
0.0501126
0.0510338
0.0519573
0.052883
0.0538107
0.0544558
0.05537
0.0562865
0.0572053
0.0581261
0.0590491
0.059974
0.0609007
0.0618292
0.0627594
0.0636912
0.0642979
0.0652186
0.0661411
0.0670653
0.0679913
0.0689188
0.0698479
0.0707785
0.0411204
0.0409648
0.0409677
0.0411291
0.0414472
0.0419183
0.0425374
0.0434867
0.0444389
0.0451571
0.046092
0.0470302
0.0479716
0.0489159
0.0498631
0.0508128
0.0517651
0.0527197
0.0536765
0.0543528
0.0552957
0.0562412
0.057189
0.0581391
0.0590913
0.0600457
0.061002
0.0619601
0.0629201
0.0638818
0.064515
0.0654654
0.0664177
0.0673718
0.0683277
0.0692852
0.0702444
0.0712051
0.0721674
0.0731311
0.0423839
0.0422571
0.0422838
0.0424635
0.0427945
0.0432732
0.0438949
0.0448776
0.0456152
0.0465806
0.0475494
0.0485215
0.0494966
0.0504745
0.0514551
0.0524383
0.0534239
0.0541335
0.0551048
0.0560788
0.0570553
0.0580343
0.0590156
0.0599992
0.0609848
0.0619724
0.0629619
0.0639532
0.0646147
0.0655945
0.0665763
0.0675601
0.0685457
0.0695331
0.0705222
0.0715129
0.0725052
0.073499
0.0744943
0.0754909
0.0436467
0.0435488
0.0435996
0.0437985
0.0441435
0.0446313
0.0452573
0.0460157
0.0470114
0.0480107
0.0490132
0.0500189
0.0510275
0.0520389
0.0530529
0.0537978
0.054797
0.0557992
0.0568042
0.0578117
0.0588218
0.0598342
0.0608488
0.0618656
0.0628844
0.0639051
0.0645964
0.0656054
0.0666165
0.0676297
0.0686448
0.0696619
0.0706807
0.0717012
0.0727234
0.0737472
0.0747725
0.0757992
0.076441
0.0774582
0.0449082
0.0448393
0.0449146
0.0451333
0.0454935
0.0459917
0.0466236
0.0473837
0.0484132
0.0494461
0.0504822
0.0515213
0.0525633
0.053608
0.0543722
0.0554022
0.0564351
0.0574708
0.0585092
0.0595502
0.0605936
0.0616392
0.062687
0.0637369
0.0644596
0.0654975
0.0665376
0.0675799
0.0686243
0.0696707
0.070719
0.0717692
0.072821
0.0738746
0.0749297
0.0759863
0.0766555
0.0777025
0.0787512
0.0798015
0.0461673
0.0461274
0.0462276
0.0464668
0.0468429
0.0473527
0.047992
0.0487556
0.0498186
0.0508849
0.0519544
0.0530268
0.0538297
0.0548868
0.0559472
0.0570107
0.0580771
0.0591462
0.0602179
0.061292
0.0623685
0.0634472
0.0642029
0.0652693
0.0663381
0.0674093
0.0684826
0.0695581
0.0706356
0.0717151
0.0727964
0.0738794
0.0749641
0.0760505
0.0767483
0.0778248
0.0789031
0.0799831
0.0810648
0.082148
0.047421
0.0474102
0.0475354
0.0477956
0.0481885
0.048711
0.049359
0.0501275
0.0512238
0.0523233
0.0534258
0.0542507
0.0553379
0.0564285
0.0575222
0.058619
0.0597185
0.0608207
0.0619254
0.0630325
0.0641419
0.0649172
0.0660143
0.0671139
0.0682158
0.06932
0.0704263
0.0715347
0.0726451
0.0737573
0.0748713
0.075987
0.0767147
0.0778204
0.078928
0.0800374
0.0811485
0.0822613
0.0833757
0.0844916
0.0486586
0.0486766
0.0488269
0.0491083
0.0495186
0.0500546
0.0507123
0.0514871
0.0526161
0.0537483
0.0545961
0.0557129
0.0568331
0.0579566
0.0590831
0.0602126
0.0613448
0.0624795
0.0636167
0.0644276
0.0655521
0.0666794
0.0678091
0.0689413
0.0700758
0.0712125
0.0723513
0.0734921
0.0746347
0.0757792
0.076538
0.0776722
0.0788085
0.0799467
0.0810867
0.0822284
0.0833718
0.0845169
0.0856634
0.0868115
0.0497837
0.0498279
0.0500013
0.0503024
0.0507291
0.0512782
0.0519458
0.0527274
0.0538861
0.0547574
0.0559006
0.0570473
0.0581974
0.0593507
0.060507
0.0616661
0.0628278
0.0639921
0.0648239
0.0659755
0.0671298
0.0682867
0.0694461
0.0706079
0.0717719
0.072938
0.0741062
0.0752763
0.0764483
0.0772263
0.078388
0.0795518
0.0807176
0.0818852
0.0830545
0.0842256
0.0853983
0.0865726
0.0877484
0.0889256
0.00124475
0.00374462
0.00624447
0.00874432
0.0112442
0.013744
0.0162438
0.0187436
0.0212434
0.0237432
0.026243
0.0287427
0.0312424
0.0337422
0.0362419
0.0387415
0.0412412
0.0437408
0.0462403
0.0487399
0.0512393
0.0537388
0.0562381
0.0587374
0.0612366
0.0637357
0.0662346
0.0687334
0.0712319
0.0737302
0.0762281
0.0787255
0.0812222
0.083718
0.0862122
0.0887037
0.0911905
0.0936667
0.0961111
0.0983334
0.00124476
0.00374461
0.00624448
0.00874433
0.0112441
0.013744
0.0162438
0.0187436
0.0212434
0.0237432
0.026243
0.0287427
0.0312425
0.0337422
0.0362419
0.0387415
0.0412412
0.0437408
0.0462403
0.0487399
0.0512394
0.0537388
0.0562381
0.0587374
0.0612366
0.0637357
0.0662346
0.0687334
0.0712319
0.0737302
0.0762281
0.0787255
0.0812223
0.083718
0.0862121
0.0887037
0.0911905
0.0936667
0.0961111
0.0983334
0.00124475
0.00374462
0.00624447
0.00874432
0.0112442
0.013744
0.0162438
0.0187436
0.0212434
0.0237432
0.026243
0.0287427
0.0312425
0.0337422
0.0362419
0.0387415
0.0412412
0.0437408
0.0462403
0.0487399
0.0512393
0.0537388
0.0562381
0.0587374
0.0612366
0.0637357
0.0662346
0.0687334
0.0712319
0.0737302
0.0762281
0.0787255
0.0812223
0.083718
0.0862122
0.0887037
0.0911905
0.0936667
0.0961111
0.0983334
0.00124475
0.00374462
0.00624447
0.00874432
0.0112442
0.013744
0.0162438
0.0187436
0.0212434
0.0237432
0.026243
0.0287427
0.0312425
0.0337422
0.0362419
0.0387415
0.0412412
0.0437408
0.0462403
0.0487399
0.0512393
0.0537388
0.0562381
0.0587374
0.0612366
0.0637357
0.0662346
0.0687334
0.0712319
0.0737302
0.0762281
0.0787255
0.0812223
0.083718
0.0862122
0.0887037
0.0911905
0.0936667
0.0961111
0.0983334
0.00124476
0.00374461
0.00624448
0.00874433
0.0112442
0.013744
0.0162438
0.0187436
0.0212434
0.0237432
0.026243
0.0287427
0.0312425
0.0337422
0.0362419
0.0387415
0.0412412
0.0437408
0.0462404
0.0487399
0.0512394
0.0537388
0.0562381
0.0587374
0.0612366
0.0637357
0.0662346
0.0687334
0.0712319
0.0737302
0.0762281
0.0787255
0.0812223
0.083718
0.0862122
0.0887038
0.0911905
0.0936667
0.0961112
0.0983334
0.00124475
0.00374462
0.00624447
0.00874432
0.0112442
0.013744
0.0162438
0.0187436
0.0212434
0.0237432
0.026243
0.0287427
0.0312425
0.0337422
0.0362419
0.0387415
0.0412412
0.0437408
0.0462403
0.0487399
0.0512394
0.0537388
0.0562381
0.0587374
0.0612366
0.0637357
0.0662346
0.0687334
0.0712319
0.0737302
0.0762281
0.0787255
0.0812223
0.083718
0.0862122
0.0887038
0.0911905
0.0936667
0.0961112
0.0983334
0.00124475
0.00374462
0.00624447
0.00874432
0.0112442
0.013744
0.0162438
0.0187436
0.0212434
0.0237432
0.026243
0.0287427
0.0312425
0.0337422
0.0362419
0.0387415
0.0412412
0.0437408
0.0462404
0.0487399
0.0512394
0.0537388
0.0562381
0.0587374
0.0612366
0.0637357
0.0662346
0.0687334
0.0712319
0.0737302
0.0762281
0.0787256
0.0812223
0.083718
0.0862122
0.0887038
0.0911905
0.0936667
0.0961112
0.0983334
0.00124476
0.00374461
0.00624448
0.00874433
0.0112442
0.013744
0.0162438
0.0187436
0.0212434
0.0237432
0.026243
0.0287427
0.0312425
0.0337422
0.0362419
0.0387415
0.0412412
0.0437408
0.0462404
0.0487399
0.0512394
0.0537388
0.0562381
0.0587374
0.0612366
0.0637357
0.0662346
0.0687334
0.0712319
0.0737302
0.0762281
0.0787255
0.0812223
0.083718
0.0862122
0.0887038
0.0911906
0.0936667
0.0961112
0.0983334
0.00124475
0.00374462
0.00624447
0.00874432
0.0112442
0.013744
0.0162438
0.0187436
0.0212434
0.0237432
0.026243
0.0287427
0.0312425
0.0337422
0.0362419
0.0387415
0.0412412
0.0437408
0.0462404
0.0487399
0.0512394
0.0537388
0.0562382
0.0587374
0.0612366
0.0637357
0.0662346
0.0687334
0.071232
0.0737302
0.0762281
0.0787256
0.0812223
0.083718
0.0862122
0.0887038
0.0911906
0.0936668
0.0961112
0.0983334
0.00124475
0.00374463
0.00624447
0.00874432
0.0112442
0.013744
0.0162438
0.0187436
0.0212434
0.0237432
0.026243
0.0287427
0.0312425
0.0337422
0.0362419
0.0387416
0.0412412
0.0437408
0.0462404
0.0487399
0.0512394
0.0537388
0.0562382
0.0587374
0.0612366
0.0637357
0.0662346
0.0687334
0.071232
0.0737302
0.0762282
0.0787256
0.0812223
0.083718
0.0862122
0.0887038
0.0911906
0.0936668
0.0961112
0.0983334
0.00124476
0.00374461
0.00624448
0.00874433
0.0112442
0.013744
0.0162438
0.0187436
0.0212434
0.0237432
0.026243
0.0287428
0.0312425
0.0337422
0.0362419
0.0387416
0.0412412
0.0437408
0.0462404
0.0487399
0.0512394
0.0537388
0.0562382
0.0587375
0.0612367
0.0637357
0.0662347
0.0687334
0.071232
0.0737303
0.0762282
0.0787256
0.0812223
0.0837181
0.0862122
0.0887038
0.0911906
0.0936668
0.0961112
0.0983335
0.00124475
0.00374463
0.00624448
0.00874433
0.0112442
0.013744
0.0162438
0.0187436
0.0212434
0.0237432
0.026243
0.0287427
0.0312425
0.0337422
0.0362419
0.0387416
0.0412412
0.0437408
0.0462404
0.0487399
0.0512394
0.0537388
0.0562382
0.0587375
0.0612367
0.0637357
0.0662347
0.0687334
0.071232
0.0737303
0.0762282
0.0787256
0.0812223
0.0837181
0.0862123
0.0887038
0.0911906
0.0936668
0.0961112
0.0983335
0.00124475
0.00374463
0.00624448
0.00874433
0.0112442
0.013744
0.0162438
0.0187436
0.0212434
0.0237432
0.026243
0.0287428
0.0312425
0.0337422
0.0362419
0.0387416
0.0412412
0.0437408
0.0462404
0.0487399
0.0512394
0.0537388
0.0562382
0.0587375
0.0612367
0.0637358
0.0662347
0.0687335
0.071232
0.0737303
0.0762282
0.0787256
0.0812224
0.0837181
0.0862123
0.0887039
0.0911906
0.0936668
0.0961113
0.0983335
0.00124476
0.00374461
0.00624449
0.00874434
0.0112442
0.013744
0.0162438
0.0187436
0.0212435
0.0237432
0.026243
0.0287428
0.0312425
0.0337422
0.0362419
0.0387416
0.0412412
0.0437408
0.0462404
0.0487399
0.0512394
0.0537389
0.0562382
0.0587375
0.0612367
0.0637358
0.0662347
0.0687335
0.071232
0.0737303
0.0762282
0.0787256
0.0812224
0.0837181
0.0862123
0.0887039
0.0911907
0.0936668
0.0961113
0.0983335
0.00124475
0.00374463
0.00624448
0.00874433
0.0112442
0.013744
0.0162438
0.0187437
0.0212435
0.0237432
0.026243
0.0287428
0.0312425
0.0337422
0.0362419
0.0387416
0.0412412
0.0437408
0.0462404
0.04874
0.0512394
0.0537389
0.0562382
0.0587375
0.0612367
0.0637358
0.0662347
0.0687335
0.0712321
0.0737303
0.0762282
0.0787257
0.0812224
0.0837181
0.0862123
0.0887039
0.0911907
0.0936669
0.0961113
0.0983335
0.00124475
0.00374463
0.00624448
0.00874434
0.0112442
0.013744
0.0162438
0.0187437
0.0212435
0.0237432
0.026243
0.0287428
0.0312425
0.0337422
0.0362419
0.0387416
0.0412413
0.0437409
0.0462404
0.04874
0.0512395
0.0537389
0.0562382
0.0587375
0.0612367
0.0637358
0.0662347
0.0687335
0.0712321
0.0737303
0.0762283
0.0787257
0.0812224
0.0837182
0.0862123
0.0887039
0.0911907
0.0936669
0.0961113
0.0983336
0.00124476
0.00374461
0.00624449
0.00874435
0.0112442
0.013744
0.0162439
0.0187437
0.0212435
0.0237433
0.026243
0.0287428
0.0312425
0.0337422
0.036242
0.0387416
0.0412413
0.0437409
0.0462405
0.04874
0.0512395
0.0537389
0.0562382
0.0587375
0.0612367
0.0637358
0.0662348
0.0687335
0.0712321
0.0737304
0.0762283
0.0787257
0.0812225
0.0837182
0.0862123
0.088704
0.0911907
0.0936669
0.0961114
0.0983336
0.00124475
0.00374463
0.00624449
0.00874434
0.0112442
0.013744
0.0162439
0.0187437
0.0212435
0.0237433
0.026243
0.0287428
0.0312425
0.0337423
0.036242
0.0387416
0.0412413
0.0437409
0.0462405
0.04874
0.0512395
0.0537389
0.0562383
0.0587376
0.0612368
0.0637358
0.0662348
0.0687335
0.0712321
0.0737304
0.0762283
0.0787257
0.0812225
0.0837182
0.0862124
0.088704
0.0911907
0.093667
0.0961114
0.0983336
0.00124475
0.00374463
0.00624449
0.00874434
0.0112442
0.013744
0.0162439
0.0187437
0.0212435
0.0237433
0.0262431
0.0287428
0.0312425
0.0337423
0.036242
0.0387416
0.0412413
0.0437409
0.0462405
0.04874
0.0512395
0.0537389
0.0562383
0.0587376
0.0612368
0.0637359
0.0662348
0.0687336
0.0712321
0.0737304
0.0762283
0.0787258
0.0812225
0.0837182
0.0862124
0.088704
0.0911908
0.093667
0.0961114
0.0983336
0.00124476
0.00374462
0.0062445
0.00874436
0.0112442
0.013744
0.0162439
0.0187437
0.0212435
0.0237433
0.026243
0.0287428
0.0312426
0.0337423
0.036242
0.0387417
0.0412413
0.0437409
0.0462405
0.04874
0.0512395
0.053739
0.0562383
0.0587376
0.0612368
0.0637359
0.0662348
0.0687336
0.0712321
0.0737304
0.0762284
0.0787258
0.0812225
0.0837183
0.0862124
0.088704
0.0911908
0.093667
0.0961115
0.0983337
0.00124475
0.00374464
0.00624449
0.00874435
0.0112442
0.013744
0.0162439
0.0187437
0.0212435
0.0237433
0.0262431
0.0287428
0.0312426
0.0337423
0.036242
0.0387417
0.0412413
0.0437409
0.0462405
0.0487401
0.0512395
0.053739
0.0562383
0.0587376
0.0612368
0.0637359
0.0662348
0.0687336
0.0712322
0.0737305
0.0762284
0.0787258
0.0812226
0.0837183
0.0862125
0.0887041
0.0911908
0.093667
0.0961115
0.0983337
0.00124475
0.00374464
0.0062445
0.00874435
0.0112442
0.013744
0.0162439
0.0187437
0.0212435
0.0237433
0.0262431
0.0287428
0.0312426
0.0337423
0.036242
0.0387417
0.0412413
0.0437409
0.0462405
0.0487401
0.0512396
0.053739
0.0562384
0.0587376
0.0612368
0.0637359
0.0662349
0.0687336
0.0712322
0.0737305
0.0762284
0.0787258
0.0812226
0.0837183
0.0862125
0.0887041
0.0911909
0.0936671
0.0961115
0.0983338
0.00124476
0.00374462
0.00624451
0.00874436
0.0112442
0.0137441
0.0162439
0.0187437
0.0212435
0.0237433
0.0262431
0.0287429
0.0312426
0.0337423
0.036242
0.0387417
0.0412413
0.043741
0.0462406
0.0487401
0.0512396
0.053739
0.0562384
0.0587377
0.0612369
0.0637359
0.0662349
0.0687337
0.0712322
0.0737305
0.0762284
0.0787259
0.0812226
0.0837184
0.0862125
0.0887041
0.0911909
0.0936671
0.0961116
0.0983338
0.00124475
0.00374464
0.0062445
0.00874436
0.0112442
0.0137441
0.0162439
0.0187437
0.0212435
0.0237433
0.0262431
0.0287429
0.0312426
0.0337423
0.036242
0.0387417
0.0412414
0.043741
0.0462406
0.0487401
0.0512396
0.053739
0.0562384
0.0587377
0.0612369
0.063736
0.0662349
0.0687337
0.0712323
0.0737305
0.0762285
0.0787259
0.0812226
0.0837184
0.0862126
0.0887042
0.0911909
0.0936672
0.0961116
0.0983338
0.00124475
0.00374464
0.0062445
0.00874436
0.0112442
0.0137441
0.0162439
0.0187437
0.0212435
0.0237433
0.0262431
0.0287429
0.0312426
0.0337424
0.036242
0.0387417
0.0412414
0.043741
0.0462406
0.0487401
0.0512396
0.0537391
0.0562384
0.0587377
0.0612369
0.063736
0.0662349
0.0687337
0.0712323
0.0737306
0.0762285
0.0787259
0.0812227
0.0837184
0.0862126
0.0887042
0.091191
0.0936672
0.0961116
0.0983339
0.00124476
0.00374463
0.00624451
0.00874438
0.0112442
0.0137441
0.0162439
0.0187437
0.0212435
0.0237433
0.0262431
0.0287429
0.0312426
0.0337424
0.0362421
0.0387418
0.0412414
0.043741
0.0462406
0.0487401
0.0512396
0.0537391
0.0562384
0.0587377
0.0612369
0.063736
0.066235
0.0687338
0.0712323
0.0737306
0.0762285
0.078726
0.0812227
0.0837185
0.0862126
0.0887042
0.091191
0.0936672
0.0961117
0.0983339
0.00124475
0.00374465
0.00624451
0.00874437
0.0112442
0.0137441
0.0162439
0.0187437
0.0212435
0.0237433
0.0262431
0.0287429
0.0312426
0.0337424
0.0362421
0.0387418
0.0412414
0.043741
0.0462406
0.0487402
0.0512397
0.0537391
0.0562385
0.0587378
0.061237
0.0637361
0.066235
0.0687338
0.0712324
0.0737306
0.0762286
0.078726
0.0812228
0.0837185
0.0862127
0.0887043
0.0911911
0.0936673
0.0961117
0.098334
0.00124475
0.00374465
0.00624451
0.00874438
0.0112442
0.0137441
0.0162439
0.0187437
0.0212436
0.0237434
0.0262431
0.0287429
0.0312427
0.0337424
0.0362421
0.0387418
0.0412414
0.0437411
0.0462406
0.0487402
0.0512397
0.0537391
0.0562385
0.0587378
0.061237
0.0637361
0.066235
0.0687338
0.0712324
0.0737307
0.0762286
0.0787261
0.0812228
0.0837185
0.0862127
0.0887043
0.0911911
0.0936673
0.0961118
0.098334
0.00124476
0.00374463
0.00624452
0.00874439
0.0112442
0.0137441
0.0162439
0.0187437
0.0212436
0.0237434
0.0262431
0.0287429
0.0312427
0.0337424
0.0362421
0.0387418
0.0412414
0.0437411
0.0462407
0.0487402
0.0512397
0.0537392
0.0562385
0.0587378
0.061237
0.0637361
0.0662351
0.0687339
0.0712324
0.0737307
0.0762287
0.0787261
0.0812228
0.0837186
0.0862128
0.0887044
0.0911912
0.0936674
0.0961118
0.0983341
0.00124475
0.00374465
0.00624452
0.00874438
0.0112443
0.0137441
0.0162439
0.0187438
0.0212436
0.0237434
0.0262432
0.0287429
0.0312427
0.0337424
0.0362421
0.0387418
0.0412415
0.0437411
0.0462407
0.0487402
0.0512397
0.0537392
0.0562386
0.0587379
0.0612371
0.0637362
0.0662351
0.0687339
0.0712325
0.0737308
0.0762287
0.0787261
0.0812229
0.0837186
0.0862128
0.0887044
0.0911912
0.0936674
0.0961119
0.0983341
0.00124475
0.00374465
0.00624452
0.00874439
0.0112443
0.0137441
0.0162439
0.0187438
0.0212436
0.0237434
0.0262432
0.028743
0.0312427
0.0337425
0.0362422
0.0387418
0.0412415
0.0437411
0.0462407
0.0487403
0.0512398
0.0537392
0.0562386
0.0587379
0.0612371
0.0637362
0.0662351
0.0687339
0.0712325
0.0737308
0.0762287
0.0787262
0.0812229
0.0837187
0.0862129
0.0887045
0.0911913
0.0936675
0.0961119
0.0983342
0.00124476
0.00374464
0.00624453
0.0087444
0.0112442
0.0137441
0.016244
0.0187438
0.0212436
0.0237434
0.0262432
0.028743
0.0312427
0.0337425
0.0362422
0.0387419
0.0412415
0.0437412
0.0462408
0.0487403
0.0512398
0.0537392
0.0562386
0.0587379
0.0612371
0.0637362
0.0662352
0.068734
0.0712325
0.0737308
0.0762288
0.0787262
0.081223
0.0837187
0.0862129
0.0887045
0.0911913
0.0936675
0.096112
0.0983342
0.00124475
0.00374466
0.00624453
0.0087444
0.0112443
0.0137441
0.016244
0.0187438
0.0212436
0.0237434
0.0262432
0.028743
0.0312427
0.0337425
0.0362422
0.0387419
0.0412416
0.0437412
0.0462408
0.0487403
0.0512398
0.0537393
0.0562387