/*--------------------------------*- C++ -*----------------------------------*\
| =========                 |                                                 |
| \\      /  F ield         | OpenFOAM: The Open Source CFD Toolbox           |
|  \\    /   O peration     | Version:  2.3.0                                 |
|   \\  /    A nd           | Web:      www.OpenFOAM.org                      |
|    \\/     M anipulation  |                                                 |
\*---------------------------------------------------------------------------*/
FoamFile
{
    version     2.0;
    format      ascii;
    class       volVectorField;
    location    "9600/topAir";
    object      U;
}
// * * * * * * * * * * * * * * * * * * * * * * * * * * * * * * * * * * * * * //

dimensions      [0 1 -1 0 0 0 0];

internalField   nonuniform List<vector> 
4000
(
(11.81566 0.003208261 0)
(8.845318 0.003382655 0)
(7.645958 0.002828012 0)
(7.961942 0.002773912 0)
(8.080391 0.002827952 0)
(8.043488 0.002847564 0)
(8.02845 0.002863681 0)
(8.029284 0.002885418 0)
(8.027676 0.002906821 0)
(8.02442 0.00292598 0)
(8.021413 0.002943216 0)
(8.018558 0.002958716 0)
(8.015662 0.002972564 0)
(8.01274 0.002984914 0)
(8.009812 0.002995934 0)
(8.006879 0.003005777 0)
(8.00394 0.003014579 0)
(8.000995 0.003022458 0)
(7.998046 0.003029516 0)
(7.995094 0.003035843 0)
(7.992138 0.003041517 0)
(7.989179 0.003046606 0)
(7.986219 0.003051167 0)
(7.983256 0.003055252 0)
(7.980292 0.003058906 0)
(7.977326 0.003062167 0)
(7.97436 0.003065072 0)
(7.971392 0.00306765 0)
(7.968424 0.00306993 0)
(7.965455 0.003071934 0)
(7.962486 0.003073685 0)
(7.959516 0.003075203 0)
(7.956547 0.003076504 0)
(7.953577 0.003077604 0)
(7.950608 0.003078518 0)
(7.947639 0.003079258 0)
(7.94467 0.003079837 0)
(7.941702 0.003080263 0)
(7.938734 0.003080547 0)
(7.935767 0.003080698 0)
(7.9328 0.003080724 0)
(7.929834 0.00308063 0)
(7.926868 0.003080425 0)
(7.923904 0.003080114 0)
(7.92094 0.003079701 0)
(7.917977 0.003079193 0)
(7.915015 0.003078594 0)
(7.912054 0.003077907 0)
(7.909094 0.003077137 0)
(7.906135 0.003076285 0)
(7.903177 0.003075356 0)
(7.90022 0.003074352 0)
(7.897265 0.003073274 0)
(7.89431 0.003072126 0)
(7.891357 0.003070907 0)
(7.888406 0.00306962 0)
(7.885455 0.003068266 0)
(7.882507 0.003066844 0)
(7.879559 0.003065356 0)
(7.876613 0.003063801 0)
(7.873669 0.003062179 0)
(7.870727 0.003060489 0)
(7.867786 0.00305873 0)
(7.864847 0.0030569 0)
(7.86191 0.003054997 0)
(7.858975 0.003053019 0)
(7.856043 0.003050962 0)
(7.853112 0.003048823 0)
(7.850184 0.003046597 0)
(7.847258 0.003044279 0)
(7.844335 0.003041862 0)
(7.841414 0.003039339 0)
(7.838497 0.003036701 0)
(7.835583 0.003033939 0)
(7.832672 0.003031039 0)
(7.829764 0.003027989 0)
(7.826861 0.00302477 0)
(7.823962 0.003021364 0)
(7.821067 0.003017746 0)
(7.818178 0.003013888 0)
(7.815293 0.003009755 0)
(7.812415 0.003005304 0)
(7.809544 0.003000483 0)
(7.80668 0.002995227 0)
(7.803825 0.002989452 0)
(7.800979 0.002983053 0)
(7.798144 0.00297589 0)
(7.795321 0.002967778 0)
(7.792513 0.002958465 0)
(7.789722 0.002947594 0)
(7.786952 0.002934641 0)
(7.784208 0.002918807 0)
(7.781495 0.0028988 0)
(7.778823 0.002872387 0)
(7.776207 0.002835514 0)
(7.773668 0.002780021 0)
(7.771248 0.002690016 0)
(7.769001 0.002525338 0)
(7.767146 0.002221762 0)
(7.765586 0.001491089 0)
(11.8231 0.002776859 0)
(8.855347 0.003680269 0)
(7.660263 0.003310711 0)
(7.979157 0.003270586 0)
(8.100527 0.00338163 0)
(8.066784 0.003440184 0)
(8.054867 0.003471972 0)
(8.058771 0.003500879 0)
(8.060232 0.003524829 0)
(8.060048 0.00354281 0)
(8.060109 0.003556481 0)
(8.060319 0.003567038 0)
(8.060485 0.003575141 0)
(8.060622 0.003581311 0)
(8.060752 0.003585972 0)
(8.060873 0.003589444 0)
(8.060985 0.003591973 0)
(8.06109 0.003593746 0)
(8.061187 0.003594911 0)
(8.061278 0.003595583 0)
(8.061363 0.003595855 0)
(8.061443 0.0035958 0)
(8.061517 0.003595476 0)
(8.061587 0.003594931 0)
(8.061653 0.003594204 0)
(8.061714 0.003593327 0)
(8.061771 0.003592326 0)
(8.061825 0.003591222 0)
(8.061875 0.003590034 0)
(8.061922 0.003588776 0)
(8.061966 0.003587461 0)
(8.062006 0.003586099 0)
(8.062044 0.003584699 0)
(8.062079 0.003583268 0)
(8.062111 0.003581812 0)
(8.062141 0.003580336 0)
(8.062168 0.003578844 0)
(8.062192 0.003577338 0)
(8.062214 0.003575823 0)
(8.062234 0.003574298 0)
(8.062252 0.003572767 0)
(8.062267 0.003571229 0)
(8.062281 0.003569686 0)
(8.062292 0.003568136 0)
(8.062301 0.003566581 0)
(8.062309 0.003565018 0)
(8.062314 0.003563448 0)
(8.062318 0.003561868 0)
(8.06232 0.003560278 0)
(8.06232 0.003558674 0)
(8.062318 0.003557055 0)
(8.062315 0.003555417 0)
(8.06231 0.003553758 0)
(8.062303 0.003552074 0)
(8.062295 0.003550362 0)
(8.062286 0.003548615 0)
(8.062275 0.003546831 0)
(8.062263 0.003545003 0)
(8.062249 0.003543125 0)
(8.062235 0.003541191 0)
(8.062219 0.003539194 0)
(8.062202 0.003537124 0)
(8.062183 0.003534974 0)
(8.062164 0.003532732 0)
(8.062144 0.003530389 0)
(8.062124 0.00352793 0)
(8.062102 0.003525342 0)
(8.06208 0.00352261 0)
(8.062058 0.003519715 0)
(8.062035 0.003516638 0)
(8.062012 0.003513355 0)
(8.061989 0.00350984 0)
(8.061967 0.003506064 0)
(8.061944 0.003501993 0)
(8.061922 0.003497587 0)
(8.061901 0.0034928 0)
(8.061882 0.003487579 0)
(8.061863 0.003481861 0)
(8.061846 0.003475571 0)
(8.061832 0.003468621 0)
(8.06182 0.003460903 0)
(8.061811 0.003452288 0)
(8.061807 0.003442617 0)
(8.061806 0.00343169 0)
(8.061812 0.003419261 0)
(8.061823 0.003405012 0)
(8.061843 0.003388531 0)
(8.061872 0.003369277 0)
(8.061912 0.003346518 0)
(8.061966 0.003319245 0)
(8.062037 0.003286022 0)
(8.062128 0.003244749 0)
(8.062245 0.003192235 0)
(8.062395 0.003123419 0)
(8.062586 0.003029985 0)
(8.062828 0.002897266 0)
(8.063134 0.002699773 0)
(8.063513 0.002383085 0)
(8.063943 0.001866442 0)
(8.064414 0.0008474643 0)
(11.82073 9.234791e-05 0)
(8.85289 0.001150546 0)
(7.657082 0.001588962 0)
(7.976074 0.001834121 0)
(8.097482 0.002063753 0)
(8.063693 0.002230635 0)
(8.051762 0.002348954 0)
(8.055675 0.002442615 0)
(8.057151 0.002519056 0)
(8.056985 0.002581794 0)
(8.057068 0.002634304 0)
(8.057303 0.002679085 0)
(8.057498 0.002717774 0)
(8.057666 0.00275156 0)
(8.057829 0.002781347 0)
(8.057986 0.002807825 0)
(8.058135 0.002831529 0)
(8.058279 0.002852881 0)
(8.058418 0.00287222 0)
(8.058552 0.002889821 0)
(8.058682 0.00290591 0)
(8.058809 0.002920675 0)
(8.058932 0.002934273 0)
(8.059052 0.002946837 0)
(8.05917 0.002958481 0)
(8.059285 0.002969301 0)
(8.059398 0.002979382 0)
(8.05951 0.002988795 0)
(8.059619 0.002997604 0)
(8.059727 0.003005863 0)
(8.059834 0.003013623 0)
(8.059939 0.003020925 0)
(8.060043 0.003027806 0)
(8.060146 0.003034302 0)
(8.060248 0.00304044 0)
(8.060349 0.003046248 0)
(8.060449 0.003051749 0)
(8.060549 0.003056964 0)
(8.060647 0.003061912 0)
(8.060746 0.003066609 0)
(8.060844 0.00307107 0)
(8.060941 0.003075308 0)
(8.061038 0.003079335 0)
(8.061135 0.00308316 0)
(8.061231 0.003086793 0)
(8.061327 0.003090241 0)
(8.061423 0.003093511 0)
(8.061518 0.003096608 0)
(8.061614 0.003099536 0)
(8.061709 0.003102299 0)
(8.061805 0.003104899 0)
(8.0619 0.003107337 0)
(8.061996 0.003109615 0)
(8.062091 0.003111731 0)
(8.062187 0.003113684 0)
(8.062283 0.003115472 0)
(8.062379 0.003117091 0)
(8.062475 0.003118536 0)
(8.062572 0.003119802 0)
(8.062669 0.003120881 0)
(8.062766 0.003121765 0)
(8.062864 0.003122443 0)
(8.062963 0.003122905 0)
(8.063062 0.003123136 0)
(8.063162 0.003123122 0)
(8.063262 0.003122844 0)
(8.063364 0.003122281 0)
(8.063466 0.003121411 0)
(8.06357 0.003120208 0)
(8.063675 0.003118639 0)
(8.063781 0.00311667 0)
(8.063888 0.003114262 0)
(8.063997 0.003111367 0)
(8.064109 0.003107931 0)
(8.064222 0.003103893 0)
(8.064337 0.00309918 0)
(8.064455 0.003093706 0)
(8.064575 0.003087373 0)
(8.064699 0.00308006 0)
(8.064826 0.003071627 0)
(8.064957 0.003061904 0)
(8.065093 0.003050684 0)
(8.065233 0.003037715 0)
(8.06538 0.003022685 0)
(8.065532 0.003005204 0)
(8.065692 0.002984779 0)
(8.06586 0.002960776 0)
(8.066037 0.002932368 0)
(8.066226 0.002898459 0)
(8.066428 0.002857569 0)
(8.066645 0.002807654 0)
(8.06688 0.002745841 0)
(8.067136 0.002668001 0)
(8.067417 0.00256808 0)
(8.067727 0.002437086 0)
(8.06807 0.002261456 0)
(8.068446 0.002021266 0)
(8.068852 0.001686788 0)
(8.06925 0.001222246 0)
(8.069628 0.000587142 0)
(11.82175 0.0009084557 0)
(8.853771 0.001791817 0)
(7.657505 0.002186038 0)
(7.976306 0.002387826 0)
(8.097653 0.002572603 0)
(8.063802 0.002721124 0)
(8.051823 0.002830798 0)
(8.055705 0.002917268 0)
(8.057157 0.002988001 0)
(8.056972 0.003045988 0)
(8.057039 0.003093891 0)
(8.057261 0.003133896 0)
(8.057444 0.00316757 0)
(8.057602 0.003196085 0)
(8.057756 0.003220365 0)
(8.057905 0.003241139 0)
(8.058048 0.003258988 0)
(8.058185 0.003274375 0)
(8.058318 0.003287682 0)
(8.058447 0.003299215 0)
(8.058572 0.003309231 0)
(8.058694 0.003317941 0)
(8.058814 0.003325521 0)
(8.05893 0.00333212 0)
(8.059044 0.003337864 0)
(8.059156 0.003342857 0)
(8.059266 0.003347193 0)
(8.059374 0.003350947 0)
(8.059481 0.003354187 0)
(8.059586 0.00335697 0)
(8.05969 0.003359347 0)
(8.059793 0.00336136 0)
(8.059895 0.003363048 0)
(8.059995 0.003364443 0)
(8.060095 0.003365573 0)
(8.060194 0.003366464 0)
(8.060293 0.003367137 0)
(8.060391 0.003367612 0)
(8.060488 0.003367903 0)
(8.060585 0.003368027 0)
(8.060681 0.003367995 0)
(8.060777 0.003367816 0)
(8.060873 0.003367501 0)
(8.060969 0.003367056 0)
(8.061064 0.003366487 0)
(8.061159 0.003365799 0)
(8.061254 0.003364995 0)
(8.061348 0.003364078 0)
(8.061443 0.003363047 0)
(8.061538 0.003361904 0)
(8.061633 0.003360648 0)
(8.061728 0.003359275 0)
(8.061823 0.003357783 0)
(8.061918 0.003356167 0)
(8.062013 0.003354422 0)
(8.062109 0.003352542 0)
(8.062204 0.003350517 0)
(8.062301 0.003348339 0)
(8.062397 0.003345996 0)
(8.062494 0.003343477 0)
(8.062592 0.003340767 0)
(8.06269 0.00333785 0)
(8.062788 0.003334708 0)
(8.062888 0.00333132 0)
(8.062988 0.003327664 0)
(8.063089 0.003323712 0)
(8.063191 0.003319435 0)
(8.063294 0.0033148 0)
(8.063398 0.003309769 0)
(8.063503 0.003304298 0)
(8.06361 0.00329834 0)
(8.063718 0.003291838 0)
(8.063828 0.003284728 0)
(8.063939 0.003276936 0)
(8.064053 0.003268379 0)
(8.064169 0.003258957 0)
(8.064288 0.003248557 0)
(8.064409 0.003237043 0)
(8.064533 0.003224259 0)
(8.064661 0.003210017 0)
(8.064792 0.003194092 0)
(8.064928 0.003176215 0)
(8.065068 0.003156059 0)
(8.065214 0.00313322 0)
(8.065365 0.003107204 0)
(8.065524 0.003077387 0)
(8.06569 0.003042982 0)
(8.065864 0.003002981 0)
(8.066048 0.002956072 0)
(8.066244 0.002900533 0)
(8.066452 0.002834062 0)
(8.066674 0.002753548 0)
(8.066912 0.002654734 0)
(8.067168 0.002531739 0)
(8.067441 0.002376417 0)
(8.067731 0.002177513 0)
(8.06803 0.001919934 0)
(8.068329 0.001584258 0)
(8.068588 0.001149308 0)
(8.068812 0.0006043482 0)
(11.8217 0.0004679956 0)
(8.853634 0.0009688879 0)
(7.657188 0.001273061 0)
(7.975967 0.001484252 0)
(8.097322 0.001682632 0)
(8.063456 0.001852944 0)
(8.051461 0.001989662 0)
(8.055334 0.00210247 0)
(8.05678 0.002197623 0)
(8.056589 0.002278176 0)
(8.056653 0.002346806 0)
(8.056873 0.002405836 0)
(8.057055 0.002457036 0)
(8.057212 0.002501773 0)
(8.057366 0.002541132 0)
(8.057515 0.002575981 0)
(8.057658 0.002607016 0)
(8.057796 0.0026348 0)
(8.057929 0.002659793 0)
(8.058059 0.002682372 0)
(8.058185 0.002702853 0)
(8.058308 0.002721497 0)
(8.058428 0.002738526 0)
(8.058545 0.002754126 0)
(8.05866 0.002768457 0)
(8.058773 0.002781655 0)
(8.058883 0.00279384 0)
(8.058992 0.002805112 0)
(8.0591 0.00281556 0)
(8.059206 0.002825263 0)
(8.059311 0.002834287 0)
(8.059414 0.002842694 0)
(8.059517 0.002850535 0)
(8.059619 0.002857857 0)
(8.059719 0.002864701 0)
(8.059819 0.002871103 0)
(8.059918 0.002877096 0)
(8.060017 0.002882708 0)
(8.060115 0.002887965 0)
(8.060212 0.002892888 0)
(8.060309 0.002897498 0)
(8.060406 0.002901811 0)
(8.060502 0.002905842 0)
(8.060598 0.002909606 0)
(8.060694 0.002913112 0)
(8.060789 0.002916369 0)
(8.060885 0.002919386 0)
(8.06098 0.002922168 0)
(8.061075 0.00292472 0)
(8.061171 0.002927045 0)
(8.061266 0.002929144 0)
(8.061361 0.002931017 0)
(8.061456 0.002932662 0)
(8.061552 0.002934076 0)
(8.061648 0.002935255 0)
(8.061743 0.002936192 0)
(8.06184 0.00293688 0)
(8.061936 0.002937309 0)
(8.062033 0.002937466 0)
(8.06213 0.002937338 0)
(8.062228 0.00293691 0)
(8.062326 0.002936162 0)
(8.062425 0.002935074 0)
(8.062524 0.00293362 0)
(8.062625 0.002931774 0)
(8.062726 0.002929504 0)
(8.062828 0.002926775 0)
(8.062931 0.002923545 0)
(8.063035 0.002919769 0)
(8.06314 0.002915394 0)
(8.063246 0.002910361 0)
(8.063354 0.002904601 0)
(8.063464 0.002898036 0)
(8.063575 0.002890576 0)
(8.063688 0.002882118 0)
(8.063803 0.002872542 0)
(8.063921 0.002861707 0)
(8.064041 0.002849452 0)
(8.064164 0.002835584 0)
(8.064291 0.002819878 0)
(8.06442 0.002802064 0)
(8.064554 0.002781821 0)
(8.064692 0.002758762 0)
(8.064834 0.002732414 0)
(8.064982 0.002702201 0)
(8.065136 0.002667411 0)
(8.065297 0.002627155 0)
(8.065465 0.002580316 0)
(8.065641 0.002525478 0)
(8.065826 0.002460828 0)
(8.066021 0.002384027 0)
(8.066227 0.002292051 0)
(8.066444 0.002180972 0)
(8.066672 0.002045722 0)
(8.066909 0.001879852 0)
(8.067153 0.001675421 0)
(8.067395 0.001423226 0)
(8.067627 0.001114229 0)
(8.067819 0.0007413336 0)
(8.067978 0.0003128492 0)
(11.82211 0.0005309955 0)
(8.854069 0.00105148 0)
(7.657527 0.001400865 0)
(7.976223 0.001660995 0)
(8.097531 0.001888308 0)
(8.063617 0.002079639 0)
(8.051581 0.002234723 0)
(8.055422 0.002362517 0)
(8.056841 0.002469634 0)
(8.056629 0.002559909 0)
(8.056675 0.002636423 0)
(8.05688 0.002701751 0)
(8.057049 0.002757893 0)
(8.057196 0.002806407 0)
(8.05734 0.002848538 0)
(8.05748 0.002885292 0)
(8.057616 0.002917484 0)
(8.057748 0.002945779 0)
(8.057876 0.002970729 0)
(8.058 0.002992788 0)
(8.058122 0.00301234 0)
(8.05824 0.003029704 0)
(8.058356 0.003045154 0)
(8.05847 0.00305892 0)
(8.058582 0.0030712 0)
(8.058692 0.003082164 0)
(8.0588 0.003091958 0)
(8.058907 0.00310071 0)
(8.059012 0.003108528 0)
(8.059116 0.003115511 0)
(8.059219 0.003121741 0)
(8.05932 0.003127292 0)
(8.059421 0.003132228 0)
(8.059521 0.003136607 0)
(8.05962 0.003140478 0)
(8.059719 0.003143885 0)
(8.059816 0.003146868 0)
(8.059914 0.003149459 0)
(8.06001 0.00315169 0)
(8.060107 0.003153586 0)
(8.060203 0.003155169 0)
(8.060298 0.003156461 0)
(8.060393 0.003157478 0)
(8.060488 0.003158235 0)
(8.060583 0.003158743 0)
(8.060678 0.003159014 0)
(8.060772 0.003159055 0)
(8.060867 0.003158871 0)
(8.060961 0.003158468 0)
(8.061056 0.003157848 0)
(8.06115 0.003157011 0)
(8.061245 0.003155955 0)
(8.061339 0.003154679 0)
(8.061434 0.003153177 0)
(8.061529 0.003151443 0)
(8.061624 0.003149467 0)
(8.061719 0.00314724 0)
(8.061815 0.003144749 0)
(8.061911 0.003141979 0)
(8.062008 0.003138912 0)
(8.062105 0.003135529 0)
(8.062202 0.003131806 0)
(8.0623 0.003127717 0)
(8.062399 0.003123233 0)
(8.062499 0.00311832 0)
(8.062599 0.003112939 0)
(8.0627 0.003107049 0)
(8.062802 0.003100601 0)
(8.062905 0.003093538 0)
(8.063009 0.0030858 0)
(8.063114 0.003077314 0)
(8.063221 0.003068001 0)
(8.06333 0.003057769 0)
(8.063439 0.003046512 0)
(8.063551 0.003034109 0)
(8.063665 0.003020421 0)
(8.063781 0.003005287 0)
(8.063899 0.00298852 0)
(8.06402 0.0029699 0)
(8.064144 0.002949172 0)
(8.064271 0.002926032 0)
(8.064402 0.002900121 0)
(8.064536 0.002871009 0)
(8.064675 0.002838182 0)
(8.064818 0.002801014 0)
(8.064966 0.002758749 0)
(8.06512 0.002710457 0)
(8.065281 0.002654993 0)
(8.065447 0.00259094 0)
(8.065621 0.002516536 0)
(8.065802 0.002429586 0)
(8.06599 0.00232736 0)
(8.066185 0.002206483 0)
(8.066386 0.00206284 0)
(8.066591 0.001891542 0)
(8.066794 0.001687074 0)
(8.066989 0.001443703 0)
(8.067168 0.001156892 0)
(8.067308 0.0008241794 0)
(8.06742 0.0004549079 0)
(11.8222 0.0003942069 0)
(8.854102 0.0007802512 0)
(7.657442 0.001038844 0)
(7.976091 0.001241411 0)
(8.097377 0.001426558 0)
(8.063438 0.001588903 0)
(8.051379 0.001726196 0)
(8.055205 0.001843507 0)
(8.056613 0.001944864 0)
(8.056392 0.002032646 0)
(8.056431 0.002108899 0)
(8.05663 0.00217546 0)
(8.056796 0.002233841 0)
(8.056939 0.002285276 0)
(8.057081 0.002330789 0)
(8.05722 0.002371232 0)
(8.057354 0.002407313 0)
(8.057485 0.002439625 0)
(8.057612 0.002468664 0)
(8.057736 0.002494847 0)
(8.057858 0.002518529 0)
(8.057977 0.00254001 0)
(8.058093 0.002559547 0)
(8.058207 0.002577358 0)
(8.058319 0.002593634 0)
(8.058429 0.002608539 0)
(8.058538 0.002622212 0)
(8.058645 0.00263478 0)
(8.058751 0.002646348 0)
(8.058856 0.002657012 0)
(8.058959 0.002666855 0)
(8.059061 0.002675949 0)
(8.059163 0.002684359 0)
(8.059263 0.002692142 0)
(8.059363 0.002699349 0)
(8.059462 0.002706023 0)
(8.05956 0.002712204 0)
(8.059658 0.002717926 0)
(8.059755 0.002723221 0)
(8.059852 0.002728115 0)
(8.059949 0.002732633 0)
(8.060045 0.002736793 0)
(8.06014 0.002740615 0)
(8.060236 0.002744113 0)
(8.060331 0.002747299 0)
(8.060426 0.002750186 0)
(8.060521 0.00275278 0)
(8.060616 0.002755087 0)
(8.060711 0.002757113 0)
(8.060806 0.002758859 0)
(8.060901 0.002760326 0)
(8.060995 0.002761511 0)
(8.06109 0.002762412 0)
(8.061185 0.002763022 0)
(8.061281 0.002763334 0)
(8.061376 0.002763339 0)
(8.061472 0.002763023 0)
(8.061568 0.002762373 0)
(8.061664 0.002761371 0)
(8.061761 0.002759998 0)
(8.061858 0.002758231 0)
(8.061955 0.002756043 0)
(8.062053 0.002753405 0)
(8.062152 0.002750284 0)
(8.062251 0.00274664 0)
(8.062351 0.002742432 0)
(8.062452 0.00273761 0)
(8.062554 0.002732118 0)
(8.062657 0.002725896 0)
(8.062761 0.002718872 0)
(8.062866 0.002710967 0)
(8.062972 0.002702089 0)
(8.063079 0.002692137 0)
(8.063188 0.002680991 0)
(8.063299 0.002668517 0)
(8.063412 0.002654562 0)
(8.063526 0.002638945 0)
(8.063643 0.002621462 0)
(8.063762 0.002601874 0)
(8.063884 0.002579901 0)
(8.064009 0.002555217 0)
(8.064136 0.002527437 0)
(8.064267 0.002496109 0)
(8.064402 0.002460691 0)
(8.064541 0.002420542 0)
(8.064684 0.002374889 0)
(8.064831 0.002322807 0)
(8.064983 0.002263177 0)
(8.065141 0.002194649 0)
(8.065303 0.002115594 0)
(8.06547 0.00202405 0)
(8.065642 0.00191768 0)
(8.065818 0.001793733 0)
(8.065995 0.001649062 0)
(8.066172 0.001480216 0)
(8.066343 0.001283714 0)
(8.066504 0.001056513 0)
(8.066647 0.000797188 0)
(8.066755 0.0005062856 0)
(8.066841 0.000192611 0)
(11.82243 0.0003889498 0)
(8.854337 0.0007519071 0)
(7.657635 0.001010088 0)
(7.976254 0.001230543 0)
(8.097521 0.001436363 0)
(8.06356 0.001619716 0)
(8.051478 0.001778199 0)
(8.055283 0.00191569 0)
(8.056674 0.002035543 0)
(8.056437 0.002140033 0)
(8.056461 0.002231244 0)
(8.056648 0.002311091 0)
(8.056803 0.002381208 0)
(8.056936 0.002442964 0)
(8.057069 0.002497518 0)
(8.057201 0.002545851 0)
(8.057329 0.002588789 0)
(8.057453 0.002627033 0)
(8.057575 0.002661176 0)
(8.057694 0.002691726 0)
(8.057811 0.002719113 0)
(8.057926 0.002743709 0)
(8.058038 0.002765833 0)
(8.058149 0.002785761 0)
(8.058258 0.002803731 0)
(8.058365 0.002819952 0)
(8.058471 0.002834606 0)
(8.058576 0.002847849 0)
(8.058679 0.002859823 0)
(8.058782 0.00287065 0)
(8.058883 0.002880438 0)
(8.058983 0.002889281 0)
(8.059083 0.002897265 0)
(8.059182 0.002904465 0)
(8.05928 0.002910946 0)
(8.059377 0.002916768 0)
(8.059474 0.002921982 0)
(8.059571 0.002926634 0)
(8.059667 0.002930766 0)
(8.059762 0.002934414 0)
(8.059858 0.002937608 0)
(8.059953 0.002940377 0)
(8.060047 0.002942745 0)
(8.060142 0.002944732 0)
(8.060236 0.002946357 0)
(8.06033 0.002947633 0)
(8.060424 0.002948574 0)
(8.060518 0.002949187 0)
(8.060612 0.002949481 0)
(8.060706 0.00294946 0)
(8.0608 0.002949125 0)
(8.060894 0.002948476 0)
(8.060988 0.002947511 0)
(8.061083 0.002946225 0)
(8.061177 0.002944609 0)
(8.061272 0.002942655 0)
(8.061367 0.002940349 0)
(8.061462 0.002937676 0)
(8.061557 0.002934618 0)
(8.061653 0.002931152 0)
(8.061749 0.002927255 0)
(8.061846 0.002922897 0)
(8.061943 0.002918046 0)
(8.062041 0.002912665 0)
(8.06214 0.002906711 0)
(8.062239 0.002900137 0)
(8.062339 0.00289289 0)
(8.062439 0.002884908 0)
(8.062541 0.002876124 0)
(8.062644 0.002866459 0)
(8.062747 0.002855827 0)
(8.062852 0.002844129 0)
(8.062958 0.002831252 0)
(8.063066 0.002817069 0)
(8.063175 0.002801433 0)
(8.063286 0.00278418 0)
(8.063398 0.002765118 0)
(8.063513 0.002744027 0)
(8.063629 0.002720656 0)
(8.063748 0.002694712 0)
(8.063869 0.002665855 0)
(8.063993 0.00263369 0)
(8.06412 0.002597753 0)
(8.06425 0.002557503 0)
(8.064383 0.0025123 0)
(8.06452 0.002461393 0)
(8.06466 0.002403894 0)
(8.064804 0.002338754 0)
(8.064951 0.002264742 0)
(8.065102 0.002180409 0)
(8.065256 0.002084074 0)
(8.065412 0.001973811 0)
(8.065569 0.00184746 0)
(8.065725 0.001702691 0)
(8.065878 0.001537136 0)
(8.066023 0.001348655 0)
(8.066156 0.001135723 0)
(8.066271 0.0008982599 0)
(8.066357 0.0006376853 0)
(8.066424 0.0003611292 0)
(11.82255 0.0003258992 0)
(8.854429 0.0006297894 0)
(7.657664 0.0008436059 0)
(7.976253 0.001027903 0)
(8.097499 0.001201185 0)
(8.063513 0.001356572 0)
(8.051409 0.001492219 0)
(8.055196 0.001611192 0)
(8.056571 0.001716003 0)
(8.056322 0.001808321 0)
(8.056336 0.001889704 0)
(8.056514 0.001961614 0)
(8.056662 0.002025317 0)
(8.056789 0.002081894 0)
(8.056918 0.002132273 0)
(8.057045 0.002177254 0)
(8.05717 0.00221752 0)
(8.057292 0.002253657 0)
(8.057411 0.002286167 0)
(8.057529 0.002315483 0)
(8.057644 0.002341978 0)
(8.057758 0.002365972 0)
(8.057869 0.002387744 0)
(8.057979 0.002407535 0)
(8.058088 0.002425557 0)
(8.058195 0.002441993 0)
(8.0583 0.002457002 0)
(8.058405 0.002470727 0)
(8.058508 0.00248329 0)
(8.058611 0.0024948 0)
(8.058712 0.002505354 0)
(8.058813 0.002515037 0)
(8.058912 0.002523924 0)
(8.059011 0.00253208 0)
(8.05911 0.002539566 0)
(8.059208 0.002546432 0)
(8.059305 0.002552726 0)
(8.059402 0.002558488 0)
(8.059498 0.002563753 0)
(8.059594 0.002568554 0)
(8.059689 0.002572917 0)
(8.059785 0.002576868 0)
(8.05988 0.002580425 0)
(8.059974 0.002583607 0)
(8.060069 0.002586429 0)
(8.060163 0.002588901 0)
(8.060258 0.002591034 0)
(8.060352 0.002592833 0)
(8.060446 0.002594304 0)
(8.06054 0.002595447 0)
(8.060635 0.002596263 0)
(8.060729 0.002596748 0)
(8.060823 0.002596897 0)
(8.060918 0.002596703 0)
(8.061012 0.002596156 0)
(8.061107 0.002595242 0)
(8.061202 0.002593947 0)
(8.061297 0.002592251 0)
(8.061393 0.002590133 0)
(8.061488 0.00258757 0)
(8.061585 0.002584531 0)
(8.061681 0.002580985 0)
(8.061778 0.002576895 0)
(8.061876 0.00257222 0)
(8.061974 0.002566914 0)
(8.062073 0.002560924 0)
(8.062173 0.002554191 0)
(8.062273 0.002546649 0)
(8.062374 0.002538224 0)
(8.062476 0.002528833 0)
(8.062579 0.00251838 0)
(8.062683 0.00250676 0)
(8.062788 0.002493852 0)
(8.062894 0.002479522 0)
(8.063002 0.002463615 0)
(8.063111 0.002445956 0)
(8.063222 0.002426346 0)
(8.063335 0.002404557 0)
(8.063449 0.002380329 0)
(8.063565 0.002353362 0)
(8.063684 0.002323312 0)
(8.063804 0.002289781 0)
(8.063927 0.002252311 0)
(8.064053 0.002210371 0)
(8.064181 0.002163343 0)
(8.064312 0.002110515 0)
(8.064445 0.00205106 0)
(8.064581 0.001984023 0)
(8.064719 0.00190831 0)
(8.064859 0.001822673 0)
(8.065 0.001725712 0)
(8.065142 0.001615887 0)
(8.065283 0.001491558 0)
(8.065422 0.001351067 0)
(8.065555 0.001192879 0)
(8.065679 0.001015815 0)
(8.065791 0.000819346 0)
(8.065886 0.0006041634 0)
(8.065956 0.0003720713 0)
(8.06601 0.0001287806 0)
(11.82271 0.0003066839 0)
(8.854578 0.0005861894 0)
(7.657782 0.0007876262 0)
(7.976356 0.0009694459 0)
(8.097593 0.001145166 0)
(8.063594 0.001306897 0)
(8.051476 0.001452054 0)
(8.055251 0.001582457 0)
(8.056614 0.001699645 0)
(8.056354 0.001804668 0)
(8.056358 0.001898663 0)
(8.056528 0.001982802 0)
(8.056667 0.002058167 0)
(8.056787 0.002125734 0)
(8.056909 0.002186382 0)
(8.05703 0.002240892 0)
(8.057149 0.002289955 0)
(8.057266 0.002334179 0)
(8.057381 0.002374098 0)
(8.057494 0.00241018 0)
(8.057606 0.002442838 0)
(8.057716 0.002472433 0)
(8.057824 0.002499281 0)
(8.057931 0.002523663 0)
(8.058037 0.002545824 0)
(8.058142 0.002565981 0)
(8.058245 0.002584329 0)
(8.058347 0.002601035 0)
(8.058448 0.002616253 0)
(8.058549 0.002630116 0)
(8.058648 0.002642744 0)
(8.058747 0.002654243 0)
(8.058845 0.002664708 0)
(8.058943 0.002674224 0)
(8.05904 0.002682867 0)
(8.059136 0.002690704 0)
(8.059232 0.002697795 0)
(8.059327 0.002704195 0)
(8.059423 0.00270995 0)
(8.059517 0.002715103 0)
(8.059612 0.002719691 0)
(8.059706 0.002723747 0)
(8.0598 0.0027273 0)
(8.059894 0.002730375 0)
(8.059988 0.002732993 0)
(8.060081 0.002735172 0)
(8.060175 0.002736927 0)
(8.060268 0.002738268 0)
(8.060361 0.002739206 0)
(8.060455 0.002739745 0)
(8.060548 0.002739888 0)
(8.060641 0.002739636 0)
(8.060735 0.002738986 0)
(8.060829 0.002737932 0)
(8.060922 0.002736467 0)
(8.061016 0.002734578 0)
(8.061111 0.002732251 0)
(8.061205 0.002729468 0)
(8.0613 0.002726209 0)
(8.061395 0.002722448 0)
(8.06149 0.002718156 0)
(8.061586 0.002713301 0)
(8.061682 0.002707844 0)
(8.061779 0.002701744 0)
(8.061876 0.00269495 0)
(8.061974 0.00268741 0)
(8.062072 0.00267906 0)
(8.062171 0.002669833 0)
(8.062271 0.002659651 0)
(8.062372 0.002648426 0)
(8.062473 0.00263606 0)
(8.062576 0.002622443 0)
(8.062679 0.002607451 0)
(8.062784 0.002590942 0)
(8.06289 0.00257276 0)
(8.062997 0.002552724 0)
(8.063105 0.002530631 0)
(8.063215 0.002506251 0)
(8.063327 0.002479323 0)
(8.06344 0.002449547 0)
(8.063555 0.002416584 0)
(8.063671 0.002380045 0)
(8.06379 0.002339486 0)
(8.06391 0.0022944 0)
(8.064033 0.002244209 0)
(8.064157 0.002188252 0)
(8.064283 0.002125781 0)
(8.064411 0.002055948 0)
(8.06454 0.001977807 0)
(8.06467 0.001890311 0)
(8.064799 0.001792324 0)
(8.064928 0.001682647 0)
(8.065055 0.00156007 0)
(8.065177 0.001423449 0)
(8.065293 0.001271838 0)
(8.065401 0.001104663 0)
(8.065496 0.000921935 0)
(8.065575 0.0007246248 0)
(8.065633 0.0005144904 0)
(8.065677 0.0002960451 0)
(11.82282 0.0002714851 0)
(8.854675 0.0005177667 0)
(7.657842 0.0006944903 0)
(7.976398 0.0008550678 0)
(8.097622 0.001010619 0)
(8.063606 0.001153878 0)
(8.051471 0.001282646 0)
(8.05523 0.00139851 0)
(8.056579 0.00150277 0)
(8.056307 0.001596311 0)
(8.0563 0.001680108 0)
(8.05646 0.001755175 0)
(8.056591 0.001822452 0)
(8.056704 0.001882789 0)
(8.056819 0.001936957 0)
(8.056935 0.001985645 0)
(8.057049 0.002029465 0)
(8.057162 0.002068959 0)
(8.057273 0.002104602 0)
(8.057384 0.002136816 0)
(8.057493 0.002165969 0)
(8.0576 0.002192386 0)
(8.057707 0.002216353 0)
(8.057812 0.002238123 0)
(8.057917 0.002257917 0)
(8.05802 0.002275932 0)
(8.058122 0.002292341 0)
(8.058224 0.002307298 0)
(8.058324 0.002320939 0)
(8.058424 0.002333384 0)
(8.058523 0.00234474 0)
(8.058621 0.002355103 0)
(8.058719 0.002364557 0)
(8.058816 0.002373177 0)
(8.058913 0.002381031 0)
(8.059009 0.002388177 0)
(8.059105 0.002394669 0)
(8.059201 0.002400552 0)
(8.059296 0.002405869 0)
(8.059391 0.002410655 0)
(8.059485 0.002414942 0)
(8.059579 0.002418757 0)
(8.059674 0.002422125 0)
(8.059767 0.002425065 0)
(8.059861 0.002427593 0)
(8.059955 0.002429725 0)
(8.060048 0.002431469 0)
(8.060142 0.002432834 0)
(8.060235 0.002433824 0)
(8.060329 0.002434442 0)
(8.060422 0.002434686 0)
(8.060516 0.002434554 0)
(8.060609 0.002434039 0)
(8.060703 0.002433133 0)
(8.060797 0.002431822 0)
(8.060891 0.002430094 0)
(8.060985 0.002427929 0)
(8.061079 0.002425306 0)
(8.061174 0.002422202 0)
(8.061269 0.002418587 0)
(8.061364 0.002414429 0)
(8.061459 0.002409691 0)
(8.061555 0.002404333 0)
(8.061651 0.002398306 0)
(8.061748 0.002391559 0)
(8.061846 0.002384033 0)
(8.061943 0.002375663 0)
(8.062042 0.002366376 0)
(8.062141 0.002356088 0)
(8.062241 0.002344709 0)
(8.062341 0.002332136 0)
(8.062443 0.002318255 0)
(8.062545 0.002302937 0)
(8.062648 0.002286037 0)
(8.062753 0.002267395 0)
(8.062858 0.002246828 0)
(8.062965 0.002224131 0)
(8.063072 0.002199075 0)
(8.063181 0.0021714 0)
(8.063292 0.002140812 0)
(8.063403 0.002106979 0)
(8.063517 0.00206953 0)
(8.063631 0.00202804 0)
(8.063747 0.001982035 0)
(8.063864 0.00193098 0)
(8.063983 0.001874276 0)
(8.064102 0.001811255 0)
(8.064222 0.001741181 0)
(8.064343 0.00166325 0)
(8.064463 0.001576599 0)
(8.064583 0.001480324 0)
(8.0647 0.001373515 0)
(8.064814 0.0012553 0)
(8.064924 0.001124929 0)
(8.065026 0.000981866 0)
(8.06512 0.0008259384 0)
(8.065201 0.0006574697 0)
(8.065269 0.0004775302 0)
(8.065318 0.0002877453 0)
(8.065356 9.170961e-05 0)
(11.82294 0.0002518929 0)
(8.854785 0.0004777401 0)
(7.657927 0.0006415081 0)
(7.976474 0.0007938266 0)
(8.097692 0.0009439109 0)
(8.063667 0.001084712 0)
(8.051522 0.001213938 0)
(8.055271 0.001332584 0)
(8.056613 0.001441387 0)
(8.056332 0.001540782 0)
(8.056318 0.001631358 0)
(8.056471 0.001713802 0)
(8.056595 0.001788795 0)
(8.056702 0.001856987 0)
(8.056812 0.001918996 0)
(8.056923 0.001975399 0)
(8.057033 0.002026725 0)
(8.057142 0.002073459 0)
(8.05725 0.002116039 0)
(8.057357 0.002154862 0)
(8.057463 0.002190284 0)
(8.057568 0.002222626 0)
(8.057671 0.002252174 0)
(8.057774 0.002279188 0)
(8.057876 0.002303898 0)
(8.057977 0.002326511 0)
(8.058078 0.002347214 0)
(8.058177 0.002366172 0)
(8.058276 0.002383536 0)
(8.058374 0.002399439 0)
(8.058472 0.002414003 0)
(8.058569 0.002427336 0)
(8.058665 0.002439535 0)
(8.058761 0.002450688 0)
(8.058857 0.002460873 0)
(8.058952 0.002470162 0)
(8.059046 0.002478617 0)
(8.059141 0.002486295 0)
(8.059235 0.002493247 0)
(8.059329 0.002499518 0)
(8.059422 0.002505148 0)
(8.059516 0.002510172 0)
(8.059609 0.002514622 0)
(8.059702 0.002518523 0)
(8.059795 0.0025219 0)
(8.059888 0.002524771 0)
(8.05998 0.002527153 0)
(8.060073 0.002529058 0)
(8.060166 0.002530494 0)
(8.060258 0.00253147 0)
(8.060351 0.002531987 0)
(8.060444 0.002532045 0)
(8.060537 0.002531642 0)
(8.06063 0.002530772 0)
(8.060723 0.002529424 0)
(8.060816 0.002527587 0)
(8.060909 0.002525243 0)
(8.061003 0.002522374 0)
(8.061096 0.002518957 0)
(8.06119 0.002514962 0)
(8.061285 0.00251036 0)
(8.061379 0.002505113 0)
(8.061474 0.00249918 0)
(8.06157 0.002492514 0)
(8.061665 0.002485064 0)
(8.061762 0.002476769 0)
(8.061858 0.002467564 0)
(8.061956 0.002457375 0)
(8.062053 0.002446119 0)
(8.062152 0.002433702 0)
(8.062251 0.002420023 0)
(8.062351 0.002404966 0)
(8.062451 0.002388402 0)