/*--------------------------------*- C++ -*----------------------------------*\
| =========                 |                                                 |
| \\      /  F ield         | OpenFOAM: The Open Source CFD Toolbox           |
|  \\    /   O peration     | Version:  2.3.0                                 |
|   \\  /    A nd           | Web:      www.OpenFOAM.org                      |
|    \\/     M anipulation  |                                                 |
\*---------------------------------------------------------------------------*/
FoamFile
{
    version     2.0;
    format      ascii;
    class       surfaceScalarField;
    location    "9700/bottomAir";
    object      phi;
}
// * * * * * * * * * * * * * * * * * * * * * * * * * * * * * * * * * * * * * //

dimensions      [1 0 -1 0 0 0 0];

internalField   nonuniform List<scalar> 
7860
(
0.006619715
-1.217877e-06
0.00662007
-3.543827e-07
0.00662016
-8.956266e-08
0.006620273
-1.121678e-07
0.006620356
-8.229754e-08
0.006620411
-5.388443e-08
0.006620456
-4.545607e-08
0.006620499
-4.268042e-08
0.00662054
-4.123318e-08
0.006620581
-4.126191e-08
0.006620624
-4.230207e-08
0.006620667
-4.382816e-08
0.006620713
-4.561154e-08
0.00662076
-4.753792e-08
0.00662081
-4.952818e-08
0.006620861
-5.15284e-08
0.006620915
-5.350539e-08
0.00662097
-5.543724e-08
0.006621027
-5.73094e-08
0.006621086
-5.911241e-08
0.006621147
-6.084005e-08
0.006621209
-6.24889e-08
0.006621273
-6.40569e-08
0.006621339
-6.554374e-08
0.006621406
-6.694958e-08
0.006621474
-6.827576e-08
0.006621543
-6.952371e-08
0.006621614
-7.069564e-08
0.006621686
-7.179364e-08
0.006621759
-7.282031e-08
0.006621832
-7.377808e-08
0.006621907
-7.466967e-08
0.006621982
-7.549758e-08
0.006622059
-7.626448e-08
0.006622135
-7.697281e-08
0.006622213
-7.762502e-08
0.006622291
-7.822341e-08
0.00662237
-7.877017e-08
0.006622449
-7.926736e-08
0.006622529
-7.971686e-08
0.006622609
-8.012046e-08
0.006622689
-8.047969e-08
0.00662277
-8.079603e-08
0.006622851
-8.107068e-08
0.006622932
-8.130479e-08
0.006623014
-8.149919e-08
0.006623096
-8.16547e-08
0.006623177
-8.17718e-08
0.006623259
-8.185096e-08
0.006623341
-8.189229e-08
0.006623423
-8.189591e-08
0.006623505
-8.186158e-08
0.006623586
-8.178908e-08
0.006623668
-8.167778e-08
0.00662375
-8.15271e-08
0.006623831
-8.133607e-08
0.006623912
-8.110375e-08
0.006623993
-8.082879e-08
0.006624073
-8.050991e-08
0.006624153
-8.014537e-08
0.006624233
-7.973355e-08
0.006624312
-7.927235e-08
0.006624391
-7.87598e-08
0.006624469
-7.819346e-08
0.006624547
-7.7571e-08
0.006624624
-7.688969e-08
0.0066247
-7.614687e-08
0.006624775
-7.533951e-08
0.00662485
-7.446472e-08
0.006624923
-7.35192e-08
0.006624996
-7.249985e-08
0.006625067
-7.140324e-08
0.006625137
-7.022615e-08
0.006625206
-6.896509e-08
0.006625274
-6.761683e-08
0.00662534
-6.617796e-08
0.006625405
-6.464544e-08
0.006625468
-6.30161e-08
0.006625529
-6.128723e-08
0.006625588
-5.945613e-08
0.006625646
-5.752067e-08
0.006625701
-5.547885e-08
0.006625755
-5.332934e-08
0.006625806
-5.10711e-08
0.006625854
-4.87039e-08
0.006625901
-4.622791e-08
0.006625944
-4.364425e-08
0.006625985
-4.095456e-08
0.006626023
-3.816153e-08
0.006626059
-3.526848e-08
0.006626091
-3.22799e-08
0.00662612
-2.920098e-08
0.006626146
-2.60382e-08
0.006626169
-2.279903e-08
0.006626188
-1.949262e-08
0.006626205
-1.613036e-08
0.006626217
-1.272741e-08
0.006626227
-9.309745e-09
0.006626232
-5.91142e-09
-2.669231e-09
0.006618727
-6.610582e-07
0.00661873
-3.56893e-07
0.006618793
-1.516979e-07
0.006618811
-1.286209e-07
0.006618838
-1.092303e-07
0.006618873
-8.821921e-08
0.006618908
-8.011959e-08
0.006618944
-7.85017e-08
0.006618981
-7.902837e-08
0.006619021
-8.105777e-08
0.006619063
-8.414783e-08
0.006619107
-8.781602e-08
0.006619153
-9.178198e-08
0.006619201
-9.589184e-08
0.006619252
-1.000406e-07
0.006619304
-1.041564e-07
0.006619359
-1.08191e-07
0.006619415
-1.121121e-07
0.006619474
-1.158981e-07
0.006619534
-1.195345e-07
0.006619596
-1.230124e-07
0.00661966
-1.263266e-07
0.006619725
-1.294751e-07
0.006619792
-1.324576e-07
0.00661986
-1.352759e-07
0.00661993
-1.379327e-07
0.006620001
-1.404318e-07
0.006620073
-1.427774e-07
0.006620146
-1.449744e-07
0.00662022
-1.47028e-07
0.006620295
-1.489433e-07
0.006620371
-1.507257e-07
0.006620448
-1.523806e-07
0.006620526
-1.539131e-07
0.006620604
-1.553283e-07
0.006620683
-1.566312e-07
0.006620763
-1.578265e-07
0.006620843
-1.589184e-07
0.006620923
-1.599112e-07
0.006621004
-1.608086e-07
0.006621086
-1.616143e-07
0.006621168
-1.623313e-07
0.00662125
-1.629626e-07
0.006621332
-1.635107e-07
0.006621415
-1.639777e-07
0.006621498
-1.643656e-07
0.006621581
-1.646756e-07
0.006621664
-1.649091e-07
0.006621747
-1.650667e-07
0.00662183
-1.651489e-07
0.006621913
-1.651557e-07
0.006621997
-1.650869e-07
0.00662208
-1.649417e-07
0.006622163
-1.647193e-07
0.006622246
-1.644181e-07
0.006622328
-1.640365e-07
0.006622411
-1.635723e-07
0.006622493
-1.630232e-07
0.006622575
-1.623862e-07
0.006622656
-1.616582e-07
0.006622737
-1.608356e-07
0.006622818
-1.599146e-07
0.006622898
-1.588909e-07
0.006622978
-1.577599e-07
0.006623057
-1.565167e-07
0.006623135
-1.55156e-07
0.006623212
-1.536723e-07
0.006623289
-1.520597e-07
0.006623365
-1.503122e-07
0.00662344
-1.484235e-07
0.006623514
-1.46387e-07
0.006623586
-1.441962e-07
0.006623658
-1.418442e-07
0.006623728
-1.393244e-07
0.006623797
-1.3663e-07
0.006623865
-1.337543e-07
0.006623931
-1.30691e-07
0.006623995
-1.27434e-07
0.006624058
-1.239775e-07
0.006624119
-1.203164e-07
0.006624178
-1.164459e-07
0.006624235
-1.123624e-07
0.006624289
-1.080628e-07
0.006624342
-1.035453e-07
0.006624392
-9.88091e-08
0.00662444
-9.385472e-08
0.006624485
-8.868402e-08
0.006624527
-8.330058e-08
0.006624566
-7.770939e-08
0.006624603
-7.191738e-08
0.006624637
-6.59331e-08
0.006624667
-5.976714e-08
0.006624695
-5.343186e-08
0.006624719
-4.694175e-08
0.00662474
-4.031327e-08
0.006624757
-3.356522e-08
0.006624771
-2.671865e-08
0.006624782
-1.979794e-08
0.006624788
-1.28288e-08
-5.845259e-09
0.006619
-3.678177e-07
0.006618897
-2.534683e-07
0.006618899
-1.529927e-07
0.006618909
-1.375396e-07
0.00661893
-1.290644e-07
0.00661896
-1.183678e-07
0.006618994
-1.140729e-07
0.00661903
-1.145502e-07
0.006619069
-1.171926e-07
0.006619109
-1.212648e-07
0.006619151
-1.263709e-07
0.006619195
-1.321006e-07
0.006619241
-1.381667e-07
0.00661929
-1.443857e-07
0.00661934
-1.506298e-07
0.006619393
-1.568075e-07
0.006619447
-1.628551e-07
0.006619504
-1.687281e-07
0.006619562
-1.743961e-07
0.006619623
-1.798388e-07
0.006619684
-1.850432e-07
0.006619748
-1.900022e-07
0.006619813
-1.947125e-07
0.00661988
-1.991742e-07
0.006619948
-2.033897e-07
0.006620017
-2.073634e-07
0.006620088
-2.111008e-07
0.00662016
-2.146085e-07
0.006620232
-2.178937e-07
0.006620306
-2.209641e-07
0.006620381
-2.238276e-07
0.006620457
-2.264922e-07
0.006620533
-2.289659e-07
0.006620611
-2.312567e-07
0.006620689
-2.33372e-07
0.006620767
-2.353194e-07
0.006620847
-2.371057e-07
0.006620926
-2.387376e-07
0.006621007
-2.402213e-07
0.006621087
-2.415625e-07
0.006621168
-2.427666e-07
0.00662125
-2.438382e-07
0.006621332
-2.447817e-07
0.006621414
-2.456009e-07
0.006621496
-2.46299e-07
0.006621579
-2.468788e-07
0.006621661
-2.473425e-07
0.006621744
-2.476917e-07
0.006621827
-2.479276e-07
0.00662191
-2.480509e-07
0.006621992
-2.480616e-07
0.006622075
-2.479593e-07
0.006622158
-2.47743e-07
0.006622241
-2.474111e-07
0.006622323
-2.469617e-07
0.006622406
-2.463921e-07
0.006622488
-2.456991e-07
0.00662257
-2.44879e-07
0.006622651
-2.439277e-07
0.006622732
-2.428403e-07
0.006622813
-2.416116e-07
0.006622893
-2.402355e-07
0.006622973
-2.387059e-07
0.006623052
-2.370157e-07
0.006623131
-2.351576e-07
0.006623209
-2.331236e-07
0.006623286
-2.309055e-07
0.006623363
-2.284944e-07
0.006623438
-2.258811e-07
0.006623513
-2.230562e-07
0.006623586
-2.200099e-07
0.006623659
-2.167321e-07
0.00662373
-2.132127e-07
0.0066238
-2.094414e-07
0.006623869
-2.05408e-07
0.006623936
-2.011025e-07
0.006624002
-1.965152e-07
0.006624066
-1.916367e-07
0.006624129
-1.864584e-07
0.00662419
-1.809723e-07
0.006624248
-1.751713e-07
0.006624305
-1.690496e-07
0.00662436
-1.626025e-07
0.006624412
-1.55827e-07
0.006624462
-1.487219e-07
0.006624509
-1.412877e-07
0.006624554
-1.335272e-07
0.006624596
-1.254454e-07
0.006624635
-1.1705e-07
0.006624672
-1.083509e-07
0.006624705
-9.936122e-08
0.006624736
-9.009646e-08
0.006624763
-8.057521e-08
0.006624787
-7.081887e-08
0.006624807
-6.085174e-08
0.006624824
-5.070098e-08
0.006624838
-4.039625e-08
0.006624848
-2.996965e-08
0.006624855
-1.945163e-08
-8.872855e-09
0.006619089
-2.105733e-07
0.00661903
-1.934078e-07
0.006619033
-1.552623e-07
0.006619045
-1.480208e-07
0.006619062
-1.455727e-07
0.006619086
-1.424451e-07
0.006619115
-1.427944e-07
0.006619147
-1.465101e-07
0.006619182
-1.521512e-07
0.00661922
-1.590369e-07
0.00661926
-1.667868e-07
0.006619303
-1.750572e-07
0.006619348
-1.835839e-07
0.006619396
-1.921848e-07
0.006619446
-2.007297e-07
0.006619498
-2.091246e-07
0.006619553
-2.173025e-07
0.006619609
-2.252163e-07
0.006619667
-2.328339e-07
0.006619728
-2.401338e-07
0.00661979
-2.471033e-07
0.006619853
-2.537355e-07
0.006619919
-2.600286e-07
0.006619985
-2.659845e-07
0.006620053
-2.716077e-07
0.006620123
-2.769049e-07
0.006620194
-2.818844e-07
0.006620265
-2.865556e-07
0.006620338
-2.909287e-07
0.006620412
-2.950142e-07
0.006620487
-2.988233e-07
0.006620563
-3.023667e-07
0.00662064
-3.056555e-07
0.006620717
-3.087003e-07
0.006620795
-3.115113e-07
0.006620874
-3.140986e-07
0.006620953
-3.164716e-07
0.006621033
-3.186392e-07
0.006621114
-3.206097e-07
0.006621194
-3.223909e-07
0.006621276
-3.239897e-07
0.006621357
-3.254127e-07
0.006621439
-3.266655e-07
0.006621521
-3.277533e-07
0.006621603
-3.286804e-07
0.006621686
-3.294505e-07
0.006621769
-3.300665e-07
0.006621851
-3.305307e-07
0.006621934
-3.308446e-07
0.006622017
-3.310092e-07
0.0066221
-3.310244e-07
0.006622183
-3.308897e-07
0.006622266
-3.306039e-07
0.006622349
-3.301648e-07
0.006622431
-3.295698e-07
0.006622514
-3.288153e-07
0.006622596
-3.278972e-07
0.006622678
-3.268105e-07
0.006622759
-3.255496e-07
0.006622841
-3.241082e-07
0.006622921
-3.22479e-07
0.006623002
-3.206544e-07
0.006623082
-3.186256e-07
0.006623161
-3.163837e-07
0.00662324
-3.139185e-07
0.006623318
-3.112196e-07
0.006623395
-3.082758e-07
0.006623472
-3.050753e-07
0.006623548
-3.016058e-07
0.006623622
-2.978546e-07
0.006623696
-2.938084e-07
0.006623769
-2.894539e-07
0.00662384
-2.847772e-07
0.006623911
-2.797646e-07
0.00662398
-2.744023e-07
0.006624047
-2.686768e-07
0.006624113
-2.625749e-07
0.006624178
-2.560838e-07
0.00662424
-2.491917e-07
0.006624301
-2.418878e-07
0.00662436
-2.341623e-07
0.006624417
-2.26007e-07
0.006624472
-2.174156e-07
0.006624525
-2.083837e-07
0.006624575
-1.989092e-07
0.006624623
-1.889927e-07
0.006624668
-1.786375e-07
0.00662471
-1.678502e-07
0.00662475
-1.566406e-07
0.006624786
-1.45022e-07
0.00662482
-1.330115e-07
0.00662485
-1.206298e-07
0.006624878
-1.079014e-07
0.006624902
-9.485469e-08
0.006624922
-8.152153e-08
0.00662494
-6.793737e-08
0.006624953
-5.414055e-08
0.006624964
-4.017258e-08
0.00662497
-2.607356e-08
-1.189967e-08
0.006619157
-1.41899e-07
0.006619119
-1.547865e-07
0.006619111
-1.459515e-07
0.006619114
-1.497103e-07
0.006619124
-1.557335e-07
0.006619143
-1.611308e-07
0.006619169
-1.67864e-07
0.006619199
-1.76323e-07
0.006619232
-1.859239e-07
0.006619269
-1.962592e-07
0.00661931
-2.070812e-07
0.006619353
-2.181658e-07
0.006619398
-2.293228e-07
0.006619447
-2.404078e-07
0.006619497
-2.513124e-07
0.00661955
-2.61955e-07
0.006619605
-2.722755e-07
0.006619662
-2.822306e-07
0.00661972
-2.917904e-07
0.006619781
-3.009356e-07
0.006619844
-3.096547e-07
0.006619908
-3.179431e-07
0.006619973
-3.258008e-07
0.006620041
-3.332319e-07
0.006620109
-3.402436e-07
0.006620179
-3.468453e-07
0.00662025
-3.530482e-07
0.006620322
-3.588646e-07
0.006620396
-3.643078e-07
0.00662047
-3.693915e-07
0.006620545
-3.741298e-07
0.006620621
-3.785365e-07
0.006620698
-3.826255e-07
0.006620776
-3.864104e-07
0.006620854
-3.899041e-07
0.006620933
-3.931191e-07
0.006621013
-3.960675e-07
0.006621093
-3.987603e-07
0.006621173
-4.01208e-07
0.006621254
-4.034203e-07
0.006621336
-4.054061e-07
0.006621418
-4.071735e-07
0.0066215
-4.087295e-07
0.006621582
-4.100806e-07
0.006621664
-4.112322e-07
0.006621747
-4.121889e-07
0.00662183
-4.129544e-07
0.006621913
-4.135315e-07
0.006621996
-4.139221e-07
0.006622079
-4.141273e-07
0.006622162
-4.141474e-07
0.006622245
-4.139814e-07
0.006622328
-4.136278e-07
0.006622411
-4.13084e-07
0.006622494
-4.123467e-07
0.006622576
-4.114115e-07
0.006622659
-4.10273e-07
0.006622741
-4.089253e-07
0.006622823
-4.073612e-07
0.006622904
-4.055727e-07
0.006622985
-4.035509e-07
0.006623066
-4.01286e-07
0.006623146
-3.987674e-07
0.006623225
-3.959835e-07
0.006623304
-3.929218e-07
0.006623383
-3.895691e-07
0.00662346
-3.859113e-07
0.006623537
-3.819337e-07
0.006623613
-3.776207e-07
0.006623688
-3.729562e-07
0.006623762
-3.679236e-07
0.006623835
-3.625059e-07
0.006623907
-3.566857e-07
0.006623978
-3.504455e-07
0.006624047
-3.437678e-07
0.006624115
-3.366353e-07
0.006624182
-3.290312e-07
0.006624247
-3.209393e-07
0.00662431
-3.123442e-07
0.006624371
-3.03232e-07
0.006624431
-2.935899e-07
0.006624488
-2.834074e-07
0.006624543
-2.726759e-07
0.006624596
-2.613894e-07
0.006624647
-2.495449e-07
0.006624695
-2.371425e-07
0.00662474
-2.241861e-07
0.006624783
-2.106834e-07
0.006624823
-1.966463e-07
0.00662486
-1.820913e-07
0.006624894
-1.670393e-07
0.006624925
-1.515162e-07
0.006624953
-1.355527e-07
0.006624977
-1.19184e-07
0.006624998
-1.024501e-07
0.006625016
-8.539534e-08
0.00662503
-6.806741e-08
0.00662504
-5.051813e-08
0.006625047
-3.279749e-08
-1.497725e-08
0.006619159
-9.965407e-08
0.006619136
-1.305376e-07
0.006619132
-1.413783e-07
0.006619138
-1.549797e-07
0.006619152
-1.684915e-07
0.006619172
-1.808004e-07
0.006619197
-1.931207e-07
0.006619227
-2.060477e-07
0.006619261
-2.194849e-07
0.006619298
-2.33245e-07
0.006619338
-2.471818e-07
0.006619381
-2.611508e-07
0.006619426
-2.750144e-07
0.006619474
-2.886573e-07
0.006619525
-3.01988e-07
0.006619578
-3.149353e-07
0.006619633
-3.274456e-07
0.00661969
-3.394798e-07
0.006619749
-3.510115e-07
0.00661981
-3.620238e-07
0.006619873
-3.725084e-07
0.006619937
-3.82463e-07
0.006620003
-3.918908e-07
0.006620071
-4.00799e-07
0.00662014
-4.091979e-07
0.00662021
-4.171003e-07
0.006620281
-4.245208e-07
0.006620354
-4.314751e-07
0.006620428
-4.3798e-07
0.006620502
-4.440526e-07
0.006620578
-4.497102e-07
0.006620654
-4.5497e-07
0.006620731
-4.598491e-07
0.006620809
-4.643638e-07
0.006620888
-4.685301e-07
0.006620967
-4.723633e-07
0.006621047
-4.758777e-07
0.006621127
-4.79087e-07
0.006621208
-4.820037e-07
0.006621289
-4.846396e-07
0.00662137
-4.870055e-07
0.006621452
-4.891109e-07
0.006621534
-4.909647e-07
0.006621617
-4.925743e-07
0.0066217
-4.939464e-07
0.006621782
-4.950865e-07
0.006621866
-4.959991e-07
0.006621949
-4.966875e-07
0.006622032
-4.971541e-07
0.006622115
-4.974002e-07
0.006622198
-4.974259e-07
0.006622282
-4.972304e-07
0.006622365
-4.968117e-07
0.006622448
-4.961669e-07
0.006622531
-4.952917e-07
0.006622613
-4.94181e-07
0.006622696
-4.928285e-07
0.006622778
-4.912268e-07
0.00662286
-4.893675e-07
0.006622942
-4.872408e-07
0.006623023
-4.848363e-07
0.006623104
-4.82142e-07
0.006623184
-4.791451e-07
0.006623264
-4.758317e-07
0.006623343
-4.721868e-07
0.006623422
-4.681944e-07
0.0066235
-4.638376e-07
0.006623577
-4.590984e-07
0.006623653
-4.53958e-07
0.006623729
-4.48397e-07
0.006623803
-4.423952e-07
0.006623877
-4.359318e-07
0.006623949
-4.289857e-07
0.00662402
-4.215354e-07
0.00662409
-4.135597e-07
0.006624158
-4.050373e-07
0.006624225
-3.959474e-07
0.006624291
-3.8627e-07
0.006624354
-3.759862e-07
0.006624416
-3.650783e-07
0.006624476
-3.535307e-07
0.006624534
-3.413297e-07
0.00662459
-3.284642e-07
0.006624643
-3.149265e-07
0.006624694
-3.007121e-07
0.006624743
-2.858204e-07
0.006624789
-2.702553e-07
0.006624832
-2.540256e-07
0.006624873
-2.371451e-07
0.00662491
-2.196329e-07
0.006624945
-2.015142e-07
0.006624976
-1.828198e-07
0.006625004
-1.635863e-07
0.006625029
-1.438565e-07
0.00662505
-1.236784e-07
0.006625068
-1.031057e-07
0.006625082
-8.219635e-08
0.006625092
-6.101364e-08
0.006625099
-3.961904e-08
-1.810339e-08
0.006619164
-8.159478e-08
0.006619154
-1.198181e-07
0.006619154
-1.404118e-07
0.006619161
-1.609281e-07
0.006619174
-1.806768e-07
0.006619192
-1.990546e-07
0.006619216
-2.167838e-07
0.006619245
-2.344069e-07
0.006619277
-2.520131e-07
0.006619314
-2.695333e-07
0.006619353
-2.868908e-07
0.006619396
-3.04002e-07
0.006619442
-3.207779e-07
0.00661949
-3.371376e-07
0.006619541
-3.530137e-07
0.006619594
-3.683529e-07
0.00661965
-3.831144e-07
0.006619708
-3.972691e-07
0.006619767
-4.107981e-07
0.006619829
-4.236912e-07
0.006619892
-4.359453e-07
0.006619957
-4.475634e-07
0.006620024
-4.585531e-07
0.006620092
-4.689262e-07
0.006620161
-4.786973e-07
0.006620232
-4.878833e-07
0.006620304
-4.965028e-07
0.006620377
-5.045758e-07
0.006620451
-5.121227e-07
0.006620526
-5.191645e-07
0.006620602
-5.257219e-07
0.006620679
-5.318159e-07
0.006620756
-5.374665e-07
0.006620835
-5.426935e-07
0.006620914
-5.475156e-07
0.006620993
-5.519511e-07
0.006621073
-5.560168e-07
0.006621154
-5.597287e-07
0.006621235
-5.631019e-07
0.006621316
-5.661499e-07
0.006621398
-5.688853e-07
0.00662148
-5.713196e-07
0.006621563
-5.734628e-07
0.006621646
-5.75324e-07
0.006621728
-5.769107e-07
0.006621812
-5.782294e-07
0.006621895
-5.792854e-07
0.006621978
-5.800826e-07
0.006622062
-5.806238e-07
0.006622145
-5.809103e-07
0.006622229
-5.809426e-07
0.006622312
-5.807194e-07
0.006622395
-5.802386e-07
0.006622479
-5.794967e-07
0.006622562
-5.784888e-07
0.006622645
-5.772089e-07
0.006622728
-5.756497e-07
0.00662281
-5.738025e-07
0.006622893
-5.716575e-07
0.006622975
-5.692034e-07
0.006623056
-5.664278e-07
0.006623137
-5.633169e-07
0.006623218
-5.598556e-07
0.006623298
-5.560277e-07
0.006623378
-5.518155e-07
0.006623457
-5.472002e-07
0.006623535
-5.421621e-07
0.006623613
-5.366798e-07
0.006623689
-5.307315e-07
0.006623765
-5.24294e-07
0.00662384
-5.173434e-07
0.006623914
-5.098552e-07
0.006623987
-5.018043e-07
0.006624059
-4.931652e-07
0.006624129
-4.839124e-07
0.006624198
-4.740204e-07
0.006624265
-4.634644e-07
0.006624331
-4.522202e-07
0.006624396
-4.402648e-07
0.006624458
-4.275767e-07
0.006624519
-4.141366e-07
0.006624577
-3.999276e-07
0.006624634
-3.849358e-07
0.006624688
-3.691509e-07
0.00662474
-3.525666e-07
0.006624789
-3.351813e-07
0.006624836
-3.169987e-07
0.00662488
-2.980278e-07
0.006624921
-2.782843e-07
0.006624959
-2.577899e-07
0.006624994
-2.365734e-07
0.006625026
-2.146708e-07
0.006625055
-1.921249e-07
0.00662508
-1.689858e-07
0.006625101
-1.453103e-07
0.006625119
-1.211617e-07
0.006625134
-9.660891e-08
0.006625144
-7.172707e-08
0.006625151
-4.658943e-08
-2.130367e-08
0.006619151
-7.09947e-08
0.006619148
-1.150614e-07
0.006619151
-1.428168e-07
0.00661916
-1.691454e-07
0.006619175
-1.946321e-07
0.006619195
-2.185919e-07
0.006619219
-2.414042e-07
0.006619249
-2.635655e-07
0.006619282
-2.852569e-07
0.006619319
-3.064902e-07
0.006619359
-3.272468e-07
0.006619402
-3.474936e-07
0.006619449
-3.671821e-07
0.006619498
-3.862613e-07
0.006619549
-4.046856e-07
0.006619603
-4.224177e-07
0.00661966
-4.39429e-07
0.006619718
-4.557001e-07
0.006619778
-4.712195e-07
0.00661984
-4.859836e-07
0.006619904
-4.99995e-07
0.00661997
-5.13262e-07
0.006620037
-5.257974e-07
0.006620106
-5.376175e-07
0.006620176
-5.487416e-07
0.006620247
-5.591913e-07
0.006620319
-5.689894e-07
0.006620393
-5.781602e-07
0.006620468
-5.867282e-07
0.006620543
-5.947183e-07
0.006620619
-6.021552e-07
0.006620697
-6.090633e-07
0.006620775
-6.154662e-07
0.006620853
-6.213869e-07
0.006620932
-6.268473e-07
0.006621012
-6.318683e-07
0.006621093
-6.364695e-07
0.006621174
-6.406695e-07
0.006621255
-6.444854e-07
0.006621337
-6.47933e-07
0.006621419
-6.510268e-07
0.006621501
-6.537798e-07
0.006621584
-6.562037e-07
0.006621667
-6.583086e-07
0.00662175
-6.601034e-07
0.006621833
-6.615955e-07
0.006621917
-6.627909e-07
0.006622
-6.636941e-07
0.006622084
-6.643082e-07
0.006622168
-6.646349e-07
0.006622251
-6.646745e-07
0.006622335
-6.644259e-07
0.006622419
-6.638864e-07
0.006622502
-6.630521e-07
0.006622586
-6.619175e-07
0.006622669
-6.604757e-07
0.006622752
-6.587183e-07
0.006622835
-6.566355e-07
0.006622917
-6.54216e-07
0.006623
-6.51447e-07
0.006623081
-6.483141e-07
0.006623163
-6.448016e-07
0.006623244
-6.408923e-07
0.006623324
-6.365675e-07
0.006623404
-6.318068e-07
0.006623484
-6.265889e-07
0.006623563
-6.208905e-07
0.006623641
-6.146876e-07
0.006623718
-6.079545e-07
0.006623794
-6.006645e-07
0.00662387
-5.927899e-07
0.006623944
-5.843022e-07
0.006624017
-5.751721e-07
0.00662409
-5.653699e-07
0.00662416
-5.548655e-07
0.00662423
-5.436292e-07
0.006624298
-5.316315e-07
0.006624365
-5.188436e-07
0.00662443
-5.052383e-07
0.006624493
-4.907896e-07
0.006624554
-4.754743e-07
0.006624614
-4.592714e-07
0.006624671
-4.421638e-07
0.006624726
-4.241382e-07
0.006624778
-4.05186e-07
0.006624829
-3.853039e-07
0.006624876
-3.644947e-07
0.006624921
-3.427679e-07
0.006624963
-3.201399e-07
0.006625001
-2.96635e-07
0.006625037
-2.722857e-07
0.00662507
-2.471327e-07
0.006625099
-2.212252e-07
0.006625124
-1.946209e-07
0.006625146
-1.673858e-07
0.006625165
-1.395937e-07
0.00662518
-1.113251e-07
0.00662519
-8.266833e-08
0.006625198
-5.370999e-08
-2.457874e-08
0.006619139
-6.780577e-08
0.006619141
-1.161183e-07
0.006619148
-1.487405e-07
0.00661916
-1.797447e-07
0.006619176
-2.101381e-07
0.006619196
-2.389881e-07
0.006619222
-2.664349e-07
0.006619251
-2.929138e-07
0.006619284
-3.186166e-07
0.006619322
-3.435753e-07
0.006619362
-3.67793e-07
0.006619406
-3.912601e-07
0.006619452
-4.139509e-07
0.006619502
-4.358339e-07
0.006619554
-4.5688e-07
0.006619609
-4.770659e-07
0.006619665
-4.963747e-07
0.006619724
-5.14797e-07
0.006619785
-5.323304e-07
0.006619848
-5.489792e-07
0.006619913
-5.647531e-07
0.006619979
-5.796673e-07
0.006620047
-5.937407e-07
0.006620117
-6.069957e-07
0.006620187
-6.194573e-07
0.006620259
-6.311522e-07
0.006620332
-6.421087e-07
0.006620406
-6.523556e-07
0.006620481
-6.619224e-07
0.006620557
-6.708382e-07
0.006620634
-6.791319e-07
0.006620712
-6.868319e-07
0.006620791
-6.939654e-07
0.00662087
-7.005589e-07
0.006620949
-7.066375e-07
0.00662103
-7.122251e-07
0.006621111
-7.173441e-07
0.006621192
-7.220156e-07
0.006621274
-7.26259e-07
0.006621356
-7.300924e-07
0.006621438
-7.335319e-07
0.006621521
-7.365925e-07
0.006621604
-7.392871e-07
0.006621687
-7.416275e-07
0.006621771
-7.436234e-07
0.006621854
-7.452833e-07
0.006621938
-7.466139e-07
0.006622022
-7.476202e-07
0.006622106
-7.483058e-07
0.00662219
-7.486727e-07
0.006622274
-7.487211e-07
0.006622358
-7.484497e-07
0.006622442
-7.478558e-07
0.006622526
-7.469347e-07
0.00662261
-7.456805e-07
0.006622693
-7.440852e-07
0.006622777
-7.421395e-07
0.00662286
-7.398324e-07
0.006622943
-7.371512e-07
0.006623025
-7.340814e-07
0.006623108
-7.30607e-07
0.006623189
-7.267101e-07
0.006623271
-7.223714e-07
0.006623352
-7.175696e-07
0.006623432
-7.122819e-07
0.006623512
-7.064839e-07
0.006623591
-7.001494e-07
0.00662367
-6.93251e-07
0.006623748
-6.857593e-07
0.006623825
-6.776442e-07
0.006623901
-6.688738e-07
0.006623976
-6.594154e-07
0.00662405
-6.492353e-07
0.006624123
-6.382994e-07
0.006624195
-6.265728e-07
0.006624265
-6.14021e-07
0.006624334
-6.006095e-07
0.006624401
-5.863048e-07
0.006624467
-5.710746e-07
0.006624531
-5.548881e-07
0.006624594
-5.377174e-07
0.006624654
-5.195373e-07
0.006624712
-5.003264e-07
0.006624768
-4.800679e-07
0.006624821
-4.587503e-07
0.006624873
-4.363679e-07
0.006624921
-4.129222e-07
0.006624967
-3.884221e-07
0.006625009
-3.628848e-07
0.006625049
-3.363367e-07
0.006625086
-3.088133e-07
0.006625119
-2.803603e-07
0.006625149
-2.510333e-07
0.006625175
-2.20898e-07
0.006625197
-1.900296e-07
0.006625216
-1.585131e-07
0.006625231
-1.264414e-07
0.006625243
-9.391671e-08
0.00662525
-6.103945e-08
-2.795788e-08
0.006619121
-6.733856e-08
0.006619126
-1.200182e-07
0.006619135
-1.569288e-07
0.006619149
-1.921476e-07
0.006619166
-2.271204e-07
0.006619188
-2.606105e-07
0.006619214
-2.92531e-07
0.006619245
-3.232488e-07
0.006619279
-3.529348e-07
0.006619317
-3.816165e-07
0.006619359
-4.093052e-07
0.006619403
-4.360062e-07
0.006619451
-4.617111e-07
0.006619502
-4.864051e-07
0.006619555
-5.100745e-07
0.00661961
-5.327093e-07
0.006619668
-5.543049e-07
0.006619728
-5.748626e-07
0.00661979
-5.943895e-07
0.006619854
-6.128985e-07
0.006619919
-6.304076e-07
0.006619987
-6.469391e-07
0.006620055
-6.625189e-07
0.006620125
-6.771758e-07
0.006620197
-6.90941e-07
0.006620269
-7.038471e-07
0.006620343
-7.159278e-07
0.006620418
-7.272173e-07
0.006620494
-7.377496e-07
0.00662057
-7.475588e-07
0.006620648
-7.566781e-07
0.006620726
-7.651399e-07
0.006620805
-7.729752e-07
0.006620885
-7.802142e-07
0.006620965
-7.868852e-07
0.006621046
-7.930152e-07
0.006621127
-7.986294e-07
0.006621209
-8.037515e-07
0.006621291
-8.084032e-07
0.006621373
-8.126046e-07
0.006621456
-8.163741e-07
0.006621539
-8.197279e-07
0.006621622
-8.226809e-07
0.006621706
-8.252458e-07
0.00662179
-8.274338e-07
0.006621874
-8.292539e-07
0.006621958
-8.307139e-07
0.006622042
-8.318192e-07
0.006622126
-8.325739e-07
0.00662221
-8.329801e-07
0.006622295
-8.330381e-07
0.006622379
-8.327466e-07
0.006622463
-8.321024e-07
0.006622547
-8.311004e-07
0.006622631
-8.29734e-07
0.006622715
-8.279945e-07
0.006622799
-8.258716e-07
0.006622883
-8.233529e-07
0.006622966
-8.204243e-07
0.006623049
-8.170699e-07
0.006623131
-8.132718e-07
0.006623214
-8.090101e-07
0.006623296
-8.042633e-07
0.006623377
-7.990076e-07
0.006623458
-7.932176e-07
0.006623538
-7.868658e-07
0.006623618
-7.799232e-07
0.006623697
-7.723585e-07
0.006623775
-7.641393e-07
0.006623853
-7.552309e-07
0.00662393
-7.455978e-07
0.006624006
-7.352027e-07
0.00662408
-7.240074e-07
0.006624154
-7.119727e-07
0.006624226
-6.99059e-07
0.006624298
-6.852264e-07
0.006624367
-6.704352e-07
0.006624436
-6.546464e-07
0.006624502
-6.378221e-07
0.006624568
-6.199264e-07
0.006624631
-6.009257e-07
0.006624692
-5.8079e-07
0.006624751
-5.594931e-07
0.006624808
-5.370137e-07
0.006624863
-5.133365e-07
0.006624915
-4.884529e-07
0.006624964
-4.623622e-07
0.006625011
-4.35072e-07
0.006625054
-4.065999e-07
0.006625095
-3.769734e-07
0.006625133
-3.462313e-07
0.006625167
-3.144237e-07
0.006625197
-2.816126e-07
0.006625224
-2.478719e-07
0.006625247
-2.13287e-07
0.006625267
-1.779546e-07
0.006625282
-1.419811e-07
0.006625294
-1.054846e-07
0.006625301
-6.858077e-08
-3.144256e-08
0.006619103
-6.955908e-08
0.00661911
-1.265836e-07
0.006619121
-1.673648e-07
0.006619137
-2.065554e-07
0.006619156
-2.458401e-07
0.006619179
-2.836933e-07
0.006619207
-3.19859e-07
0.006619238
-3.546528e-07
0.006619274
-3.88217e-07
0.006619313
-4.205619e-07
0.006619355
-4.516949e-07
0.006619401
-4.816252e-07
0.006619449
-5.103526e-07
0.0066195
-5.378719e-07
0.006619554
-5.641796e-07
0.006619611
-5.892764e-07
0.00661967
-6.131676e-07
0.006619731
-6.358643e-07
0.006619794
-6.573829e-07
0.006619858
-6.777451e-07
0.006619925
-6.969772e-07
0.006619993
-7.151096e-07
0.006620062
-7.321757e-07
0.006620133
-7.482116e-07
0.006620206
-7.632551e-07
0.006620279
-7.773454e-07
0.006620354
-7.905221e-07
0.006620429
-8.028252e-07
0.006620506
-8.142942e-07
0.006620583
-8.24968e-07
0.006620661
-8.348845e-07
0.00662074
-8.440804e-07
0.00662082
-8.52591e-07
0.0066209
-8.6045e-07
0.006620981
-8.676892e-07
0.006621062
-8.743388e-07
0.006621144
-8.804269e-07
0.006621226
-8.859798e-07
0.006621308
-8.910216e-07
0.006621391
-8.955746e-07
0.006621475
-8.99659e-07
0.006621558
-9.03293e-07
0.006621642
-9.064927e-07
0.006621726
-9.092723e-07
0.00662181
-9.11644e-07
0.006621894
-9.136179e-07
0.006621979
-9.152023e-07
0.006622063
-9.164035e-07
0.006622148
-9.172257e-07
0.006622233
-9.176714e-07
0.006622317
-9.177409e-07
0.006622402
-9.174328e-07
0.006622487
-9.167435e-07
0.006622571
-9.156676e-07
0.006622656
-9.141978e-07
0.00662274
-9.123245e-07
0.006622824
-9.100365e-07
0.006622908
-9.073202e-07
0.006622992
-9.041602e-07
0.006623075
-9.005389e-07
0.006623158
-8.964366e-07
0.006623241
-8.918315e-07
0.006623324
-8.866998e-07
0.006623406
-8.810152e-07
0.006623487
-8.747498e-07
0.006623568
-8.67873e-07
0.006623648
-8.603526e-07
0.006623728
-8.521539e-07
0.006623807
-8.432406e-07
0.006623886
-8.335742e-07
0.006623963
-8.231147e-07
0.00662404
-8.118204e-07
0.006624115
-7.99648e-07
0.00662419
-7.865534e-07
0.006624263
-7.724916e-07
0.006624336
-7.574169e-07
0.006624406
-7.412839e-07
0.006624476
-7.240477e-07
0.006624544
-7.056643e-07
0.00662461
-6.860916e-07
0.006624674
-6.652902e-07
0.006624737
-6.432239e-07
0.006624797
-6.198608e-07
0.006624855
-5.951747e-07
0.006624911
-5.691454e-07
0.006624964
-5.417603e-07
0.006625015
-5.130156e-07
0.006625063
-4.82917e-07
0.006625107
-4.514814e-07
0.006625149
-4.18737e-07
0.006625188
-3.847252e-07
0.006625223
-3.495005e-07
0.006625254
-3.131311e-07
0.006625282
-2.756994e-07
0.006625306
-2.373012e-07
0.006625326
-1.98046e-07
0.006625342
-1.580546e-07
0.006625354
-1.174616e-07
0.006625362
-7.639964e-08
-3.506551e-08
0.006619081
-7.304619e-08
0.00661909
-1.347556e-07
0.006619103
-1.793967e-07
0.00661912
-2.224931e-07
0.00661914
-2.65995e-07
0.006619165
-3.081183e-07
0.006619194
-3.48461e-07
0.006619227
-3.872936e-07
0.006619263
-4.247236e-07
0.006619303
-4.607359e-07
0.006619347
-4.953256e-07
0.006619394
-5.285001e-07
0.006619444
-5.602624e-07
0.006619496
-5.90614e-07
0.006619552
-6.195603e-07
0.006619609
-6.471117e-07
0.006619669
-6.732838e-07
0.006619731
-6.98098e-07
0.006619796
-7.215807e-07
0.006619861
-7.437633e-07
0.006619929
-7.646816e-07
0.006619998
-7.843747e-07
0.006620069
-8.028845e-07
0.006620141
-8.20255e-07
0.006620214
-8.365317e-07
0.006620288
-8.517605e-07
0.006620364
-8.65988e-07
0.00662044
-8.7926e-07
0.006620518
-8.916218e-07
0.006620596
-9.031176e-07
0.006620674
-9.137904e-07
0.006620754
-9.236813e-07
0.006620834
-9.328299e-07
0.006620915
-9.412735e-07
0.006620996
-9.490477e-07
0.006621078