/*--------------------------------*- C++ -*----------------------------------*\
| =========                 |                                                 |
| \\      /  F ield         | OpenFOAM: The Open Source CFD Toolbox           |
|  \\    /   O peration     | Version:  2.3.0                                 |
|   \\  /    A nd           | Web:      www.OpenFOAM.org                      |
|    \\/     M anipulation  |                                                 |
\*---------------------------------------------------------------------------*/
FoamFile
{
    version     2.0;
    format      ascii;
    class       volVectorField;
    location    "9700/bottomAir";
    object      U;
}
// * * * * * * * * * * * * * * * * * * * * * * * * * * * * * * * * * * * * * //

dimensions      [0 1 -1 0 0 0 0];

internalField   nonuniform List<vector> 
4000
(
(33.12687 -0.003037639 0)
(25.05831 -0.001524798 0)
(21.80282 -0.0006077437 0)
(22.66779 -0.0004692725 0)
(22.99795 -0.0003453353 0)
(22.90566 -0.0002358078 0)
(22.87246 -0.0001814054 0)
(22.8825 -0.0001527945 0)
(22.88601 -0.0001340539 0)
(22.88511 -0.000122277 0)
(22.88491 -0.0001153839 0)
(22.88518 -0.000111461 0)
(22.88537 -0.0001094314 0)
(22.88552 -0.000108685 0)
(22.88569 -0.0001088159 0)
(22.88587 -0.0001095426 0)
(22.88605 -0.0001106748 0)
(22.88624 -0.0001120786 0)
(22.88644 -0.0001136583 0)
(22.88664 -0.0001153444 0)
(22.88686 -0.000117085 0)
(22.88707 -0.0001188428 0)
(22.88729 -0.000120589 0)
(22.88752 -0.0001223032 0)
(22.88775 -0.0001239694 0)
(22.88799 -0.0001255769 0)
(22.88823 -0.0001271174 0)
(22.88848 -0.0001285857 0)
(22.88873 -0.000129978 0)
(22.88898 -0.0001312926 0)
(22.88924 -0.0001325283 0)
(22.8895 -0.0001336855 0)
(22.88976 -0.0001347645 0)
(22.89003 -0.0001357668 0)
(22.89029 -0.0001366937 0)
(22.89056 -0.0001375471 0)
(22.89084 -0.0001383289 0)
(22.89111 -0.000139041 0)
(22.89139 -0.0001396855 0)
(22.89167 -0.0001402642 0)
(22.89195 -0.000140779 0)
(22.89223 -0.0001412316 0)
(22.89251 -0.0001416237 0)
(22.89279 -0.0001419564 0)
(22.89308 -0.0001422313 0)
(22.89336 -0.0001424489 0)
(22.89365 -0.0001426105 0)
(22.89393 -0.0001427161 0)
(22.89422 -0.0001427664 0)
(22.89451 -0.0001427612 0)
(22.89479 -0.0001427004 0)
(22.89508 -0.0001425833 0)
(22.89536 -0.0001424093 0)
(22.89565 -0.0001421773 0)
(22.89594 -0.000141886 0)
(22.89622 -0.0001415335 0)
(22.89651 -0.0001411183 0)
(22.89679 -0.0001406379 0)
(22.89707 -0.0001400899 0)
(22.89735 -0.0001394713 0)
(22.89763 -0.0001387793 0)
(22.89791 -0.0001380101 0)
(22.89819 -0.0001371603 0)
(22.89846 -0.0001362257 0)
(22.89873 -0.0001352023 0)
(22.899 -0.0001340852 0)
(22.89927 -0.0001328698 0)
(22.89954 -0.000131551 0)
(22.8998 -0.0001301236 0)
(22.90006 -0.0001285819 0)
(22.90032 -0.0001269207 0)
(22.90057 -0.0001251338 0)
(22.90082 -0.0001232159 0)
(22.90106 -0.0001211606 0)
(22.9013 -0.0001189626 0)
(22.90153 -0.0001166159 0)
(22.90176 -0.0001141151 0)
(22.90199 -0.0001114548 0)
(22.90221 -0.0001086304 0)
(22.90242 -0.0001056369 0)
(22.90262 -0.0001024709 0)
(22.90282 -9.912871e-05 0)
(22.90301 -9.560811e-05 0)
(22.9032 -9.190715e-05 0)
(22.90337 -8.802551e-05 0)
(22.90354 -8.396332e-05 0)
(22.9037 -7.972256e-05 0)
(22.90385 -7.530592e-05 0)
(22.90399 -7.071807e-05 0)
(22.90412 -6.596463e-05 0)
(22.90424 -6.105337e-05 0)
(22.90435 -5.599322e-05 0)
(22.90445 -5.079557e-05 0)
(22.90454 -4.547371e-05 0)
(22.90461 -4.004469e-05 0)
(22.90468 -3.453131e-05 0)
(22.90473 -2.896718e-05 0)
(22.90477 -2.341787e-05 0)
(22.9048 -1.798109e-05 0)
(22.90482 -1.305441e-05 0)
(33.12153 -0.003792033 0)
(25.05573 -0.001640564 0)
(21.79821 -0.000491146 0)
(22.66257 -0.0004043308 0)
(22.99278 -0.0003050731 0)
(22.90041 -0.0002050587 0)
(22.86712 -0.0001716136 0)
(22.87713 -0.0001662995 0)
(22.88063 -0.0001684011 0)
(22.87972 -0.0001756808 0)
(22.87952 -0.0001864212 0)
(22.87978 -0.0001986897 0)
(22.87998 -0.0002115215 0)
(22.88013 -0.0002244728 0)
(22.8803 -0.0002372707 0)
(22.88048 -0.0002497422 0)
(22.88067 -0.000261789 0)
(22.88087 -0.0002733548 0)
(22.88107 -0.0002844087 0)
(22.88128 -0.000294936 0)
(22.8815 -0.0003049327 0)
(22.88172 -0.0003144021 0)
(22.88194 -0.0003233523 0)
(22.88217 -0.000331795 0)
(22.88241 -0.0003397442 0)
(22.88265 -0.0003472156 0)
(22.8829 -0.0003542256 0)
(22.88315 -0.0003607919 0)
(22.8834 -0.0003669318 0)
(22.88366 -0.000372663 0)
(22.88392 -0.000378003 0)
(22.88419 -0.0003829689 0)
(22.88446 -0.0003875772 0)
(22.88473 -0.0003918439 0)
(22.885 -0.0003957844 0)
(22.88528 -0.0003994131 0)
(22.88555 -0.0004027437 0)
(22.88583 -0.0004057891 0)
(22.88611 -0.0004085612 0)
(22.8864 -0.0004110709 0)
(22.88668 -0.0004133284 0)
(22.88697 -0.0004153427 0)
(22.88725 -0.0004171219 0)
(22.88754 -0.0004186732 0)
(22.88783 -0.0004200028 0)
(22.88812 -0.0004211158 0)
(22.88841 -0.0004220165 0)
(22.8887 -0.0004227082 0)
(22.88899 -0.0004231932 0)
(22.88928 -0.0004234727 0)
(22.88957 -0.0004235473 0)
(22.88986 -0.0004234163 0)
(22.89016 -0.0004230781 0)
(22.89045 -0.0004225303 0)
(22.89074 -0.0004217695 0)
(22.89103 -0.0004207911 0)
(22.89132 -0.00041959 0)
(22.8916 -0.0004181597 0)
(22.89189 -0.000416493 0)
(22.89218 -0.0004145817 0)
(22.89246 -0.0004124166 0)
(22.89274 -0.0004099878 0)
(22.89303 -0.0004072841 0)
(22.8933 -0.0004042938 0)
(22.89358 -0.0004010042 0)
(22.89386 -0.0003974016 0)
(22.89413 -0.0003934717 0)
(22.8944 -0.0003891995 0)
(22.89467 -0.0003845693 0)
(22.89493 -0.0003795647 0)
(22.89519 -0.0003741691 0)
(22.89545 -0.0003683652 0)
(22.8957 -0.0003621357 0)
(22.89595 -0.0003554633 0)
(22.8962 -0.0003483305 0)
(22.89643 -0.0003407205 0)
(22.89667 -0.0003326166 0)
(22.8969 -0.0003240032 0)
(22.89712 -0.0003148657 0)
(22.89734 -0.0003051908 0)
(22.89755 -0.0002949666 0)
(22.89775 -0.0002841836 0)
(22.89795 -0.0002728343 0)
(22.89814 -0.000260914 0)
(22.89832 -0.0002484208 0)
(22.89849 -0.0002353564 0)
(22.89865 -0.000221726 0)
(22.89881 -0.0002075388 0)
(22.89895 -0.0001928081 0)
(22.89909 -0.0001775519 0)
(22.89921 -0.0001617928 0)
(22.89933 -0.0001455582 0)
(22.89943 -0.000128881 0)
(22.89952 -0.0001117994 0)
(22.89961 -9.435814e-05 0)
(22.89967 -7.661056e-05 0)
(22.89973 -5.862174e-05 0)
(22.89978 -4.048551e-05 0)
(22.89981 -2.231711e-05 0)
(22.89984 -4.463854e-06 0)
(33.12137 -0.001447996 0)
(25.05689 -0.0007353366 0)
(21.79876 -0.000387627 0)
(22.66285 -0.0004013631 0)
(22.99309 -0.0003865954 0)
(22.90072 -0.0003538486 0)
(22.86742 -0.0003445111 0)
(22.87742 -0.0003481204 0)
(22.88093 -0.0003561168 0)
(22.88002 -0.0003675802 0)
(22.87982 -0.000381738 0)
(22.88009 -0.0003974781 0)
(22.88028 -0.0004140738 0)
(22.88044 -0.0004310809 0)
(22.88061 -0.0004481733 0)
(22.88079 -0.0004651103 0)
(22.88098 -0.0004817206 0)
(22.88117 -0.0004978823 0)
(22.88138 -0.0005135089 0)
(22.88159 -0.0005285402 0)
(22.8818 -0.0005429368 0)
(22.88202 -0.0005566739 0)
(22.88225 -0.0005697391 0)
(22.88248 -0.0005821287 0)
(22.88271 -0.0005938464 0)
(22.88296 -0.0006049011 0)
(22.8832 -0.000615306 0)
(22.88345 -0.0006250769 0)
(22.8837 -0.0006342325 0)
(22.88396 -0.0006427925 0)
(22.88422 -0.0006507778 0)
(22.88448 -0.0006582097 0)
(22.88475 -0.0006651096 0)
(22.88502 -0.0006714989 0)
(22.88529 -0.0006773981 0)
(22.88557 -0.0006828275 0)
(22.88584 -0.0006878063 0)
(22.88612 -0.0006923526 0)
(22.8864 -0.0006964836 0)
(22.88668 -0.0007002152 0)
(22.88697 -0.000703562 0)
(22.88725 -0.0007065374 0)
(22.88754 -0.0007091532 0)
(22.88782 -0.0007114201 0)
(22.88811 -0.000713347 0)
(22.8884 -0.0007149416 0)
(22.88869 -0.00071621 0)
(22.88898 -0.000717157 0)
(22.88927 -0.0007177856 0)
(22.88956 -0.0007180975 0)
(22.88985 -0.0007180929 0)
(22.89014 -0.0007177703 0)
(22.89043 -0.0007171269 0)
(22.89072 -0.0007161582 0)
(22.89101 -0.000714858 0)
(22.89129 -0.0007132191 0)
(22.89158 -0.0007112321 0)
(22.89187 -0.0007088866 0)
(22.89215 -0.00070617 0)
(22.89244 -0.0007030689 0)
(22.89272 -0.0006995676 0)
(22.893 -0.0006956495 0)
(22.89329 -0.000691296 0)
(22.89356 -0.0006864874 0)
(22.89384 -0.0006812022 0)
(22.89411 -0.0006754179 0)
(22.89439 -0.0006691102 0)
(22.89465 -0.0006622542 0)
(22.89492 -0.0006548232 0)
(22.89518 -0.0006467901 0)
(22.89544 -0.0006381266 0)
(22.8957 -0.000628804 0)
(22.89595 -0.000618793 0)
(22.8962 -0.0006080643 0)
(22.89644 -0.0005965887 0)
(22.89668 -0.0005843376 0)
(22.89692 -0.0005712829 0)
(22.89714 -0.0005573981 0)
(22.89737 -0.0005426583 0)
(22.89758 -0.0005270408 0)
(22.89779 -0.0005105254 0)
(22.898 -0.0004930956 0)
(22.89819 -0.0004747383 0)
(22.89838 -0.0004554452 0)
(22.89856 -0.0004352125 0)
(22.89873 -0.0004140424 0)
(22.89889 -0.000391943 0)
(22.89905 -0.0003689291 0)
(22.89919 -0.0003450223 0)
(22.89933 -0.0003202523 0)
(22.89945 -0.000294656 0)
(22.89956 -0.0002682787 0)
(22.89967 -0.0002411736 0)
(22.89976 -0.0002134028 0)
(22.89984 -0.0001850361 0)
(22.89991 -0.0001561519 0)
(22.89996 -0.0001268351 0)
(22.90001 -9.717398e-05 0)
(22.90004 -6.72473e-05 0)
(22.90006 -3.707831e-05 0)
(33.12097 -0.0009988456 0)
(25.05741 -0.0008471232 0)
(21.79931 -0.0006425489 0)
(22.6633 -0.0005799651 0)
(22.99354 -0.0005347139 0)
(22.90117 -0.0004924165 0)
(22.86785 -0.000471014 0)
(22.87783 -0.0004671458 0)
(22.88133 -0.0004736639 0)
(22.88041 -0.0004872223 0)
(22.8802 -0.0005057357 0)
(22.88046 -0.000527418 0)
(22.88065 -0.0005509649 0)
(22.88081 -0.0005754887 0)
(22.88097 -0.0006003655 0)
(22.88116 -0.000625151 0)
(22.88134 -0.000649533 0)
(22.88154 -0.0006732935 0)
(22.88174 -0.0006962818 0)
(22.88195 -0.0007183964 0)
(22.88216 -0.0007395713 0)
(22.88238 -0.0007597675 0)
(22.88261 -0.0007789656 0)
(22.88284 -0.0007971612 0)
(22.88308 -0.0008143611 0)
(22.88332 -0.0008305801 0)
(22.88357 -0.0008458394 0)
(22.88382 -0.0008601647 0)
(22.88407 -0.0008735844 0)
(22.88433 -0.0008861294 0)
(22.88459 -0.0008978315 0)
(22.88485 -0.000908723 0)
(22.88512 -0.0009188364 0)
(22.88539 -0.0009282033 0)
(22.88566 -0.0009368548 0)
(22.88594 -0.0009448206 0)
(22.88621 -0.0009521291 0)
(22.88649 -0.0009588072 0)
(22.88677 -0.00096488 0)
(22.88705 -0.0009703708 0)
(22.88734 -0.0009753009 0)
(22.88762 -0.0009796898 0)
(22.88791 -0.0009835548 0)
(22.88819 -0.0009869113 0)
(22.88848 -0.0009897723 0)
(22.88877 -0.000992149 0)
(22.88906 -0.0009940504 0)
(22.88935 -0.0009954832 0)
(22.88964 -0.0009964521 0)
(22.88993 -0.0009969597 0)
(22.89022 -0.0009970062 0)
(22.89051 -0.0009965899 0)
(22.8908 -0.0009957069 0)
(22.89109 -0.0009943508 0)
(22.89138 -0.0009925135 0)
(22.89167 -0.0009901843 0)
(22.89196 -0.0009873506 0)
(22.89224 -0.0009839974 0)
(22.89253 -0.0009801077 0)
(22.89281 -0.0009756621 0)
(22.8931 -0.0009706392 0)
(22.89338 -0.0009650154 0)
(22.89366 -0.0009587648 0)
(22.89394 -0.0009518596 0)
(22.89422 -0.0009442699 0)
(22.89449 -0.0009359639 0)
(22.89476 -0.0009269078 0)
(22.89503 -0.0009170663 0)
(22.8953 -0.0009064023 0)
(22.89556 -0.0008948773 0)
(22.89582 -0.0008824518 0)
(22.89608 -0.0008690852 0)
(22.89633 -0.0008547365 0)
(22.89658 -0.0008393641 0)
(22.89683 -0.000822927 0)
(22.89707 -0.0008053845 0)
(22.8973 -0.0007866972 0)
(22.89753 -0.0007668274 0)
(22.89775 -0.0007457396 0)
(22.89797 -0.0007234015 0)
(22.89818 -0.0006997846 0)
(22.89838 -0.0006748647 0)
(22.89858 -0.0006486233 0)
(22.89877 -0.0006210477 0)
(22.89895 -0.0005921326 0)
(22.89912 -0.00056188 0)
(22.89929 -0.0005303011 0)
(22.89944 -0.0004974161 0)
(22.89959 -0.0004632552 0)
(22.89972 -0.0004278593 0)
(22.89985 -0.0003912801 0)
(22.89996 -0.0003535808 0)
(22.90006 -0.0003148361 0)
(22.90016 -0.0002751319 0)
(22.90024 -0.0002345657 0)
(22.90031 -0.0001932462 0)
(22.90036 -0.0001512919 0)
(22.90041 -0.0001088324 0)
(22.90044 -6.599469e-05 0)
(22.90046 -2.294781e-05 0)
(33.12084 -0.0005582015 0)
(25.05776 -0.0005293985 0)
(21.79966 -0.0004537399 0)
(22.66355 -0.0004545868 0)
(22.99376 -0.0004698471 0)
(22.90138 -0.0004841979 0)
(22.86804 -0.0005057085 0)
(22.87801 -0.0005343391 0)
(22.8815 -0.0005668263 0)
(22.88058 -0.0006014726 0)
(22.88037 -0.0006373849 0)
(22.88063 -0.0006737936 0)
(22.88083 -0.0007100973 0)
(22.88098 -0.000745879 0)
(22.88115 -0.0007808443 0)
(22.88133 -0.0008147821 0)
(22.88152 -0.0008475441 0)
(22.88172 -0.0008790297 0)
(22.88192 -0.0009091743 0)
(22.88213 -0.0009379401 0)
(22.88235 -0.0009653105 0)
(22.88257 -0.000991285 0)
(22.8828 -0.001015876 0)
(22.88303 -0.001039106 0)
(22.88327 -0.001061003 0)
(22.88351 -0.001081604 0)
(22.88376 -0.001100946 0)
(22.88401 -0.001119074 0)
(22.88427 -0.00113603 0)
(22.88453 -0.00115186 0)
(22.88479 -0.001166609 0)
(22.88505 -0.001180323 0)
(22.88532 -0.001193044 0)
(22.88559 -0.001204818 0)
(22.88586 -0.001215684 0)
(22.88614 -0.001225683 0)
(22.88642 -0.001234852 0)
(22.8867 -0.001243228 0)
(22.88698 -0.001250842 0)
(22.88726 -0.001257725 0)
(22.88754 -0.001263906 0)
(22.88783 -0.00126941 0)
(22.88812 -0.001274259 0)
(22.8884 -0.001278473 0)
(22.88869 -0.00128207 0)
(22.88898 -0.001285065 0)
(22.88927 -0.001287468 0)
(22.88956 -0.00128929 0)
(22.88985 -0.001290536 0)
(22.89014 -0.001291209 0)
(22.89043 -0.00129131 0)
(22.89072 -0.001290838 0)
(22.89101 -0.001289787 0)
(22.8913 -0.001288149 0)
(22.89159 -0.001285914 0)
(22.89188 -0.001283068 0)
(22.89217 -0.001279595 0)
(22.89246 -0.001275476 0)
(22.89275 -0.00127069 0)
(22.89303 -0.00126521 0)
(22.89332 -0.00125901 0)
(22.8936 -0.00125206 0)
(22.89388 -0.001244325 0)
(22.89416 -0.001235771 0)
(22.89444 -0.001226358 0)
(22.89471 -0.001216045 0)
(22.89499 -0.00120479 0)
(22.89526 -0.001192545 0)
(22.89553 -0.001179262 0)
(22.89579 -0.001164893 0)
(22.89605 -0.001149385 0)
(22.89631 -0.001132686 0)
(22.89656 -0.001114742 0)
(22.89681 -0.001095499 0)
(22.89706 -0.001074903 0)
(22.8973 -0.001052901 0)
(22.89754 -0.001029441 0)
(22.89777 -0.001004473 0)
(22.89799 -0.0009779504 0)
(22.89821 -0.00094983 0)
(22.89842 -0.0009200735 0)
(22.89863 -0.0008886486 0)
(22.89883 -0.0008555296 0)
(22.89902 -0.0008206987 0)
(22.8992 -0.0007841472 0)
(22.89937 -0.0007458765 0)
(22.89954 -0.0007058993 0)
(22.89969 -0.0006642402 0)
(22.89984 -0.0006209368 0)
(22.89998 -0.0005760408 0)
(22.9001 -0.0005296177 0)
(22.90022 -0.000481748 0)
(22.90032 -0.0004325268 0)
(22.90042 -0.0003820639 0)
(22.9005 -0.0003304829 0)
(22.90057 -0.0002779208 0)
(22.90063 -0.0002245248 0)
(22.90067 -0.0001704539 0)
(22.9007 -0.00011586 0)
(22.90073 -6.095981e-05 0)
(33.12066 -0.0004113613 0)
(25.05782 -0.0005007635 0)
(21.79975 -0.0005229571 0)
(22.66363 -0.0005614335 0)
(22.99385 -0.000596486 0)
(22.90147 -0.0006253127 0)
(22.86814 -0.0006548052 0)
(22.87811 -0.0006875252 0)
(22.8816 -0.0007230359 0)
(22.88068 -0.0007606905 0)
(22.88047 -0.0007999465 0)
(22.88073 -0.0008402014 0)
(22.88092 -0.0008808697 0)
(22.88107 -0.0009214556 0)
(22.88125 -0.0009615573 0)
(22.88143 -0.001000855 0)
(22.88162 -0.001039101 0)
(22.88182 -0.00107611 0)
(22.88202 -0.001111746 0)
(22.88223 -0.001145915 0)
(22.88245 -0.001178557 0)
(22.88267 -0.001209637 0)
(22.8829 -0.001239145 0)
(22.88314 -0.001267085 0)
(22.88338 -0.001293475 0)
(22.88362 -0.001318344 0)
(22.88387 -0.001341728 0)
(22.88412 -0.001363668 0)
(22.88438 -0.001384212 0)
(22.88464 -0.001403407 0)
(22.8849 -0.001421303 0)
(22.88516 -0.001437952 0)
(22.88543 -0.001453403 0)
(22.88571 -0.001467706 0)
(22.88598 -0.001480909 0)
(22.88626 -0.001493058 0)
(22.88653 -0.001504197 0)
(22.88681 -0.001514367 0)
(22.8871 -0.001523608 0)
(22.88738 -0.001531955 0)
(22.88766 -0.001539441 0)
(22.88795 -0.001546096 0)
(22.88824 -0.001551946 0)
(22.88853 -0.001557016 0)
(22.88881 -0.001561326 0)
(22.8891 -0.001564892 0)
(22.88939 -0.001567728 0)
(22.88968 -0.001569844 0)
(22.88998 -0.001571249 0)
(22.89027 -0.001571944 0)
(22.89056 -0.001571931 0)
(22.89085 -0.001571206 0)
(22.89114 -0.001569764 0)
(22.89143 -0.001567594 0)
(22.89172 -0.001564683 0)
(22.89201 -0.001561014 0)
(22.8923 -0.001556568 0)
(22.89259 -0.001551321 0)
(22.89288 -0.001545246 0)
(22.89316 -0.001538313 0)
(22.89345 -0.001530487 0)
(22.89373 -0.001521732 0)
(22.89401 -0.001512006 0)
(22.89429 -0.001501266 0)
(22.89457 -0.001489464 0)
(22.89485 -0.00147655 0)
(22.89512 -0.001462471 0)
(22.89539 -0.001447169 0)
(22.89566 -0.001430586 0)
(22.89593 -0.001412661 0)
(22.89619 -0.001393329 0)
(22.89645 -0.001372526 0)
(22.89671 -0.001350186 0)
(22.89696 -0.001326241 0)
(22.8972 -0.001300625 0)
(22.89745 -0.001273271 0)
(22.89768 -0.001244115 0)
(22.89792 -0.001213094 0)
(22.89814 -0.00118015 0)
(22.89836 -0.001145228 0)
(22.89858 -0.00110828 0)
(22.89878 -0.001069264 0)
(22.89898 -0.001028148 0)
(22.89918 -0.0009849063 0)
(22.89936 -0.000939528 0)
(22.89954 -0.0008920125 0)
(22.8997 -0.0008423736 0)
(22.89986 -0.0007906402 0)
(22.90001 -0.000736857 0)
(22.90015 -0.0006810862 0)
(22.90028 -0.0006234075 0)
(22.90039 -0.0005639191 0)
(22.9005 -0.0005027375 0)
(22.90059 -0.0004399975 0)
(22.90068 -0.0003758514 0)
(22.90075 -0.0003104682 0)
(22.90081 -0.0002440308 0)
(22.90085 -0.0001767383 0)
(22.90088 -0.000108784 0)
(22.90091 -4.045057e-05 0)
(33.12056 -0.0003011758 0)
(25.05787 -0.0004137746 0)
(21.79983 -0.0004662752 0)
(22.66371 -0.0005230194 0)
(22.99393 -0.0005789241 0)
(22.90155 -0.0006319052 0)
(22.86821 -0.0006848687 0)
(22.87818 -0.0007392894 0)
(22.88166 -0.0007948943 0)
(22.88073 -0.0008510488 0)
(22.88053 -0.0009072176 0)
(22.88078 -0.0009629146 0)
(22.88097 -0.0010177 0)
(22.88113 -0.001071212 0)
(22.8813 -0.001123172 0)
(22.88148 -0.001173371 0)
(22.88168 -0.001221659 0)
(22.88188 -0.001267932 0)
(22.88208 -0.001312127 0)
(22.8823 -0.001354214 0)
(22.88252 -0.001394186 0)
(22.88274 -0.001432058 0)
(22.88297 -0.00146786 0)
(22.88321 -0.001501635 0)
(22.88345 -0.001533434 0)
(22.88369 -0.001563317 0)
(22.88394 -0.001591349 0)
(22.8842 -0.001617595 0)
(22.88446 -0.001642126 0)
(22.88472 -0.001665012 0)
(22.88498 -0.001686323 0)
(22.88525 -0.001706127 0)
(22.88552 -0.001724493 0)
(22.88579 -0.001741484 0)
(22.88607 -0.001757163 0)
(22.88635 -0.00177159 0)
(22.88663 -0.001784821 0)
(22.88691 -0.001796909 0)
(22.88719 -0.001807902 0)
(22.88747 -0.001817845 0)
(22.88776 -0.001826781 0)
(22.88805 -0.001834747 0)
(22.88833 -0.001841775 0)
(22.88862 -0.001847896 0)
(22.88891 -0.001853134 0)
(22.8892 -0.001857512 0)
(22.88949 -0.001861046 0)
(22.88979 -0.001863749 0)
(22.89008 -0.001865631 0)
(22.89037 -0.001866697 0)
(22.89066 -0.001866948 0)
(22.89095 -0.001866381 0)
(22.89125 -0.001864989 0)
(22.89154 -0.001862761 0)
(22.89183 -0.001859681 0)
(22.89212 -0.001855731 0)
(22.89241 -0.001850887 0)
(22.8927 -0.001845121 0)
(22.89299 -0.001838401 0)
(22.89328 -0.001830693 0)
(22.89356 -0.001821955 0)
(22.89385 -0.001812144 0)
(22.89413 -0.001801211 0)
(22.89441 -0.001789104 0)
(22.89469 -0.001775767 0)
(22.89497 -0.00176114 0)
(22.89524 -0.001745158 0)
(22.89552 -0.001727755 0)
(22.89579 -0.00170886 0)
(22.89605 -0.001688399 0)
(22.89632 -0.001666296 0)
(22.89658 -0.001642473 0)
(22.89684 -0.00161685 0)
(22.89709 -0.001589346 0)
(22.89734 -0.00155988 0)
(22.89758 -0.001528371 0)
(22.89782 -0.001494741 0)
(22.89806 -0.001458913 0)
(22.89829 -0.001420815 0)
(22.89851 -0.001380381 0)
(22.89872 -0.001337548 0)
(22.89893 -0.001292265 0)
(22.89914 -0.001244489 0)
(22.89933 -0.001194189 0)
(22.89952 -0.001141347 0)
(22.8997 -0.001085958 0)
(22.89987 -0.001028038 0)
(22.90003 -0.0009676154 0)
(22.90018 -0.0009047423 0)
(22.90032 -0.0008394897 0)
(22.90045 -0.0007719505 0)
(22.90057 -0.0007022399 0)
(22.90067 -0.0006304955 0)
(22.90077 -0.0005568771 0)
(22.90085 -0.0004815655 0)
(22.90093 -0.0004047623 0)
(22.90099 -0.0003266855 0)
(22.90103 -0.0002475733 0)
(22.90106 -0.000167657 0)
(22.90109 -8.727766e-05 0)
(33.12044 -0.0002612969 0)
(25.05783 -0.0004056488 0)
(21.79982 -0.000494155 0)
(22.6637 -0.0005795497 0)
(22.99393 -0.0006610337 0)
(22.90155 -0.0007364459 0)
(22.86822 -0.0008077255 0)
(22.87819 -0.000876797 0)
(22.88168 -0.0009443615 0)
(22.88075 -0.001010544 0)
(22.88054 -0.001075354 0)
(22.8808 -0.001138718 0)
(22.881 -0.001200491 0)
(22.88115 -0.001260508 0)
(22.88133 -0.001318611 0)
(22.88151 -0.001374667 0)
(22.88171 -0.001428567 0)
(22.88191 -0.001480229 0)
(22.88212 -0.001529601 0)
(22.88233 -0.001576653 0)
(22.88256 -0.001621378 0)
(22.88278 -0.001663789 0)
(22.88302 -0.001703915 0)
(22.88325 -0.001741796 0)
(22.8835 -0.001777484 0)
(22.88375 -0.00181104 0)
(22.884 -0.00184253 0)
(22.88425 -0.001872025 0)
(22.88451 -0.001899597 0)
(22.88478 -0.001925323 0)
(22.88504 -0.001949276 0)
(22.88531 -0.001971532 0)
(22.88558 -0.001992163 0)
(22.88586 -0.002011239 0)
(22.88613 -0.00202883 0)
(22.88641 -0.002045 0)
(22.88669 -0.002059811 0)
(22.88697 -0.00207332 0)
(22.88726 -0.002085581 0)
(22.88754 -0.002096644 0)
(22.88783 -0.002106555 0)
(22.88812 -0.002115354 0)
(22.88841 -0.002123078 0)
(22.8887 -0.00212976 0)
(22.88899 -0.002135427 0)
(22.88928 -0.002140102 0)
(22.88957 -0.002143803 0)
(22.88986 -0.002146547 0)
(22.89016 -0.00214834 0)
(22.89045 -0.00214919 0)
(22.89074 -0.002149096 0)
(22.89103 -0.002148055 0)
(22.89133 -0.002146057 0)
(22.89162 -0.002143089 0)
(22.89191 -0.002139134 0)
(22.8922 -0.002134169 0)
(22.89249 -0.002128167 0)
(22.89278 -0.002121096 0)
(22.89307 -0.002112919 0)
(22.89336 -0.002103594 0)
(22.89365 -0.002093076 0)
(22.89393 -0.002081313 0)
(22.89422 -0.002068249 0)
(22.8945 -0.002053825 0)
(22.89478 -0.002037974 0)
(22.89506 -0.002020628 0)
(22.89534 -0.002001712 0)
(22.89561 -0.001981148 0)
(22.89588 -0.001958853 0)
(22.89615 -0.001934743 0)
(22.89642 -0.001908729 0)
(22.89668 -0.001880718 0)
(22.89694 -0.001850617 0)
(22.8972 -0.001818331 0)
(22.89745 -0.001783765 0)
(22.89769 -0.001746824 0)
(22.89793 -0.001707413 0)
(22.89817 -0.001665443 0)
(22.8984 -0.001620826 0)
(22.89863 -0.001573482 0)
(22.89885 -0.001523338 0)
(22.89906 -0.001470328 0)
(22.89926 -0.001414399 0)
(22.89946 -0.001355513 0)
(22.89965 -0.001293643 0)
(22.89983 -0.001228781 0)
(22.9 -0.001160941 0)
(22.90017 -0.001090154 0)
(22.90032 -0.001016475 0)
(22.90046 -0.0009399868 0)
(22.90059 -0.0008607938 0)
(22.90072 -0.000779029 0)
(22.90083 -0.000694852 0)
(22.90092 -0.0006084489 0)
(22.90101 -0.0005200319 0)
(22.90108 -0.0004298376 0)
(22.90114 -0.0003381236 0)
(22.90119 -0.0002451724 0)
(22.90122 -0.0001512597 0)
(22.90125 -5.679355e-05 0)
(33.12034 -0.0002363604 0)
(25.0578 -0.0003936229 0)
(21.79981 -0.0004969134 0)
(22.6637 -0.0005948383 0)
(22.99393 -0.0006900806 0)
(22.90156 -0.0007801716 0)
(22.86822 -0.0008661497 0)
(22.8782 -0.0009496449 0)
(22.88169 -0.001031294 0)
(22.88076 -0.001111143 0)
(22.88055 -0.001189116 0)
(22.88082 -0.001265084 0)
(22.88101 -0.00133887 0)
(22.88117 -0.001410288 0)
(22.88134 -0.001479174 0)
(22.88153 -0.001545398 0)
(22.88173 -0.00160886 0)
(22.88193 -0.001669496 0)
(22.88214 -0.001727274 0)
(22.88236 -0.001782187 0)
(22.88258 -0.001834256 0)
(22.88281 -0.001883517 0)
(22.88305 -0.001930028 0)
(22.88329 -0.001973855 0)
(22.88354 -0.002015077 0)
(22.88379 -0.002053779 0)
(22.88404 -0.002090052 0)
(22.8843 -0.00212399 0)
(22.88456 -0.002155689 0)
(22.88482 -0.002185246 0)
(22.88509 -0.002212754 0)
(22.88536 -0.002238307 0)
(22.88564 -0.002261995 0)
(22.88591 -0.002283906 0)
(22.88619 -0.002304123 0)
(22.88647 -0.002322725 0)
(22.88675 -0.002339786 0)
(22.88704 -0.002355377 0)
(22.88732 -0.002369561 0)
(22.88761 -0.002382398 0)
(22.8879 -0.002393943 0)
(22.88819 -0.002404245 0)
(22.88848 -0.002413348 0)
(22.88877 -0.002421289 0)
(22.88906 -0.002428103 0)
(22.88935 -0.002433816 0)
(22.88964 -0.002438452 0)
(22.88994 -0.002442028 0)
(22.89023 -0.002444555 0)
(22.89052 -0.00244604 0)
(22.89082 -0.002446485 0)
(22.89111 -0.002445885 0)
(22.89141 -0.002444231 0)
(22.8917 -0.00244151 0)
(22.89199 -0.0024377 0)
(22.89229 -0.002432776 0)
(22.89258 -0.002426709 0)
(22.89287 -0.002419461 0)
(22.89316 -0.002410991 0)
(22.89345 -0.002401253 0)
(22.89374 -0.002390193 0)
(22.89403 -0.002377753 0)
(22.89431 -0.00236387 0)
(22.8946 -0.002348475 0)
(22.89488 -0.002331493 0)
(22.89516 -0.002312845 0)
(22.89544 -0.002292446 0)
(22.89571 -0.002270205 0)
(22.89599 -0.002246029 0)
(22.89626 -0.002219818 0)
(22.89653 -0.002191469 0)
(22.89679 -0.002160878 0)
(22.89705 -0.002127934 0)
(22.89731 -0.002092527 0)
(22.89756 -0.002054547 0)
(22.89781 -0.00201388 0)
(22.89806 -0.001970417 0)
(22.8983 -0.00192405 0)
(22.89853 -0.001874677 0)
(22.89876 -0.0018222 0)
(22.89898 -0.001766531 0)
(22.8992 -0.00170759 0)
(22.8994 -0.001645311 0)
(22.8996 -0.001579642 0)
(22.8998 -0.00151055 0)
(22.89998 -0.001438018 0)
(22.90016 -0.001362055 0)
(22.90032 -0.001282693 0)
(22.90048 -0.001199991 0)
(22.90063 -0.001114036 0)
(22.90076 -0.001024946 0)
(22.90088 -0.0009328693 0)
(22.901 -0.0008379882 0)
(22.9011 -0.0007405153 0)
(22.90118 -0.0006406941 0)
(22.90126 -0.0005387981 0)
(22.90132 -0.0004351261 0)
(22.90137 -0.0003300066 0)
(22.90141 -0.0002237613 0)
(22.90143 -0.0001168668 0)
(33.12024 -0.0002325859 0)
(25.05773 -0.0004072052 0)
(21.79977 -0.0005284075 0)
(22.66366 -0.0006442968 0)
(22.99389 -0.0007587676 0)
(22.90153 -0.0008679277 0)
(22.8682 -0.0009717667 0)
(22.87817 -0.001071596 0)
(22.88167 -0.001168019 0)
(22.88074 -0.001261158 0)
(22.88054 -0.00135107 0)
(22.88081 -0.001437787 0)
(22.881 -0.00152129 0)
(22.88116 -0.001601538 0)
(22.88134 -0.001678487 0)
(22.88154 -0.001752106 0)
(22.88174 -0.001822381 0)
(22.88194 -0.001889312 0)
(22.88216 -0.001952921 0)
(22.88238 -0.002013245 0)
(22.8826 -0.002070338 0)
(22.88284 -0.002124269 0)
(22.88308 -0.002175118 0)
(22.88332 -0.002222975 0)
(22.88357 -0.002267935 0)
(22.88382 -0.002310101 0)
(22.88408 -0.00234958 0)
(22.88434 -0.002386478 0)
(22.8846 -0.002420904 0)
(22.88487 -0.002452965 0)
(22.88514 -0.002482766 0)
(22.88541 -0.002510412 0)
(22.88569 -0.002536001 0)
(22.88596 -0.00255963 0)
(22.88624 -0.002581388 0)
(22.88652 -0.002601364 0)
(22.88681 -0.002619637 0)
(22.88709 -0.002636284 0)
(22.88738 -0.002651375 0)
(22.88767 -0.002664974 0)
(22.88796 -0.002677141 0)
(22.88825 -0.002687928 0)
(22.88854 -0.002697384 0)
(22.88883 -0.002705549 0)
(22.88912 -0.002712459 0)
(22.88942 -0.002718144 0)
(22.88971 -0.002722628 0)
(22.89001 -0.00272593 0)
(22.8903 -0.002728062 0)
(22.89059 -0.002729031 0)
(22.89089 -0.002728837 0)
(22.89118 -0.002727477 0)
(22.89148 -0.00272494 0)
(22.89177 -0.002721208 0)
(22.89207 -0.002716261 0)
(22.89236 -0.002710069 0)
(22.89265 -0.002702599 0)
(22.89295 -0.00269381 0)
(22.89324 -0.002683656 0)
(22.89353 -0.002672085 0)
(22.89382 -0.002659037 0)
(22.89411 -0.00264445 0)
(22.8944 -0.00262825 0)
(22.89468 -0.002610362 0)
(22.89497 -0.002590702 0)
(22.89525 -0.002569181 0)
(22.89553 -0.002545703 0)
(22.89581 -0.002520168 0)
(22.89608 -0.002492468 0)
(22.89635 -0.002462493 0)
(22.89663 -0.002430126 0)
(22.89689 -0.002395247 0)
(22.89716 -0.002357732 0)
(22.89742 -0.002317454 0)
(22.89767 -0.002274286 0)
(22.89792 -0.002228099 0)
(22.89817 -0.002178767 0)
(22.89841 -0.002126163 0)
(22.89865 -0.002070168 0)
(22.89888 -0.002010668 0)
(22.89911 -0.001947556 0)
(22.89933 -0.001880739 0)
(22.89954 -0.001810134 0)
(22.89974 -0.001735678 0)
(22.89994 -0.001657323 0)
(22.90013 -0.001575048 0)
(22.9003 -0.001488854 0)
(22.90047 -0.00139877 0)
(22.90063 -0.001304857 0)
(22.90078 -0.00120721 0)
(22.90092 -0.001105957 0)
(22.90105 -0.001001265 0)
(22.90116 -0.0008933355 0)
(22.90127 -0.0007824114 0)
(22.90136 -0.0006687697 0)
(22.90143 -0.000552724 0)
(22.9015 -0.0004346178 0)
(22.90155 -0.0003148311 0)
(22.90158 -0.0001937364 0)
(22.90161 -7.188729e-05 0)
(33.12014 -0.0002354085 0)
(25.05766 -0.0004239895 0)
(21.79972 -0.0005576229 0)
(22.66362 -0.0006857446 0)
(22.99385 -0.0008135126 0)
(22.90149 -0.0009361677 0)
(22.86817 -0.001053185 0)
(22.87815 -0.001165786 0)
(22.88164 -0.001274546 0)
(22.88072 -0.001379558 0)
(22.88053 -0.001480868 0)
(22.88079 -0.001578507 0)
(22.88099 -0.001672453 0)
(22.88116 -0.001762665 0)
(22.88134 -0.001849099 0)
(22.88154 -0.001931725 0)
(22.88174 -0.002010533 0)
(22.88195 -0.002085531 0)
(22.88217 -0.00215675 0)
(22.88239 -0.002224239 0)
(22.88262 -0.002288067 0)
(22.88286 -0.00234832 0)
(22.8831 -0.002405096 0)
(22.88335 -0.002458502 0)
(22.8836 -0.002508655 0)
(22.88385 -0.002555678 0)
(22.88411 -0.002599695 0)
(22.88437 -0.002640835 0)
(22.88464 -0.002679223 0)
(22.88491 -0.002714987 0)
(22.88518 -0.00274825 0)
(22.88546 -0.002779131 0)
(22.88574 -0.002807745 0)
(22.88601 -0.002834204 0)
(22.8863 -0.002858612 0)
(22.88658 -0.002881069 0)
(22.88687 -0.002901668 0)
(22.88715 -0.002920495 0)
(22.88744 -0.00293763 0)
(22.88773 -0.002953149 0)
(22.88802 -0.002967116 0)
(22.88831 -0.002979594 0)
(22.88861 -0.002990635 0)
(22.8889 -0.003000287 0)
(22.88919 -0.00300859 0)
(22.88949 -0.003015578 0)
(22.88978 -0.003021278 0)
(22.89008 -0.003025711 0)
(22.89037 -0.003028891 0)
(22.89067 -0.003030827 0)
(22.89097 -0.003031519 0)
(22.89126 -0.003030962 0)
(22.89156 -0.003029146 0)
(22.89186 -0.003026051 0)
(22.89215 -0.003021652 0)
(22.89245 -0.00301592 0)
(22.89274 -0.003008815 0)
(22.89303 -0.003000293 0)
(22.89333 -0.002990302 0)
(22.89362 -0.002978785 0)
(22.89391 -0.002965675 0)
(22.8942 -0.002950902 0)
(22.89449 -0.002934385 0)
(22.89478 -0.002916038 0)
(22.89507 -0.002895768 0)
(22.89535 -0.002873476 0)
(22.89563 -0.002849054 0)
(22.89591 -0.002822389 0)
(22.89619 -0.002793361 0)
(22.89647 -0.002761843 0)
(22.89674 -0.002727706 0)
(22.89701 -0.002690811 0)
(22.89728 -0.00265102 0)
(22.89754 -0.002608186 0)
(22.8978 -0.002562164 0)
(22.89805 -0.002512806 0)
(22.8983 -0.002459965 0)
(22.89855 -0.002403497 0)
(22.89879 -0.002343259 0)
(22.89903 -0.002279118 0)
(22.89926 -0.002210948 0)
(22.89948 -0.002138634 0)
(22.89969 -0.002062077 0)
(22.8999 -0.001981196 0)
(22.9001 -0.001895929 0)
(22.90029 -0.001806241 0)
(22.90048 -0.001712124 0)
(22.90065 -0.001613603 0)
(22.90082 -0.001510736 0)
(22.90097 -0.001403623 0)
(22.90111 -0.0012924 0)
(22.90124 -0.001177249 0)
(22.90136 -0.001058395 0)
(22.90147 -0.0009361078 0)
(22.90156 -0.0008107006 0)
(22.90164 -0.0006825284 0)
(22.9017 -0.0005519832 0)
(22.90176 -0.0004195001 0)
(22.90179 -0.000285507 0)
(22.90182 -0.0001506407 0)
(33.12003 -0.0002460291 0)
(25.05758 -0.0004509453 0)
(21.79966 -0.0005985514 0)
(22.66356 -0.0007411251 0)
(22.9938 -0.0008846941 0)
(22.90144 -0.001023461 0)
(22.86812 -0.001156269 0)
(22.87811 -0.001284093 0)