/*--------------------------------*- C++ -*----------------------------------*\
| =========                 |                                                 |
| \\      /  F ield         | OpenFOAM: The Open Source CFD Toolbox           |
|  \\    /   O peration     | Version:  2.3.0                                 |
|   \\  /    A nd           | Web:      www.OpenFOAM.org                      |
|    \\/     M anipulation  |                                                 |
\*---------------------------------------------------------------------------*/
FoamFile
{
    version     2.0;
    format      ascii;
    class       volScalarField;
    location    "10000/wall";
    object      T;
}
// * * * * * * * * * * * * * * * * * * * * * * * * * * * * * * * * * * * * * //

dimensions      [0 0 0 1 0 0 0];

internalField   nonuniform List<scalar> 
2000
(
809.6206
809.6096
809.5886
809.5591
809.5226
809.4801
809.4323
809.3797
809.3228
809.2619
809.1975
809.1298
809.059
808.9854
808.9091
808.8304
808.7494
808.6663
808.5812
808.4942
808.4054
808.315
808.223
808.1295
808.0347
807.9386
807.8413
807.7428
807.6433
807.5428
807.4414
807.3391
807.236
807.1321
807.0275
806.9224
806.8166
806.7103
806.6035
806.4963
806.3887
806.2808
806.1726
806.0641
805.9555
805.8466
805.7377
805.6287
805.5197
805.4106
805.3017
805.1928
805.0841
804.9755
804.8672
804.7592
804.6514
804.544
804.437
804.3305
804.2244
804.1188
804.0139
803.9095
803.8058
803.7028
803.6006
803.4992
803.3987
803.299
803.2004
803.1028
803.0063
802.9109
802.8168
802.724
802.6325
802.5425
802.454
802.3671
802.2819
802.1985
802.117
802.0376
801.9602
801.8851
801.8125
801.7424
801.6751
801.6108
801.5497
801.492
801.4381
801.3883
801.343
801.3027
801.268
801.2398
801.219
801.2074
803.0091
802.9999
802.9822
802.9569
802.9248
802.8868
802.8435
802.7954
802.7431
802.6868
802.6268
802.5636
802.4973
802.4281
802.3562
802.2819
802.2053
802.1264
802.0456
801.9629
801.8783
801.7921
801.7043
801.615
801.5243
801.4323
801.3391
801.2447
801.1493
801.0528
800.9554
800.8571
800.758
800.6581
800.5575
800.4563
800.3544
800.2521
800.1492
800.0459
799.9422
799.8381
799.7338
799.6292
799.5244
799.4194
799.3143
799.2092
799.104
798.9988
798.8936
798.7886
798.6837
798.579
798.4745
798.3703
798.2664
798.1628
798.0596
797.9569
797.8546
797.7529
797.6518
797.5513
797.4514
797.3523
797.254
797.1565
797.0598
796.9641
796.8694
796.7757
796.6831
796.5917
796.5015
796.4127
796.3252
796.2392
796.1547
796.0718
795.9907
795.9114
795.834
795.7586
795.6854
795.6145
795.546
795.4802
795.4171
795.357
795.3001
795.2467
795.1971
795.1515
795.1105
795.0744
795.0439
795.0197
795.0025
794.9935
796.4069
796.3991
796.3838
796.3616
796.3331
796.2989
796.2597
796.2157
796.1675
796.1155
796.0598
796.0008
795.9387
795.8737
795.8061
795.736
795.6636
795.5889
795.5122
795.4336
795.3532
795.2711
795.1874
795.1022
795.0156
794.9276
794.8384
794.7481
794.6566
794.5641
794.4707
794.3763
794.2811
794.1851
794.0885
793.9911
793.8932
793.7947
793.6957
793.5962
793.4964
793.3962
793.2956
793.1949
793.0939
792.9927
792.8915
792.7901
792.6887
792.5873
792.486
792.3847
792.2836
792.1827
792.082
791.9815
791.8814
791.7816
791.6823
791.5833
791.4849
791.387
791.2896
791.1929
791.0969
791.0016
790.9071
790.8134
790.7206
790.6287
790.5378
790.448
790.3593
790.2718
790.1855
790.1006
790.017
789.9349
789.8544
789.7755
789.6983
789.6229
789.5495
789.4781
789.4089
789.342
789.2776
789.2157
789.1567
789.1006
789.0477
788.9983
788.9526
788.9109
788.8737
788.8413
788.8142
788.7931
788.7784
788.7709
789.8128
789.8059
789.7925
789.7728
789.7473
789.7165
789.6808
789.6405
789.5962
789.548
789.4963
789.4413
789.3832
789.3223
789.2588
789.1927
789.1243
789.0537
788.9811
788.9065
788.8302
788.7521
788.6724
788.5911
788.5085
788.4245
788.3393
788.2528
788.1653
788.0767
787.9872
787.8967
787.8054
787.7133
787.6205
787.527
787.4329
787.3382
787.243
787.1474
787.0513
786.9549
786.8582
786.7612
786.664
786.5666
786.4691
786.3715
786.2738
786.1762
786.0786
785.9811
785.8838
785.7866
785.6897
785.593
785.4966
785.4006
785.3049
785.2097
785.1151
785.0209
784.9273
784.8344
784.7421
784.6506
784.5598
784.4699
784.3809
784.2928
784.2058
784.1197
784.0349
783.9512
783.8687
783.7876
783.7079
783.6296
783.5529
783.4779
783.4046
783.3331
783.2635
783.196
783.1307
783.0677
783.0071
782.9491
782.8938
782.8416
782.7924
782.7467
782.7046
782.6665
782.6326
782.6034
782.5792
782.5605
782.5478
782.5414
783.2257
783.2196
783.2077
783.19
783.1671
783.1392
783.1066
783.0698
783.0289
782.9844
782.9363
782.8851
782.8309
782.7738
782.7142
782.652
782.5875
782.5209
782.4522
782.3815
782.3091
782.2349
782.1591
782.0818
782.0031
781.923
781.8416
781.759
781.6753
781.5906
781.5049
781.4183
781.3308
781.2425
781.1535
781.0638
780.9734
780.8826
780.7911
780.6993
780.607
780.5143
780.4213
780.3281
780.2346
780.141
780.0472
779.9533
779.8594
779.7655
779.6716
779.5779
779.4842
779.3907
779.2975
779.2045
779.1118
779.0195
778.9276
778.8361
778.7452
778.6547
778.5649
778.4756
778.3871
778.2993
778.2123
778.1261
778.0408
777.9565
777.8731
777.7909
777.7097
777.6298
777.5511
777.4737
777.3978
777.3233
777.2504
777.1791
777.1096
777.0419
776.9761
776.9123
776.8508
776.7914
776.7346
776.6802
776.6286
776.5799
776.5343
776.4921
776.4533
776.4184
776.3875
776.3611
776.3393
776.3227
776.3114
776.3058
776.6449
776.6395
776.6287
776.6129
776.5921
776.5667
776.537
776.5032
776.4656
776.4244
776.3799
776.3322
776.2816
776.2283
776.1723
776.1139
776.0532
775.9904
775.9255
775.8587
775.79
775.7197
775.6477
775.5742
775.4993
775.423
775.3454
775.2666
775.1868
775.1058
775.0239
774.941
774.8573
774.7728
774.6875
774.6015
774.515
774.4278
774.3401
774.252
774.1634
774.0744
773.9852
773.8956
773.8059
773.7159
773.6258
773.5356
773.4454
773.3551
773.265
773.1749
773.0849
772.9951
772.9055
772.8162
772.7272
772.6385
772.5503
772.4625
772.3752
772.2884
772.2022
772.1167
772.0318
771.9477
771.8643
771.7818
771.7002
771.6196
771.5399
771.4614
771.3839
771.3077
771.2327
771.159
771.0868
771.016
770.9467
770.8792
770.8133
770.7493
770.6871
770.627
770.5691
770.5133
770.46
770.4092
770.3611
770.3158
770.2735
770.2344
770.1988
770.1667
770.1386
770.1146
770.095
770.08
770.0699
770.0649
770.0698
770.0649
770.0552
770.0408
770.022
769.9989
769.9717
769.9407
769.9061
769.8681
769.8268
769.7825
769.7354
769.6856
769.6332
769.5784
769.5214
769.4622
769.401
769.3379
769.2729
769.2063
769.1381
769.0683
768.9971
768.9246
768.8507
768.7757
768.6996
768.6223
768.5441
768.465
768.385
768.3041
768.2226
768.1403
768.0574
767.9739
767.8899
767.8055
767.7205
767.6353
767.5497
767.4638
767.3776
767.2913
767.2049
767.1183
767.0317
766.9452
766.8586
766.7721
766.6858
766.5996
766.5137
766.428
766.3426
766.2576
766.173
766.0888
766.0051
765.922
765.8394
765.7575
765.6763
765.5958
765.5161
765.4372
765.3592
765.2822
765.2062
765.1312
765.0574
764.9848
764.9134
764.8434
764.7747
764.7076
764.642
764.578
764.5157
764.4552
764.3967
764.3401
764.2856
764.2334
764.1835
764.136
764.0912
764.0491
764.01
763.9739
763.9411
763.9117
763.886
763.8642
763.8465
763.833
763.8239
763.8194
763.4997
763.4953
763.4865
763.4735
763.4564
763.4354
763.4106
763.3822
763.3503
763.3152
763.2771
763.236
763.1921
763.1456
763.0967
763.0454
762.9919
762.9363
762.8787
762.8192
762.7579
762.6949
762.6303
762.5642
762.4966
762.4278
762.3576
762.2862
762.2137
762.1402
762.0656
761.9901
761.9137
761.8366
761.7587
761.68
761.6008
761.5209
761.4406
761.3597
761.2784
761.1968
761.1148
761.0325
760.95
760.8673
760.7844
760.7015
760.6185
760.5355
760.4526
760.3697
760.2869
760.2044
760.122
760.0399
759.9581
759.8767
759.7956
759.7151
759.635
759.5554
759.4764
759.3981
759.3204
759.2435
759.1674
759.0921
759.0177
758.9442
758.8718
758.8004
758.7302
758.6611
758.5933
758.5268
758.4618
758.3981
758.336
758.2756
758.2168
758.1598
758.1047
758.0516
758.0005
757.9516
757.905
757.8608
757.8191
757.7801
757.7439
757.7107
757.6805
757.6536
757.6302
757.6103
757.5942
757.582
757.5739
757.5699
756.9343
756.9302
756.9223
756.9106
756.8951
756.8759
756.8533
756.8272
756.798
756.7657
756.7305
756.6924
756.6517
756.6085
756.5628
756.5149
756.4648
756.4127
756.3585
756.3025
756.2448
756.1853
756.1243
756.0618
755.9978
755.9325
755.8659
755.7982
755.7293
755.6593
755.5883
755.5164
755.4437
755.3701
755.2958
755.2207
755.1451
755.0688
754.992
754.9147
754.837
754.759
754.6805
754.6018
754.5229
754.4437
754.3645
754.2851
754.2057
754.1262
754.0468
753.9675
753.8883
753.8093
753.7305
753.6519
753.5737
753.4958
753.4183
753.3412
753.2647
753.1886
753.1132
753.0384
752.9643
752.8909
752.8183
752.7465
752.6756
752.6057
752.5368
752.469
752.4022
752.3367
752.2724
752.2094
752.1478
752.0876
752.029
751.972
751.9166
751.863
751.8113
751.7615
751.7137
751.668
751.6246
751.5835
751.5449
751.5088
751.4754
751.4448
751.4171
751.3926
751.3712
751.3532
751.3386
751.3276
751.3202
751.3166
750.373
750.3694
750.3622
750.3516
750.3376
750.3202
750.2995
750.2758
750.249
750.2194
750.1869
750.1518
750.1141
750.074
750.0315
749.9869
749.9401
749.8913
749.8405
749.7879
749.7336
749.6776
749.6201
749.5611
749.5006
749.4388
749.3758
749.3115
749.2462
749.1797
749.1123
749.0439
748.9747
748.9047
748.8339
748.7624
748.6903
748.6175
748.5443
748.4705
748.3964
748.3218
748.2469
748.1717
748.0963
748.0207
747.945
747.8691
747.7932
747.7173
747.6414
747.5656
747.4899
747.4143
747.339
747.264
747.1893
747.1149
747.0409
746.9673
746.8942
746.8217
746.7498
746.6785
746.6078
746.5379
746.4688
746.4005
746.3331
746.2667
746.2012
746.1368
746.0735
746.0114
745.9506
745.891
745.8328
745.776
745.7208
745.6671
745.6151
745.5648
745.5164
745.4698
745.4252
745.3827
745.3423
745.3043
745.2685
745.2352
745.2045
745.1765
745.1512
745.1288
745.1094
745.093
745.0799
745.07
745.0633
745.0601
743.8156
743.8123
743.8059
743.7963
743.7836
743.7679
743.7492
743.7276
743.7032
743.6761
743.6463
743.614
743.5792
743.5421
743.5027
743.4612
743.4176
743.372
743.3246
743.2754
743.2244
743.1718
743.1177
743.0621
743.005
742.9467
742.8871
742.8263
742.7644
742.7015
742.6375
742.5726
742.5069
742.4403
742.373
742.305
742.2364
742.1671
742.0974
742.0271
741.9564
741.8854
741.8139
741.7422
741.6703
741.5982
741.5259
741.4535
741.3811
741.3086
741.2362
741.1639
741.0916
741.0196
740.9477
740.8762
740.8049
740.734
740.6634
740.5933
740.5237
740.4546
740.3861
740.3182
740.251
740.1846
740.1189
740.054
739.99
739.927
739.865
739.804
739.7441
739.6854
739.6279
739.5717
739.5168
739.4634
739.4115
739.3611
739.3123
739.2653
739.22
739.1766
739.1351
739.0957
739.0583
739.0231
738.9902
738.9596
738.9315
738.9059
738.8829
738.8625
738.845
738.8302
738.8184
738.8095
738.8036
738.8007
737.2615
737.2586
737.2529
737.2444
737.233
737.2189
737.202
737.1825
737.1603
737.1356
737.1084
737.0788
737.0469
737.0127
736.9763
736.9378
736.8974
736.855
736.8108
736.7648
736.7171
736.6678
736.617
736.5647
736.5111
736.4561
736.3999
736.3425
736.284
736.2245
736.1639
736.1025
736.0402
735.977
735.9132
735.8486
735.7834
735.7176
735.6513
735.5844
735.5172
735.4496
735.3816
735.3133
735.2448
735.1761
735.1073
735.0383
734.9693
734.9003
734.8313
734.7624
734.6936
734.625
734.5566
734.4884
734.4205
734.353
734.2859
734.2192
734.153
734.0873
734.0222
733.9577
733.8939
733.8308
733.7685
733.707
733.6464
733.5868
733.5281
733.4704
733.4139
733.3585
733.3043
733.2514
733.1998
733.1497
733.101
733.0538
733.0083
732.9644
732.9222
732.8819
732.8435
732.807
732.7725
732.7401
732.7099
732.682
732.6564
732.6331
732.6123
732.5939
732.5781
732.565
732.5544
732.5465
732.5412
732.5387
730.7106
730.7081
730.703
730.6954
730.6854
730.6728
730.6578
730.6402
730.6203
730.5979
730.5733
730.5463
730.5171
730.4857
730.4522
730.4168
730.3793
730.34
730.2989
730.2561
730.2116
730.1656
730.118
730.069
730.0187
729.967
729.9141
729.8601
729.8049
729.7487
729.6916
729.6335
729.5745
729.5148
729.4543
729.3931
729.3313
729.2689
729.2059
729.1425
729.0786
729.0144
728.9498
728.885
728.8199
728.7545
728.6891
728.6235
728.5579
728.4923
728.4267
728.3612
728.2958
728.2305
728.1655
728.1007
728.0362
727.9721
727.9083
727.845
727.7821
727.7198
727.6581
727.5969
727.5365
727.4767
727.4177
727.3596
727.3023
727.2459
727.1906
727.1362
727.0829
727.0308
726.9799
726.9302
726.8819
726.8349
726.7894
726.7454
726.703
726.6622
726.6231
726.5858
726.5503
726.5167
726.485
726.4554
726.4279
726.4025
726.3793
726.3583
726.3396
726.3232
726.3092
726.2975
726.2882
726.2812
726.2766
726.2744
724.1624
724.1602
724.1558
724.1493
724.1405
724.1295
724.1162
724.1007
724.0829
724.0628
724.0406
724.0162
723.9897
723.9611
723.9304
723.8979
723.8634
723.8271
723.7891
723.7494
723.708
723.6651
723.6208
723.575
723.5279
723.4794
723.4298
723.379
723.3272
723.2743
723.2204
723.1656
723.11
723.0536
722.9964
722.9385
722.8801
722.821
722.7614
722.7013
722.6408
722.5799
722.5187
722.4572
722.3954
722.3334
722.2713
722.2091
722.1469
722.0846
722.0223
721.9601
721.8981
721.8362
721.7745
721.713
721.6519
721.5911
721.5306
721.4706
721.4111
721.3521
721.2937
721.2358
721.1787
721.1222
721.0665
721.0116
720.9576
720.9045
720.8524
720.8013
720.7512
720.7023
720.6546
720.6081
720.5629
720.5191
720.4767
720.4358
720.3964
720.3587
720.3226
720.2882
720.2556
720.2248
720.1959
720.169
720.1441
720.1212
720.1004
720.0816
720.065
720.0506
720.0383
720.0281
720.02
720.014
720.0101
720.0081
717.6166
717.6147
717.6111
717.6056
717.5981
717.5887
717.5772
717.5636
717.5479
717.5302
717.5104
717.4885
717.4646
717.4387
717.4108
717.3811
717.3496
717.3162
717.2812
717.2445
717.2062
717.1664
717.1252
717.0825
717.0386
716.9933
716.9469
716.8993
716.8507
716.801
716.7504
716.6989
716.6465
716.5934
716.5395
716.4849
716.4297
716.3739
716.3176
716.2608
716.2036
716.146
716.0881
716.0299
715.9714
715.9128
715.854
715.7951
715.7361
715.6772
715.6182
715.5593
715.5006
715.442
715.3836
715.3254
715.2675
715.21
715.1529
715.0961
715.0399
714.9842
714.929
714.8744
714.8205
714.7673
714.7148
714.6632
714.6124
714.5625
714.5135
714.4656
714.4187
714.373
714.3284
714.285
714.243
714.2022
714.1629
714.125
714.0887
714.0539
714.0207
713.9892
713.9594
713.9314
713.9053
713.881
713.8586
713.8382
713.8197
713.8033
713.7887
713.7762
713.7656
713.7569
713.7501
713.7451
713.7419
713.7403
711.0728
711.0713
711.0685
711.064
711.0579
711.0501
711.0404
711.0288
711.0153
710.9999
710.9824
710.963
710.9417
710.9185
710.8934
710.8664
710.8377
710.8073
710.7752
710.7415
710.7062
710.6694
710.6312
710.5917
710.5508
710.5087
710.4654
710.421
710.3755
710.329
710.2816
710.2333
710.1841
710.1342
710.0835
710.0322
709.9802
709.9277
709.8746
709.8211
709.7671
709.7128
709.6581
709.6032
709.548
709.4926
709.4371
709.3814
709.3257
709.27
709.2143
709.1587
709.1032
709.0479
708.9927
708.9378
708.8832
708.8289
708.775
708.7215
708.6685
708.616
708.564
708.5127
708.462
708.412
708.3627
708.3142
708.2666
708.2198
708.174
708.1292
708.0855
708.0428
708.0013
707.9611
707.922
707.8843
707.848
707.8131
707.7797
707.7478
707.7175
707.6888
707.6619
707.6366
707.6131
707.5915
707.5716
707.5536
707.5375
707.5232
707.5108
707.5002
707.4914
707.4843
707.4788
707.4748
707.4723
707.4711
704.5306
704.5296
704.5276
704.5244
704.5198
704.5136
704.5058
704.4962
704.4849
704.4717
704.4567
704.4398
704.421
704.4004
704.378
704.3538
704.3278
704.3002
704.271
704.2402
704.2079
704.1741
704.1389
704.1024
704.0645
704.0255
703.9853
703.944
703.9016
703.8582
703.8139
703.7687
703.7227
703.676
703.6285
703.5803
703.5315
703.4822
703.4323
703.382
703.3313
703.2801
703.2287
703.1769
703.125
703.0728
703.0205
702.9681
702.9156
702.8631
702.8107
702.7583
702.706
702.6539
702.6019
702.5502
702.4988
702.4477
702.397
702.3467
702.2969
702.2476
702.1988
702.1506
702.1031
702.0562
702.0101
701.9647
701.9202
701.8766
701.8339
701.7922
701.7515
701.7119
701.6734
701.6362
701.6001
701.5654
701.532
701.5
701.4695
701.4405
701.413
701.3871
701.3629
701.3404
701.3195
701.3004
701.2831
701.2675
701.2538
701.2417
701.2315
701.2228
701.2159
701.2104
701.2063
701.2035
701.2018
701.201
697.9895
697.9892
697.9882
697.9863
697.9833
697.979
697.9731
697.9657
697.9565
697.9457
697.933
697.9186
697.9023
697.8843
697.8645
697.8431
697.8199
697.7951
697.7687
697.7407
697.7113
697.6804
697.6481
697.6146
697.5797
697.5437
697.5065
697.4682
697.4289
697.3886
697.3474
697.3053
697.2624
697.2187
697.1744
697.1293
697.0837
697.0375
696.9908
696.9436
696.896
696.8481
696.7998
696.7512
696.7025
696.6535
696.6043
696.5551
696.5058
696.4565
696.4072
696.358
696.3089
696.2599
696.2112
696.1627
696.1144
696.0665
696.019
695.9718
695.9251
695.8789
695.8333
695.7882
695.7438
695.7
695.657
695.6147
695.5733
695.5327
695.4931
695.4544
695.4167
695.3801
695.3446
695.3103
695.2772
695.2454
695.2149
695.1858
695.1582
695.1319
695.1073
695.0841
695.0626
695.0427
695.0245
695.008
694.9931
694.98
694.9686
694.9588
694.9507
694.9442
694.9391
694.9354
694.9329
694.9314
694.9306
694.9304
691.449
691.4495
691.4499
691.4497
691.4485
691.4461
691.4423
691.437
691.4301
691.4216
691.4114
691.3994
691.3857
691.3702
691.3531
691.3343
691.3138
691.2917
691.2681
691.2429
691.2163
691.1883
691.1589
691.1283
691.0964
691.0633
691.029
690.9937
690.9574
690.9201
690.8819
690.8429
690.8031
690.7625
690.7212
690.6792
690.6367
690.5936
690.55
690.5059
690.4614
690.4166
690.3715
690.326
690.2804
690.2345
690.1885
690.1424
690.0963
690.0501
690.004
689.9579
689.9119
689.8661
689.8205
689.7751
689.73
689.6852
689.6407
689.5967
689.5531
689.51
689.4674
689.4254
689.3841
689.3434
689.3034
689.2642
689.2258
689.1882
689.1515
689.1158
689.0811
689.0475
689.015
688.9836
688.9534
688.9244
688.8968
688.8705
688.8456
688.8222
688.8002
688.7798
688.761
688.7437
688.7281
688.7141
688.7017
688.6911
688.682
688.6746
688.6687
688.6643
688.6613
688.6595
688.6588
688.6588
688.6593
688.6598
684.9081
684.9102
684.9125
684.9142
684.915
684.9148
684.9132
684.9102
684.9056
684.8995
684.8916
684.8821
684.8709
684.8581
684.8435
684.8273
684.8095
684.7901
684.7692
684.7468
684.723
684.6978
684.6712
684.6434
684.6144
684.5842
684.5529
684.5205
684.4871
684.4528
684.4176
684.3815
684.3447
684.3071
684.2688
684.2299
684.1904
684.1504
684.1098
684.0688
684.0275
683.9857
683.9436
683.9013
683.8587
683.816
683.7731
683.7301
683.687
683.644
683.6009
683.5579
683.5151
683.4723
683.4298
683.3875
683.3455
683.3037
683.2624
683.2214
683.1809
683.1408
683.1013
683.0623
683.024
682.9863
682.9493
682.9131
682.8777
682.8431
682.8094
682.7766
682.7448
682.7141
682.6844
682.6559
682.6285
682.6024
682.5776
682.5541
682.5319
682.5112
682.492
682.4742
682.458
682.4434
682.4303
682.4188
682.409
682.4008
682.3941
682.3891
682.3855
682.3834
682.3825
682.3829
682.3841
682.386
682.3881
682.3898
)
;

boundaryField
{
    leftLet
    {
        type            zeroGradient;
    }
    rightLet
    {
        type            zeroGradient;
    }
    frontAndBack
    {
        type            empty;
    }
    wall_to_bottomAir
    {
        type            compressible::turbulentTemperatureCoupledBaffleMixed;
        refValue        nonuniform List<scalar> 
100
(
1199.25
1199.072
1198.778
1198.415
1198.061
1197.714
1197.366
1197.018
1196.671
1196.324
1195.977
1195.631
1195.284
1194.938
1194.593
1194.247
1193.902
1193.558
1193.213
1192.869
1192.525
1192.181
1191.837
1191.494
1191.151
1190.808
1190.466
1190.124
1189.782
1189.44
1189.099
1188.757
1188.417
1188.076
1187.735
1187.395
1187.055
1186.715
1186.376
1186.037
1185.698
1185.359
1185.02
1184.682
1184.344
1184.006
1183.669
1183.332
1182.994
1182.658
1182.321
1181.985
1181.649
1181.313
1180.977
1180.642
1180.306
1179.972
1179.637
1179.302
1178.968
1178.634
1178.3
1177.967
1177.634
1177.301
1176.968
1176.635
1176.303
1175.971
1175.639
1175.308
1174.976
1174.645
1174.314
1173.984
1173.653
1173.323
1172.994
1172.664
1172.335
1172.006
1171.677
1171.348
1171.02
1170.692
1170.364
1170.037
1169.709
1169.382
1169.056
1168.729
1168.403
1168.077
1167.752
1167.427
1167.102
1166.777
1166.453
1166.129
)
;
        refGradient     uniform 0;
        valueFraction   nonuniform List<scalar> 
100
(
0.008498584
0.008498584
0.008498584
0.008498584
0.008498584
0.008498584
0.008498584
0.008498584
0.008498584
0.008498584
0.008498584
0.008498584
0.008498584
0.008498584
0.008498584
0.008498584
0.008498584
0.008498584
0.008498584
0.008498584
0.008498584
0.008498584
0.008498584
0.008498584
0.008498584
0.008498584
0.008498584
0.008498584
0.008498584
0.008498584
0.008498584
0.008498584
0.008498584
0.008498584
0.008498584
0.008498584
0.008498584
0.008498584
0.008498584
0.008498584
0.008498584
0.008498584
0.008498584
0.008498584
0.008498584
0.008498584
0.008498584
0.008498584
0.008498584
0.008498584
0.008498584
0.008498584
0.008498584
0.008498584
0.008498584
0.008498584
0.008498584
0.008498584
0.008498584
0.008498584
0.008498584
0.008498584
0.008498584
0.008498584
0.008498584
0.008498584
0.008498584
0.008498584
0.008498584
0.008498584
0.008498584
0.008498584
0.008498584
0.008498584
0.008498584
0.008498584
0.008498584
0.008498584
0.008498584
0.008498584
0.008498584
0.008498584
0.008498584
0.008498584
0.008498584
0.008498584
0.008498584
0.008498584
0.008498584
0.008498584
0.008498584
0.008498584
0.008498584
0.008498584
0.008498584
0.008498584
0.008498584
0.008498584
0.008498584
0.008498584
)
;
        value           nonuniform List<scalar> 
100
(
812.9317
812.9193
812.896
812.8637
812.8245
812.7794
812.729
812.6739
812.6145
812.5513
812.4844
812.4143
812.3412
812.2653
812.1867
812.1057
812.0225
811.9372
811.8498
811.7606
811.6697
811.5771
811.483
811.3874
811.2905
811.1923
811.0929
810.9923
810.8908
810.7882
810.6847
810.5804
810.4752
810.3694
810.2628
810.1556
810.0479
809.9396
809.8308
809.7216
809.6121
809.5022
809.392
809.2816
809.171
809.0602
808.9493
808.8384
808.7274
808.6164
808.5055
808.3947
808.2841
808.1736
808.0634
807.9534
807.8437
807.7344
807.6254
807.5169
807.4089
807.3014
807.1945
807.0882
806.9825
806.8776
806.7734
806.67
806.5675
806.4659
806.3653
806.2657
806.1672
806.0698
805.9737
805.8789
805.7854
805.6933
805.6027
805.5138
805.4265
805.341
805.2574
805.1758
805.0964
805.0191
804.9443
804.8721
804.8026
804.736
804.6726
804.6126
804.5564
804.5042
804.4565
804.4138
804.3767
804.346
804.3226
804.3083
)
;
        Tnbr            T;
        thicknessLayers 0();
        kappaLayers     0();
        kappa           solidThermo;
        kappaName       none;
    }
    wall_to_topAir
    {
        type            compressible::turbulentTemperatureCoupledBaffleMixed;
        refValue        nonuniform List<scalar> 
100
(
299.9697
300.1791
300.3392
300.4696
300.6037
300.7408
300.8775
301.0139
301.1504
301.2869
301.4234
301.56
301.6965
301.8331
301.9697
302.1063
302.2429
302.3796
302.5162
302.6529
302.7896
302.9262
303.0629
303.1997
303.3364
303.4731
303.6099
303.7466
303.8834
304.0202
304.157
304.2938
304.4306
304.5674
304.7042
304.841
304.9779
305.1147
305.2515
305.3884
305.5253
305.6621
305.799
305.9359
306.0728
306.2097
306.3466
306.4835
306.6204
306.7573
306.8942
307.0312
307.1681
307.305
307.442
307.5789
307.7159
307.8528
307.9898
308.1268
308.2637
308.4007
308.5377
308.6747
308.8117
308.9487
309.0857
309.2228
309.3598
309.4968
309.6339
309.7709
309.908
310.045
310.1821
310.3192
310.4563
310.5934
310.7305
310.8676
311.0047
311.1419
311.279
311.4162
311.5534
311.6905
311.8277
311.9649
312.1022
312.2394
312.3767
312.5139
312.6512
312.7885
312.9257
313.063
313.2003
313.3376
313.4749
313.6122
)
;
        refGradient     uniform 0;
        valueFraction   nonuniform List<scalar> 
100
(
0.008498584
0.008498584
0.008498584
0.008498584
0.008498584
0.008498584
0.008498584
0.008498584
0.008498584
0.008498584
0.008498584
0.008498584
0.008498584
0.008498584
0.008498584
0.008498584
0.008498584
0.008498584
0.008498584
0.008498584
0.008498584
0.008498584
0.008498584
0.008498584
0.008498584
0.008498584
0.008498584
0.008498584
0.008498584
0.008498584
0.008498584
0.008498584
0.008498584
0.008498584
0.008498584
0.008498584
0.008498584
0.008498584
0.008498584
0.008498584
0.008498584
0.008498584
0.008498584
0.008498584
0.008498584
0.008498584
0.008498584
0.008498584
0.008498584
0.008498584
0.008498584
0.008498584
0.008498584
0.008498584
0.008498584
0.008498584
0.008498584
0.008498584
0.008498584
0.008498584
0.008498584
0.008498584
0.008498584
0.008498584
0.008498584
0.008498584
0.008498584
0.008498584
0.008498584
0.008498584
0.008498584
0.008498584
0.008498584
0.008498584
0.008498584
0.008498584
0.008498584
0.008498584
0.008498584
0.008498584
0.008498584
0.008498584
0.008498584
0.008498584
0.008498584
0.008498584
0.008498584
0.008498584
0.008498584
0.008498584
0.008498584
0.008498584
0.008498584
0.008498584
0.008498584
0.008498584
0.008498584
0.008498584
0.008498584
0.008498584
)
;
        value           nonuniform List<scalar> 
100
(
681.6366
681.6404
681.6441
681.6468
681.6488
681.6497
681.6493
681.6475
681.6441
681.6392
681.6326
681.6243
681.6144
681.6028
681.5895
681.5746
681.5581
681.5401
681.5205
681.4994
681.477
681.4531
681.428
681.4016
681.3739
681.3452
681.3153
681.2843
681.2524
681.2195
681.1858
681.1512
681.1158
681.0797
681.0429
681.0055
680.9675
680.929
680.8899
680.8505
680.8106
680.7704
680.7298
680.689
680.6479
680.6067
680.5654
680.5239
680.4824
680.4408
680.3993
680.3579
680.3165
680.2753
680.2343
680.1935
680.153
680.1128
680.0729
680.0335
679.9945
679.9559
679.9179
679.8804
679.8436
679.8074
679.7719
679.7371
679.7031
679.67
679.6378
679.6064
679.5761
679.5468
679.5185
679.4914
679.4655
679.4407
679.4173
679.3951
679.3743
679.355
679.337
679.3206
679.3057
679.2923
679.2805
679.2704
679.2618
679.2548
679.2494
679.2455
679.2431
679.2422
679.2425
679.244
679.2464
679.2495
679.2528
679.2556
)
;
        Tnbr            T;
        thicknessLayers 0();
        kappaLayers     0();
        kappa           solidThermo;
        kappaName       none;
    }
}


// ************************************************************************* //
