/*--------------------------------*- C++ -*----------------------------------*\
| =========                 |                                                 |
| \\      /  F ield         | OpenFOAM: The Open Source CFD Toolbox           |
|  \\    /   O peration     | Version:  2.3.0                                 |
|   \\  /    A nd           | Web:      www.OpenFOAM.org                      |
|    \\/     M anipulation  |                                                 |
\*---------------------------------------------------------------------------*/
FoamFile
{
    version     2.0;
    format      ascii;
    class       surfaceScalarField;
    location    "10000/topAir";
    object      phi;
}
// * * * * * * * * * * * * * * * * * * * * * * * * * * * * * * * * * * * * * //

dimensions      [1 0 -1 0 0 0 0];

internalField   nonuniform List<scalar> 
7860
(
0.01438488
1.225137e-05
0.01437451
1.037039e-05
0.01436595
8.568522e-06
0.01435717
8.777842e-06
0.01434811
9.060541e-06
0.01433896
9.158772e-06
0.01432972
9.232254e-06
0.01432042
9.307047e-06
0.01431105
9.369215e-06
0.01430163
9.418372e-06
0.01429217
9.458176e-06
0.01428268
9.49064e-06
0.01427316
9.517003e-06
0.01426362
9.538367e-06
0.01425407
9.555633e-06
0.0142445
9.56951e-06
0.01423492
9.580556e-06
0.01422533
9.589217e-06
0.01421573
9.595857e-06
0.01420613
9.600768e-06
0.01419653
9.604194e-06
0.01418692
9.606333e-06
0.01417731
9.607352e-06
0.01416771
9.607391e-06
0.0141581
9.606567e-06
0.01414849
9.604982e-06
0.01413889
9.60272e-06
0.01412929
9.599856e-06
0.01411969
9.596453e-06
0.0141101
9.592567e-06
0.01410051
9.588247e-06
0.01409093
9.583533e-06
0.01408135
9.578464e-06
0.01407178
9.573071e-06
0.01406221
9.567384e-06
0.01405265
9.561427e-06
0.01404309
9.555223e-06
0.01403354
9.548791e-06
0.014024
9.542149e-06
0.01401447
9.535312e-06
0.01400494
9.528294e-06
0.01399542
9.521106e-06
0.0139859
9.513758e-06
0.0139764
9.506261e-06
0.0139669
9.49862e-06
0.01395741
9.490843e-06
0.01394792
9.482934e-06
0.01393845
9.474898e-06
0.01392898
9.466739e-06
0.01391952
9.458457e-06
0.01391007
9.450055e-06
0.01390063
9.441532e-06
0.0138912
9.432887e-06
0.01388177
9.42412e-06
0.01387236
9.415226e-06
0.01386295
9.406202e-06
0.01385356
9.397044e-06
0.01384417
9.387744e-06
0.01383479
9.378295e-06
0.01382542
9.368688e-06
0.01381606
9.358914e-06
0.01380671
9.348959e-06
0.01379737
9.33881e-06
0.01378805
9.328451e-06
0.01377873
9.317864e-06
0.01376942
9.307029e-06
0.01376013
9.29592e-06
0.01375084
9.284512e-06
0.01374157
9.272774e-06
0.01373231
9.26067e-06
0.01372306
9.248159e-06
0.01371382
9.235197e-06
0.0137046
9.221728e-06
0.01369539
9.207691e-06
0.0136862
9.193015e-06
0.01367702
9.177615e-06
0.01366786
9.161393e-06
0.01365872
9.144234e-06
0.01364959
9.125999e-06
0.01364049
9.106524e-06
0.0136314
9.08561e-06
0.01362234
9.063015e-06
0.0136133
9.038442e-06
0.01360429
9.011522e-06
0.0135953
8.981789e-06
0.01358636
8.94865e-06
0.01357744
8.911335e-06
0.01356858
8.868822e-06
0.01355976
8.819732e-06
0.01355099
8.762149e-06
0.0135423
8.693325e-06
0.01353369
8.609173e-06
0.01352519
8.503345e-06
0.01351682
8.365417e-06
0.01350865
8.177495e-06
0.01350074
7.905788e-06
0.01349325
7.488455e-06
0.01348647
6.776676e-06
0.01348092
5.551852e-06
2.79915e-06
0.01440852
1.71379e-06
0.01441226
6.640075e-06
0.01441358
7.251063e-06
0.0144149
7.460434e-06
0.01441607
7.894493e-06
0.01441701
8.214305e-06
0.01441781
8.435425e-06
0.0144185
8.61387e-06
0.01441911
8.75988e-06
0.01441965
8.878243e-06
0.01442013
8.97569e-06
0.01442057
9.057197e-06
0.01442096
9.126067e-06
0.01442131
9.184773e-06
0.01442163
9.235234e-06
0.01442192
9.278922e-06
0.01442218
9.316982e-06
0.01442242
9.350319e-06
0.01442264
9.379657e-06
0.01442283
9.405582e-06
0.01442301
9.428569e-06
0.01442317
9.449015e-06
0.01442331
9.467246e-06
0.01442343
9.483536e-06
0.01442354
9.498117e-06
0.01442363
9.511186e-06
0.01442371
9.52291e-06
0.01442378
9.533435e-06
0.01442383
9.542884e-06
0.01442387
9.551366e-06
0.0144239
9.558975e-06
0.01442392
9.565793e-06
0.01442393
9.571893e-06
0.01442392
9.577336e-06
0.01442391
9.58218e-06
0.01442388
9.586472e-06
0.01442385
9.590257e-06
0.0144238
9.593571e-06
0.01442375
9.59645e-06
0.01442368
9.598921e-06
0.01442361
9.601011e-06
0.01442353
9.602743e-06
0.01442344
9.604136e-06
0.01442334
9.605206e-06
0.01442323
9.605969e-06
0.01442312
9.606435e-06
0.01442299
9.606614e-06
0.01442286
9.606515e-06
0.01442272
9.606141e-06
0.01442257
9.605497e-06
0.01442242
9.604584e-06
0.01442226
9.603402e-06
0.01442209
9.601948e-06
0.01442191
9.600217e-06
0.01442173
9.598202e-06
0.01442154
9.595896e-06
0.01442134
9.593287e-06
0.01442114
9.590362e-06
0.01442093
9.587104e-06
0.01442072
9.583495e-06
0.0144205
9.579513e-06
0.01442027
9.575133e-06
0.01442004
9.570325e-06
0.0144198
9.565057e-06
0.01441956
9.559292e-06
0.01441931
9.552985e-06
0.01441906
9.54609e-06
0.01441881
9.538549e-06
0.01441855
9.530299e-06
0.01441829
9.521269e-06
0.01441803
9.511376e-06
0.01441776
9.500525e-06
0.0144175
9.488607e-06
0.01441723
9.475495e-06
0.01441696
9.461045e-06
0.01441669
9.445086e-06
0.01441643
9.427418e-06
0.01441616
9.407808e-06
0.0144159
9.385977e-06
0.01441565
9.361593e-06
0.0144154
9.334257e-06
0.01441516
9.303484e-06
0.01441493
9.26868e-06
0.01441471
9.22911e-06
0.01441451
9.183851e-06
0.01441433
9.131731e-06
0.01441417
9.071242e-06
0.01441403
9.000404e-06
0.01441394
8.916574e-06
0.01441388
8.816148e-06
0.01441388
8.694101e-06
0.01441395
8.54324e-06
0.0144141
8.353002e-06
0.01441436
8.107406e-06
0.01441475
7.781696e-06
0.01441532
7.335986e-06
0.0144161
6.706762e-06
0.0144171
5.78131e-06
0.01441825
4.401335e-06
2.173849e-06
0.01440139
2.359597e-06
0.0144034
4.635694e-06
0.01440495
5.705481e-06
0.01440612
6.292905e-06
0.01440715
6.863546e-06
0.01440806
7.30764e-06
0.01440887
7.628206e-06
0.0144096
7.880388e-06
0.01441027
8.086202e-06
0.0144109
8.254751e-06
0.01441148
8.394457e-06
0.01441202
8.511926e-06
0.01441254
8.611729e-06
0.01441302
8.697241e-06
0.01441349
8.771068e-06
0.01441393
8.835236e-06
0.01441436
8.891334e-06
0.01441477
8.940627e-06
0.01441516
8.984134e-06
0.01441555
9.022686e-06
0.01441592
9.056965e-06
0.01441628
9.087535e-06
0.01441663
9.11487e-06
0.01441697
9.139367e-06
0.01441731
9.161362e-06
0.01441764
9.181143e-06
0.01441796
9.198953e-06
0.01441828
9.215006e-06
0.0144186
9.229485e-06
0.0144189
9.242547e-06
0.01441921
9.254331e-06
0.01441951
9.26496e-06
0.01441981
9.274537e-06
0.0144201
9.283158e-06
0.01442039
9.290904e-06
0.01442068
9.297847e-06
0.01442097
9.30405e-06
0.01442125
9.309571e-06
0.01442153
9.314459e-06
0.01442181
9.318757e-06
0.01442209
9.322503e-06
0.01442237
9.32573e-06
0.01442264
9.328467e-06
0.01442292
9.33074e-06
0.01442319
9.332568e-06
0.01442346
9.333969e-06
0.01442373
9.334958e-06
0.01442401
9.335544e-06
0.01442428
9.335737e-06
0.01442455
9.33554e-06
0.01442482
9.334956e-06
0.01442509
9.333984e-06
0.01442535
9.33262e-06
0.01442562
9.330857e-06
0.01442589
9.328685e-06
0.01442616
9.326092e-06
0.01442643
9.323061e-06
0.0144267
9.319571e-06
0.01442698
9.3156e-06
0.01442725
9.311119e-06
0.01442752
9.306097e-06
0.0144278
9.300496e-06
0.01442807
9.294273e-06
0.01442835
9.287381e-06
0.01442863
9.279763e-06
0.01442891
9.271357e-06
0.01442919
9.262092e-06
0.01442948
9.251886e-06
0.01442977
9.240646e-06
0.01443006
9.228269e-06
0.01443036
9.214632e-06
0.01443066
9.199599e-06
0.01443097
9.183011e-06
0.01443128
9.164686e-06
0.01443159
9.144412e-06
0.01443192
9.121946e-06
0.01443225
9.096999e-06
0.01443259
9.069237e-06
0.01443293
9.038261e-06
0.01443329
9.003598e-06
0.01443366
8.964683e-06
0.01443404
8.920831e-06
0.01443444
8.871209e-06
0.01443486
8.81479e-06
0.01443529
8.7503e-06
0.01443574
8.676136e-06
0.01443623
8.590254e-06
0.01443674
8.490016e-06
0.01443728
8.371963e-06
0.01443787
8.231486e-06
0.0144385
8.062342e-06
0.01443918
7.855921e-06
0.01443994
7.600151e-06
0.01444077
7.277832e-06
0.01444168
6.864231e-06
0.0144427
6.323476e-06
0.0144438
5.604809e-06
0.01444494
4.637174e-06
0.01444601
3.337649e-06
1.637084e-06
0.01440385
1.591059e-06
0.01440482
3.663306e-06
0.01440572
4.817151e-06
0.01440653
5.480938e-06
0.01440733
6.064709e-06
0.01440809
6.547178e-06
0.0144088
6.920093e-06
0.01440946
7.220395e-06
0.01441008
7.469355e-06
0.01441065
7.676808e-06
0.0144112
7.851015e-06
0.01441171
7.998825e-06
0.0144122
8.125302e-06
0.01441266
8.234288e-06
0.0144131
8.328807e-06
0.01441353
8.411257e-06
0.01441393
8.483552e-06
0.01441433
8.547235e-06
0.01441471
8.603562e-06
0.01441508
8.653563e-06
0.01441543
8.698092e-06
0.01441578
8.73786e-06
0.01441612
8.773464e-06
0.01441646
8.805409e-06
0.01441679
8.834122e-06
0.01441711
8.85997e-06
0.01441742
8.883269e-06
0.01441773
8.904289e-06
0.01441804
8.923267e-06
0.01441834
8.940406e-06
0.01441864
8.955885e-06
0.01441893
8.969861e-06
0.01441923
8.982471e-06
0.01441952
8.993836e-06
0.0144198
9.004062e-06
0.01442009
9.013243e-06
0.01442037
9.021462e-06
0.01442065
9.028792e-06
0.01442093
9.035296e-06
0.01442121
9.041032e-06
0.01442148
9.046049e-06
0.01442176
9.050389e-06
0.01442203
9.054092e-06
0.01442231
9.057187e-06
0.01442258
9.059703e-06
0.01442285
9.061662e-06
0.01442312
9.063082e-06
0.01442339
9.063978e-06
0.01442367
9.064358e-06
0.01442394
9.064231e-06
0.01442421
9.063597e-06
0.01442448
9.062456e-06
0.01442475
9.060802e-06
0.01442502
9.058626e-06
0.0144253
9.055915e-06
0.01442557
9.052652e-06
0.01442584
9.048816e-06
0.01442612
9.04438e-06
0.0144264
9.039313e-06
0.01442667
9.033578e-06
0.01442695
9.027135e-06
0.01442723
9.019933e-06
0.01442751
9.011918e-06
0.0144278
9.003026e-06
0.01442809
8.993185e-06
0.01442837
8.982314e-06
0.01442867
8.970319e-06
0.01442896
8.957096e-06
0.01442926
8.942524e-06
0.01442956
8.926468e-06
0.01442987
8.908771e-06
0.01443018
8.889257e-06
0.01443049
8.867722e-06
0.01443081
8.843933e-06
0.01443114
8.817618e-06
0.01443147
8.788465e-06
0.01443181
8.756111e-06
0.01443216
8.720127e-06
0.01443252
8.680014e-06
0.01443289
8.635175e-06
0.01443327
8.584905e-06
0.01443366
8.528352e-06
0.01443407
8.464488e-06
0.01443449
8.39206e-06
0.01443493
8.309524e-06
0.01443539
8.214961e-06
0.01443588
8.105965e-06
0.01443639
7.979479e-06
0.01443693
7.831587e-06
0.0144375
7.657207e-06
0.01443811
7.449686e-06
0.01443877
7.200224e-06
0.01443947
6.897111e-06
0.01444023
6.524726e-06
0.01444103
6.062335e-06
0.01444187
5.482861e-06
0.01444272
4.752332e-06
0.01444353
3.831852e-06
0.01444418
2.682964e-06
1.306902e-06
0.01440361
1.642651e-06
0.0144042
3.082627e-06
0.01440499
4.029359e-06
0.01440576
4.713618e-06
0.0144065
5.319402e-06
0.01440722
5.833334e-06
0.01440789
6.247966e-06
0.01440852
6.589e-06
0.01440912
6.875097e-06
0.01440968
7.11632e-06
0.01441021
7.320881e-06
0.01441071
7.495748e-06
0.01441119
7.646303e-06
0.01441165
7.776724e-06
0.01441208
7.890344e-06
0.01441251
7.989839e-06
0.01441291
8.077371e-06
0.0144133
8.1547e-06
0.01441368
8.223271e-06
0.01441405
8.284278e-06
0.01441441
8.338716e-06
0.01441476
8.387421e-06
0.0144151
8.431095e-06
0.01441544
8.470338e-06
0.01441577
8.505659e-06
0.01441609
8.537496e-06
0.01441641
8.566227e-06
0.01441672
8.592177e-06
0.01441703
8.615631e-06
0.01441733
8.636836e-06
0.01441763
8.656009e-06
0.01441793
8.673339e-06
0.01441822
8.688994e-06
0.01441851
8.70312e-06
0.0144188
8.715847e-06
0.01441908
8.72729e-06
0.01441937
8.737549e-06
0.01441965
8.746715e-06
0.01441993
8.754865e-06
0.01442021
8.762069e-06
0.01442049
8.768387e-06
0.01442076
8.773873e-06
0.01442104
8.778572e-06
0.01442131
8.782524e-06
0.01442159
8.785762e-06
0.01442186
8.788313e-06
0.01442213
8.7902e-06
0.0144224
8.791441e-06
0.01442268
8.792047e-06
0.01442295
8.792026e-06
0.01442322
8.791381e-06
0.01442349
8.790111e-06
0.01442377
8.78821e-06
0.01442404
8.785665e-06
0.01442431
8.782461e-06
0.01442459
8.778577e-06
0.01442486
8.773987e-06
0.01442514
8.768659e-06
0.01442541
8.762555e-06
0.01442569
8.75563e-06
0.01442597
8.747832e-06
0.01442625
8.739103e-06
0.01442653
8.729375e-06
0.01442682
8.718571e-06
0.01442711
8.706604e-06
0.01442739
8.693373e-06
0.01442769
8.678767e-06
0.01442798
8.662658e-06
0.01442828
8.644902e-06
0.01442858
8.625332e-06
0.01442888
8.603764e-06
0.01442919
8.579982e-06
0.01442951
8.553744e-06
0.01442983
8.524769e-06
0.01443015
8.492736e-06
0.01443048
8.457273e-06
0.01443082
8.417948e-06
0.01443117
8.37426e-06
0.01443152
8.325619e-06
0.01443188
8.271332e-06
0.01443226
8.210581e-06
0.01443264
8.142387e-06
0.01443304
8.065577e-06
0.01443346
7.978737e-06
0.01443389
7.880145e-06
0.01443433
7.76769e-06
0.0144348
7.638766e-06
0.01443529
7.490131e-06
0.0144358
7.317723e-06
0.01443634
7.116419e-06
0.01443691
6.879729e-06
0.01443751
6.599411e-06
0.01443815
6.265019e-06
0.01443881
5.863423e-06
0.01443949
5.378426e-06
0.01444018
4.790822e-06
0.01444086
4.079308e-06
0.01444146
3.224628e-06
0.01444193
2.213147e-06
1.070562e-06
0.01440468
1.226933e-06
0.0144052
2.566823e-06
0.01440577
3.45806e-06
0.01440636
4.13013e-06
0.01440695
4.731789e-06
0.01440753
5.250335e-06
0.0144081
5.680364e-06
0.01440865
6.041283e-06
0.01440918
6.348417e-06
0.01440968
6.610833e-06
0.01441017
6.835998e-06
0.01441063
7.03036e-06
0.01441108
7.199071e-06
0.01441151
7.34624e-06
0.01441192
7.475206e-06
0.01441233
7.588705e-06
0.01441271
7.688982e-06
0.01441309
7.777892e-06
0.01441346
7.856978e-06
0.01441381
7.927529e-06
0.01441416
7.990631e-06
0.0144145
8.047201e-06
0.01441483
8.09802e-06
0.01441516
8.143755e-06
0.01441548
8.184977e-06
0.0144158
8.22218e-06
0.01441611
8.255791e-06
0.01441641
8.286182e-06
0.01441671
8.313676e-06
0.01441701
8.338556e-06
0.01441731
8.361071e-06
0.0144176
8.38144e-06
0.01441789
8.399853e-06
0.01441817
8.416482e-06
0.01441846
8.431476e-06
0.01441874
8.444968e-06
0.01441902
8.457075e-06
0.0144193
8.4679e-06
0.01441958
8.477536e-06
0.01441985
8.486062e-06
0.01442013
8.493549e-06
0.0144204
8.500059e-06
0.01442067
8.505646e-06
0.01442095
8.510354e-06
0.01442122
8.514223e-06
0.01442149
8.517285e-06
0.01442176
8.519566e-06
0.01442203
8.521087e-06
0.0144223
8.521861e-06
0.01442257
8.521897e-06
0.01442284
8.521198e-06
0.01442311
8.519764e-06
0.01442338
8.517585e-06
0.01442365
8.514648e-06
0.01442392
8.510936e-06
0.01442419
8.506423e-06
0.01442447
8.501079e-06
0.01442474
8.494864e-06
0.01442502
8.487737e-06
0.01442529
8.479643e-06
0.01442557
8.470523e-06
0.01442585
8.460308e-06
0.01442613
8.448919e-06
0.01442641
8.436266e-06
0.01442669
8.422248e-06
0.01442698
8.406748e-06
0.01442727
8.389637e-06
0.01442756
8.370766e-06
0.01442786
8.349968e-06
0.01442816
8.327054e-06
0.01442846
8.301807e-06
0.01442876
8.273984e-06
0.01442907
8.243305e-06
0.01442939
8.209451e-06
0.01442971
8.172056e-06
0.01443004
8.130699e-06
0.01443037
8.084893e-06
0.01443071
8.034075e-06
0.01443106
7.977589e-06
0.01443141
7.914667e-06
0.01443178
7.844406e-06
0.01443216
7.76574e-06
0.01443254
7.677403e-06
0.01443295
7.577882e-06
0.01443336
7.465361e-06
0.01443379
7.337647e-06
0.01443424
7.192081e-06
0.0144347
7.025421e-06
0.01443519
6.833703e-06
0.01443569
6.612073e-06
0.01443622
6.354588e-06
0.01443676
6.054007e-06
0.01443732
5.701594e-06
0.0144379
5.287015e-06
0.01443848
4.798441e-06
0.01443905
4.223176e-06
0.01443958
3.548936e-06
0.01444004
2.767563e-06
0.01444037
1.876635e-06
9.018898e-07
0.0144048
1.195494e-06
0.0144051
2.2668e-06
0.01440553
3.025586e-06
0.01440601
3.652924e-06
0.01440652
4.227283e-06
0.01440704
4.732356e-06
0.01440756
5.162961e-06
0.01440807
5.532574e-06
0.01440856
5.852394e-06
0.01440904
6.129557e-06
0.01440951
6.370289e-06
0.01440996
6.580186e-06
0.01441039
6.763914e-06
0.01441081
6.925317e-06
0.01441122
7.06761e-06
0.01441162
7.19348e-06
0.014412
7.305178e-06
0.01441237
7.404592e-06
0.01441274
7.493315e-06
0.01441309
7.572693e-06
0.01441344
7.643872e-06
0.01441378
7.707828e-06
0.01441411
7.765398e-06
0.01441444
7.817302e-06
0.01441476
7.864162e-06
0.01441507
7.906516e-06
0.01441538
7.944834e-06
0.01441569
7.979524e-06
0.01441599
8.010945e-06
0.01441629
8.03941e-06
0.01441659
8.065196e-06
0.01441688
8.088547e-06
0.01441717
8.109679e-06
0.01441746
8.128781e-06
0.01441774
8.146022e-06
0.01441803
8.161551e-06
0.01441831
8.175501e-06
0.01441859
8.187988e-06
0.01441886
8.199117e-06
0.01441914
8.208978e-06
0.01441942
8.21765e-06
0.01441969
8.225205e-06
0.01441997
8.231702e-06
0.01442024
8.237194e-06
0.01442051
8.241724e-06
0.01442078
8.24533e-06
0.01442106
8.248041e-06
0.01442133
8.24988e-06
0.0144216
8.250863e-06
0.01442187
8.251e-06
0.01442214
8.250296e-06
0.01442241
8.248747e-06
0.01442268
8.246345e-06
0.01442295
8.243076e-06
0.01442322
8.238917e-06
0.0144235
8.233842e-06
0.01442377
8.227814e-06
0.01442404
8.220791e-06
0.01442432
8.212723e-06
0.0144246
8.203551e-06
0.01442487
8.193207e-06
0.01442515
8.181613e-06
0.01442543
8.168679e-06
0.01442571
8.154304e-06
0.014426
8.138375e-06
0.01442628
8.12076e-06
0.01442657
8.101314e-06
0.01442686
8.079871e-06
0.01442716
8.056244e-06
0.01442745
8.030222e-06
0.01442775
8.001564e-06
0.01442806
7.97e-06
0.01442837
7.935221e-06
0.01442868
7.896874e-06
0.014429
7.85456e-06
0.01442932
7.807816e-06
0.01442965
7.756117e-06
0.01442998
7.698851e-06
0.01443032
7.635314e-06
0.01443067
7.564688e-06
0.01443103
7.486017e-06
0.0144314
7.398184e-06
0.01443178
7.299875e-06
0.01443217
7.18954e-06
0.01443257
7.065343e-06
0.01443298
6.925104e-06
0.0144334
6.766223e-06
0.01443384
6.585602e-06
0.0144343
6.379544e-06
0.01443477
6.14365e-06
0.01443525
5.872717e-06
0.01443574
5.560652e-06
0.01443624
5.200456e-06
0.01443675
4.784321e-06
0.01443724
4.303965e-06
0.01443771
3.751408e-06
0.01443814
3.120176e-06
0.0144385
2.408166e-06
0.01443876
1.618195e-06
7.728747e-07
0.01440538
9.999064e-07
0.01440567
1.978292e-06
0.01440603
2.665383e-06
0.01440644
3.248418e-06
0.01440687
3.79489e-06
0.01440732
4.284325e-06
0.01440777
4.709949e-06
0.01440823
5.081462e-06
0.01440867
5.407227e-06
0.01440911
5.692839e-06
0.01440953
5.943472e-06
0.01440995
6.16395e-06
0.01441036
6.358424e-06
0.01441075
6.530414e-06
0.01441113
6.682924e-06
0.01441151
6.81852e-06
0.01441188
6.939384e-06
0.01441223
7.047374e-06
0.01441258
7.144079e-06
0.01441292
7.23086e-06
0.01441326
7.308881e-06
0.01441359
7.379149e-06
0.01441391
7.442532e-06
0.01441423
7.499782e-06
0.01441454
7.551553e-06
0.01441485
7.598416e-06
0.01441515
7.640867e-06
0.01441545
7.679346e-06
0.01441575
7.714236e-06
0.01441604
7.745875e-06
0.01441633
7.774563e-06
0.01441662
7.800563e-06
0.0144169
7.824109e-06
0.01441719
7.84541e-06
0.01441747
7.864649e-06
0.01441775
7.88199e-06
0.01441803
7.897577e-06
0.0144183
7.911539e-06
0.01441858
7.92399e-06
0.01441885
7.935029e-06
0.01441912
7.944746e-06
0.0144194
7.953216e-06
0.01441967
7.960508e-06
0.01441994
7.966678e-06
0.01442021
7.971775e-06
0.01442048
7.975839e-06
0.01442075
7.978905e-06
0.01442101
7.980995e-06
0.01442128
7.982129e-06
0.01442155
7.982318e-06
0.01442182
7.981566e-06
0.01442209
7.97987e-06
0.01442236
7.977221e-06
0.01442263
7.973601e-06
0.0144229
7.968988e-06
0.01442317
7.96335e-06
0.01442344
7.956648e-06
0.01442371
7.948835e-06
0.01442398
7.939855e-06
0.01442426
7.929644e-06
0.01442453
7.918125e-06
0.01442481
7.905213e-06
0.01442509
7.890809e-06
0.01442537
7.874803e-06
0.01442565
7.857068e-06
0.01442593
7.837462e-06
0.01442622
7.815825e-06
0.0144265
7.791976e-06
0.01442679
7.765711e-06
0.01442709
7.7368e-06
0.01442738
7.704984e-06
0.01442768
7.669969e-06
0.01442799
7.631424e-06
0.0144283
7.588971e-06
0.01442861
7.542181e-06
0.01442893
7.490567e-06
0.01442925
7.43357e-06
0.01442958
7.37055e-06
0.01442991
7.300772e-06
0.01443025
7.223388e-06
0.0144306
7.13742e-06
0.01443096
7.041731e-06
0.01443132
6.935001e-06
0.0144317
6.815692e-06
0.01443208
6.682009e-06
0.01443247
6.531854e-06
0.01443288
6.362772e-06
0.01443329
6.171901e-06
0.01443371
5.955911e-06
0.01443415
5.710953e-06
0.01443459
5.432627e-06
0.01443503
5.115987e-06
0.01443548
4.755623e-06
0.01443591
4.345865e-06
0.01443634
3.881179e-06
0.01443673
3.356887e-06
0.01443708
2.770125e-06
0.01443737
2.121834e-06
0.01443757
1.416651e-06
6.72699e-07
0.01440562
9.35557e-07
0.01440582
1.778387e-06
0.0144061
2.385815e-06
0.01440643
2.923846e-06
0.01440679
3.435997e-06
0.01440718
3.901016e-06
0.01440757
4.31235e-06
0.01440798
4.677059e-06
0.01440838
5.001151e-06
0.01440879
5.288711e-06
0.01440919
5.54377e-06
0.01440958
5.770263e-06
0.01440997
5.971693e-06
0.01441035
6.151124e-06
0.01441072
6.311242e-06
0.01441108
6.454391e-06
0.01441144
6.582608e-06
0.01441179
6.69766e-06
0.01441213
6.801078e-06
0.01441247
6.894191e-06
0.0144128
6.978155e-06
0.01441312
7.053974e-06
0.01441344
7.122526e-06
0.01441376
7.184575e-06
0.01441407
7.240792e-06
0.01441438
7.291767e-06
0.01441468
7.338017e-06
0.01441498
7.379998e-06
0.01441527
7.418113e-06
0.01441557
7.45272e-06
0.01441586
7.484133e-06
0.01441614
7.512633e-06
0.01441643
7.53847e-06
0.01441671
7.561865e-06
0.01441699
7.583015e-06
0.01441727
7.602095e-06
0.01441755
7.61926e-06
0.01441783
7.63465e-06
0.0144181
7.648387e-06
0.01441838
7.660579e-06
0.01441865
7.671321e-06
0.01441892
7.680697e-06
0.0144192
7.68878e-06
0.01441947
7.695631e-06
0.01441974
7.701304e-06
0.01442001
7.705843e-06
0.01442028
7.709283e-06
0.01442055
7.711651e-06
0.01442082
7.712968e-06
0.01442108
7.713245e-06
0.01442135
7.712487e-06
0.01442162
7.71069e-06
0.01442189
7.707846e-06
0.01442216
7.703934e-06
0.01442243
7.698931e-06
0.0144227
7.692801e-06
0.01442297
7.685502e-06
0.01442325
7.676985e-06
0.01442352
7.667187e-06
0.01442379
7.656038e-06
0.01442407
7.643457e-06
0.01442434
7.629351e-06
0.01442462
7.613614e-06
0.0144249
7.596126e-06
0.01442518
7.576751e-06
0.01442546
7.555337e-06
0.01442574
7.531711e-06
0.01442603
7.505681e-06
0.01442632
7.477028e-06
0.01442661
7.445509e-06
0.0144269
7.410848e-06
0.0144272
7.372735e-06
0.0144275
7.33082e-06
0.01442781
7.284709e-06
0.01442811
7.233954e-06
0.01442843
7.178047e-06
0.01442874
7.116413e-06
0.01442907
7.048396e-06
0.01442939
6.973247e-06
0.01442973
6.89011e-06
0.01443007
6.798006e-06
0.01443041
6.695809e-06
0.01443077
6.582227e-06
0.01443113
6.455773e-06
0.01443149
6.314738e-06
0.01443187
6.157157e-06
0.01443225
5.980776e-06
0.01443264
5.783021e-06
0.01443303
5.560974e-06
0.01443343
5.311359e-06
0.01443383
5.030554e-06
0.01443424
4.714657e-06
0.01443463
4.359606e-06
0.01443502
3.961418e-06
0.01443538
3.516566e-06
0.01443571
3.022574e-06
0.01443601
2.478722e-06
0.01443624
1.887391e-06
0.0144364
1.253661e-06
5.920269e-07
0.01440599
8.258859e-07
0.01440618
1.593258e-06
0.01440642
2.143911e-06
0.01440671
2.638986e-06
0.01440703
3.117576e-06
0.01440737
3.558294e-06
0.01440773
3.953979e-06
0.0144081
4.30958e-06
0.01440847
4.62929e-06
0.01440885
4.915944e-06
0.01440922
5.172594e-06
0.01440958
5.402399e-06
0.01440995
5.608274e-06
0.01441031
5.792856e-06
0.01441066
5.958516e-06
0.014411
6.107374e-06
0.01441135
6.241304e-06
0.01441168
6.361963e-06
0.01441201
6.470806e-06
0.01441234
6.569113e-06
0.01441266
6.65801e-06
0.01441297
6.738485e-06
0.01441328
6.81141e-06
0.01441359
6.87755e-06
0.01441389
6.937583e-06
0.01441419
6.992105e-06
0.01441449
7.041647e-06
0.01441478
7.086675e-06
0.01441507
7.127606e-06
0.01441536
7.164809e-06
0.01441564
7.198613e-06
0.01441593
7.22931e-06
0.01441621
7.257162e-06
0.01441649
7.282401e-06
0.01441677
7.305234e-06
0.01441704
7.325846e-06
0.01441732
7.344402e-06
0.01441759
7.361049e-06
0.01441786
7.375916e-06
0.01441813
7.389118e-06
0.0144184
7.400758e-06
0.01441867
7.410923e-06
0.01441894
7.419692e-06
0.01441921
7.427131e-06
0.01441948
7.433296e-06
0.01441975
7.438234e-06
0.01442001
7.441984e-06
0.01442028
7.444574e-06
0.01442055
7.446026e-06
0.01442081
7.446353e-06
0.01442108
7.445559e-06
0.01442135
7.443641e-06
0.01442162
7.440588e-06
0.01442188
7.436381e-06
0.01442215
7.430992e-06
0.01442242
7.424385e-06
0.01442269
7.416515e-06
0.01442296
7.407327e-06
0.01442323
7.396756e-06
0.0144235
7.384727e-06
0.01442377
7.371154e-06
0.01442405
7.355938e-06
0.01442432
7.338966e-06
0.0144246
7.32011e-06
0.01442487
7.299227e-06
0.01442515
7.276156e-06
0.01442543
7.250716e-06
0.01442572
7.222704e-06
0.014426
7.191891e-06
0.01442629
7.158021e-06
0.01442658
7.120809e-06
0.01442687
7.079932e-06
0.01442717
7.035029e-06
0.01442747
6.985693e-06
0.01442777
6.931466e-06
0.01442808
6.871831e-06
0.01442839
6.806205e-06
0.0144287
6.733929e-06
0.01442902
6.654255e-06
0.01442934
6.566338e-06
0.01442967
6.469216e-06
0.01443001
6.361798e-06
0.01443034
6.242845e-06
0.01443069
6.110953e-06
0.01443104
5.964527e-06
0.0144314
5.801768e-06
0.01443176
5.62065e-06
0.01443212
5.418912e-06
0.01443249
5.194052e-06
0.01443285
4.943344e-06
0.01443322
4.663879e-06
0.01443358
4.35265e-06
0.01443394
4.006695e-06
0.01443427
3.623323e-06
0.01443459
3.200437e-06
0.01443488
2.736992e-06
0.01443512
2.233485e-06
0.01443532
1.692842e-06
0.01443545
1.119893e-06
5.261051e-07
0.01440624
7.639837e-07
0.01440639
1.448644e-06
0.01440659
1.945618e-06
0.01440683
2.402463e-06
0.0144071
2.848694e-06
0.01440739
3.263726e-06
0.01440771
3.640742e-06
0.01440803
3.983358e-06
0.01440837
4.294508e-06
0.01440871
4.576101e-06
0.01440905
4.830405e-06
0.01440939
5.059905e-06
0.01440973
5.266974e-06
0.01441007
5.453822e-06
0.01441041
5.622489e-06
0.01441074
5.774839e-06
0.01441107
5.912554e-06
0.01441139
6.037143e-06
0.01441171
6.149955e-06
0.01441203
6.252193e-06
0.01441234
6.344926e-06
0.01441265
6.429104e-06
0.01441296
6.505573e-06
0.01441326
6.575083e-06
0.01441356
6.638302e-06
0.01441385
6.695824e-06
0.01441415
6.748178e-06
0.01441444
6.795835e-06
0.01441473
6.839216e-06
0.01441501
6.878697e-06
0.0144153
6.914613e-06
0.01441558
6.947263e-06
0.01441586
6.976917e-06
0.01441614
7.003815e-06
0.01441641
7.02817e-06
0.01441669
7.050175e-06
0.01441696
7.070001e-06
0.01441724
7.087801e-06
0.01441751
7.10371e-06
0.01441778
7.11785e-06
0.01441805
7.130326e-06
0.01441832
7.141231e-06
0.01441859
7.150648e-06
0.01441886
7.158645e-06
0.01441912
7.165282e-06
0.01441939
7.170609e-06
0.01441966
7.174666e-06
0.01441993
7.177484e-06
0.01442019
7.179084e-06
0.01442046
7.179481e-06
0.01442073
7.17868e-06
0.01442099
7.176676e-06
0.01442126
7.173458e-06
0.01442153
7.169006e-06
0.0144218
7.163291e-06
0.01442206
7.156275e-06
0.01442233
7.147909e-06
0.0144226
7.138136e-06
0.01442287
7.126888e-06
0.01442314
7.114087e-06
0.01442341
7.099641e-06
0.01442369
7.083445e-06
0.01442396
7.065384e-06
0.01442423
7.045322e-06
0.01442451
7.023111e-06
0.01442479
6.998583e-06
0.01442507
6.971549e-06
0.01442535
6.9418e-06
0.01442563
6.909098e-06
0.01442592
6.873182e-06
0.0144262
6.833757e-06
0.01442649
6.790494e-06
0.01442678
6.743025e-06
0.01442708
6.690939e-06
0.01442738
6.633772e-06
0.01442768
6.571009e-06
0.01442798
6.502067e-06
0.01442829
6.426296e-06
0.0144286
6.342962e-06
0.01442892
6.251242e-06
0.01442923
6.150211e-06
0.01442956
6.03883e-06
0.01442988
5.915932e-06
0.01443021
5.780211e-06
0.01443055
5.630211e-06
0.01443089
5.464312e-06
0.01443123
5.280729e-06
0.01443157
5.07751e-06
0.01443191
4.852551e-06
0.01443225
4.603626e-06
0.01443258
4.328447e-06
0.01443291
4.02475e-06
0.01443323
3.690439e-06
0.01443353
3.323779e-06
0.0144338
2.923661e-06
0.01443405
2.48994e-06
0.01443426
2.023765e-06
0.01443443
1.528159e-06
0.01443454
1.007487e-06
4.709443e-07
0.01440651
6.917275e-07
0.01440665
1.317544e-06
0.01440682
1.771274e-06
0.01440704
2.192418e-06
0.01440728
2.607622e-06
0.01440755
2.997463e-06
0.01440783
3.355318e-06
0.01440813
3.683799e-06
0.01440844
3.984883e-06
0.01440876
4.259735e-06
0.01440908
4.509949e-06
0.0144094
4.737416e-06
0.01440972
4.944021e-06
0.01441005
5.131574e-06
0.01441037
5.301802e-06
0.01441068
5.456317e-06
0.014411
5.596607e-06
0.01441131
5.724031e-06
0.01441162
5.839825e-06
0.01441193
5.945102e-06
0.01441223
6.04087e-06
0.01441253
6.128032e-06
0.01441283
6.207398e-06
0.01441313
6.279696e-06
0.01441342
6.345577e-06
0.01441371
6.405627e-06
0.014414
6.460367e-06
0.01441428
6.510269e-06
0.01441457
6.555752e-06
0.01441485
6.597196e-06
0.01441513
6.634938e-06
0.0144154
6.669283e-06
0.01441568
6.700505e-06
0.01441596
6.728847e-06
0.01441623
6.754531e-06
0.0144165
6.777753e-06
0.01441677
6.79869e-06
0.01441704
6.817499e-06
0.01441731
6.83432e-06
0.01441758
6.849278e-06
0.01441785
6.862484e-06
0.01441812
6.874035e-06
0.01441838
6.884014e-06
0.01441865
6.892494e-06
0.01441891
6.899539e-06
0.01441918
6.905198e-06
0.01441944
6.909515e-06
0.01441971
6.912521e-06
0.01441997
6.914239e-06
0.01442024
6.914684e-06
0.0144205
6.913861e-06
0.01442077
6.911766e-06
0.01442103
6.908387e-06
0.0144213
6.903703e-06
0.01442156
6.897683e-06
0.01442183
6.890288e-06
0.0144221
6.881468e-06
0.01442236
6.871162e-06
0.01442263
6.859301e-06
0.0144229
6.845802e-06
0.01442317
6.830571e-06
0.01442344
6.8135e-06
0.01442371
6.794467e-06
0.01442398
6.773335e-06
0.01442425
6.74995e-06
0.01442453
6.724139e-06
0.0144248
6.695709e-06
0.01442508
6.664444e-06
0.01442536
6.630105e-06
0.01442564
6.592424e-06
0.01442592
6.551103e-06
0.01442621
6.505811e-06
0.0144265
6.456177e-06
0.01442678
6.401791e-06
0.01442708
6.342193e-06
0.01442737
6.276871e-06
0.01442767
6.205257e-06
0.01442797
6.126714e-06
0.01442827
6.040535e-06
0.01442857
5.94593e-06
0.01442888
5.842022e-06
0.01442919
5.727835e-06
0.01442951
5.602288e-06
0.01442982
5.464187e-06
0.01443014
5.312218e-06
0.01443046
5.144949e-06
0.01443078
4.960829e-06
0.0144311
4.758201e-06
0.01443142
4.535324e-06
0.01443173
4.290412e-06
0.01443204
4.021699e-06
0.01443233
3.727521e-06
0.01443262
3.406448e-06
0.01443288
3.057441e-06
0.01443313
2.68006e-06
0.01443334
2.274704e-06
0.01443352
1.842829e-06
0.01443366
1.387325e-06
0.01443376
9.120185e-07
4.243021e-07
0.01440674
6.389471e-07
0.01440685
1.207529e-06
0.014407
1.622028e-06
0.01440718
2.011558e-06
0.01440739
2.398248e-06
0.01440763
2.763926e-06
0.01440788
3.102442e-06
0.01440815
3.41574e-06
0.01440843
3.705135e-06
0.01440872
3.971268e-06
0.01440901
4.215236e-06
0.01440931
4.438465e-06
0.01440961
4.642438e-06
0.01440992
4.828629e-06
0.01441022
4.998479e-06
0.01441052
5.153369e-06
0.01441082
5.294598e-06
0.01441112
5.423372e-06
0.01441142
5.540805e-06
0.01441172
5.647918e-06
0.01441201
5.74564e-06
0.01441231
5.834818e-06
0.0144126
5.916217e-06
0.01441289
5.990531e-06
0.01441317
6.058387e-06
0.01441346
6.120349e-06
0.01441374
6.176929e-06
0.01441402
6.228586e-06
0.0144143
6.275736e-06
0.01441458
6.318754e-06
0.01441486