/*--------------------------------*- C++ -*----------------------------------*\
| =========                 |                                                 |
| \\      /  F ield         | OpenFOAM: The Open Source CFD Toolbox           |
|  \\    /   O peration     | Version:  1.6.x                                 |
|   \\  /    A nd           | Web:      www.OpenFOAM.org                      |
|    \\/     M anipulation  |                                                 |
\*---------------------------------------------------------------------------*/
FoamFile
{
    version     2.0;
    format      ascii;
    class       volScalarField;
    location    "7000";
    object      alphat;
}
// * * * * * * * * * * * * * * * * * * * * * * * * * * * * * * * * * * * * * //

dimensions      [1 -1 -1 0 0 0 0];

internalField   nonuniform List<scalar> 
4608
(
0.000475357
0.000480835
0.000452941
0.000392309
0.000478098
0.000444384
0.000380338
0.00047248
0.000347278
0.000999629
0.000475258
0.000419501
0.000369634
0.000426975
0.000388162
0.000487205
0.00031899
0.000394332
0.000360314
0.000472618
0.000398525
0.000366905
0.000434073
0.000419518
0.000398545
0.000492656
0.000324949
0.000281642
0.000477764
3.08369e-05
0.000110862
0.000470067
0.000379746
0.00036688
0.000445188
0.000415602
0.000410476
0.000490255
0.000336399
0.00025403
0.0003914
0.000258905
6.8392e-05
2.6997e-05
9.45066e-05
0.000467571
0.000362388
0.000369451
0.000459797
0.000414256
0.000422848
0.000484784
0.000341761
0.000271853
0.00036705
0.00035454
0.000152505
0.000106585
8.53217e-05
2.67379e-05
7.37502e-05
0.000465055
0.000346801
0.000374611
0.000479282
0.000415253
0.00043444
0.000483107
0.000223449
0.000281386
0.000366943
0.000409007
0.000249073
0.000133621
3.01229e-05
0.000106267
8.2745e-05
2.64251e-05
0.000208457
0.000462428
0.00033309
0.000382331
0.000502162
0.000418363
0.000446696
0.000452629
0.000174231
0.000225693
0.000367774
0.000467961
0.000350802
0.000202209
0.00013195
2.92961e-05
0.000104297
8.24754e-05
2.61435e-05
0.000135584
0.00045955
0.000321431
0.000392853
0.000523177
0.000423442
0.000455125
0.000407033
0.000157346
0.000193031
0.000340427
0.000523159
0.000437816
0.000286581
0.000175536
0.000133856
2.907e-05
0.000103479
8.21157e-05
2.57925e-05
4.21847e-05
0.000456236
0.000312043
0.000406221
0.000546564
0.000429623
0.000457287
0.000363303
0.000153369
0.000192814
0.00032608
0.000535205
0.000511726
0.000366353
0.000249266
0.000159471
8.27875e-05
2.89705e-05
0.000103314
8.15662e-05
2.53648e-05
9.39282e-06
0.000452242
0.000305273
0.000422548
0.000571169
0.000435785
0.000453861
0.000325491
0.000161628
0.000206401
0.000334496
0.000551295
0.00056565
0.000426856
0.000329836
0.000223975
0.000115279
2.60236e-05
2.88376e-05
0.00010323
8.07967e-05
2.48322e-05
3.97612e-05
0.000447202
0.000301555
0.00044196
0.000596703
0.000440821
0.000445209
0.000300398
0.000173361
0.000237963
0.000356892
0.000572532
0.000623891
0.000505108
0.000397091
0.00030582
0.000177121
5.08592e-05
6.75452e-06
2.86893e-05
0.00010313
7.96832e-05
2.41713e-05
0.000223081
0.000440612
0.000301512
0.000464583
0.000622067
0.000443617
0.00043369
0.000275079
0.000173063
0.000267737
0.000398474
0.000602886
0.000693705
0.000583855
0.000465541
0.000379512
0.000258046
9.70136e-05
1.01498e-05
3.13319e-05
2.85122e-05
0.000102841
7.81268e-05
2.33643e-05
0.000474866
0.000431761
0.000306055
0.000491078
0.00064614
0.000444558
0.000421649
0.000208438
0.000173766
0.000276296
0.00044386
0.000649596
0.000750698
0.0006637
0.000529776
0.000449897
0.000339898
0.000181662
2.60493e-05
9.45371e-06
0.000171861
2.8282e-05
0.000102269
7.59916e-05
2.24145e-05
0.000609694
0.000419439
0.00031645
0.000523543
0.000671282
0.000443517
0.000399259
0.0001669
0.000182829
0.000293444
0.000472437
0.000697234
0.000803669
0.000737198
0.000607361
0.000513408
0.000421769
0.000278565
7.96247e-05
4.96243e-06
7.1203e-05
0.000406386
2.7971e-05
0.000102342
7.29486e-05
2.1363e-05
0.000655028
0.000400995
0.000334858
0.000561767
0.000698971
0.000440538
0.000369765
0.000148316
0.000206919
0.000322018
0.000505225
0.000735521
0.00084562
0.000804695
0.000681753
0.000580137
0.00049346
0.000375129
0.000161595
1.35959e-05
2.70127e-05
0.000250575
0.000572108
2.75275e-05
0.000101537
6.91385e-05
2.02738e-05
0.000666618
0.000372819
0.000365171
0.00060888
0.000725289
0.000431775
0.000337601
0.000141047
0.000241166
0.00036635
0.000547378
0.000779573
0.000891973
0.00086498
0.000755163
0.000645464
0.000561398
0.00045882
0.000298441
4.68251e-05
6.92609e-06
0.000152785
0.000455642
0.000641814
2.68272e-05
9.80859e-05
6.50507e-05
1.92169e-05
0.000668277
0.000342526
0.000411619
0.000668118
0.000749548
0.000419511
0.000309095
0.000142579
0.000276633
0.000416894
0.000601849
0.000830901
0.000945362
0.000926259
0.000824225
0.000719704
0.000627547
0.00053349
0.000398132
0.000158068
5.96466e-06
6.47432e-05
0.000359576
0.00058688
0.000663427
2.5777e-05
9.25345e-05
6.101e-05
1.82763e-05
0.000667948
0.000303977
0.000476353
0.000721693
0.000769747
0.000404561
0.000281417
0.000146868
0.000326009
0.000462067
0.000661098
0.000889237
0.00100142
0.000985494
0.000893695
0.000792632
0.000696005
0.00060575
0.000483996
0.000291372
3.58613e-05
2.31634e-05
0.000248388
0.000526841
0.000644672
0.000667997
2.44112e-05
8.74668e-05
5.6979e-05
1.75547e-05
0.00066749
0.00025863
0.000566161
0.000770776
0.0007842
0.00038746
0.00022058
0.000152878
0.000383396
0.000514264
0.000715972
0.000949301
0.00106258
0.00104594
0.000958339
0.000864646
0.000760667
0.000677133
0.000565467
0.000403174
0.000131096
5.82616e-06
0.000158515
0.000450925
0.000617474
0.000663743
0.000668207
2.27694e-05
8.03308e-05
5.34323e-05
1.71258e-05
0.000667227
0.000718308
0.000788647
0.000794056
0.000363734
0.000173218
0.00016495
0.000448788
0.000575701
0.000774396
0.00100549
0.00112251
0.00111045
0.00102367
0.0009321
0.000823226
0.000743368
0.000643967
0.000497193
0.000246085
2.16223e-05
4.46095e-05
0.000379851
0.000580017
0.000655141
0.000668093
0.00066776
2.08188e-05
7.1773e-05
5.0506e-05
1.70349e-05
0.000667088
0.000804488
0.000800736
0.000333271
0.000148993
0.000187045
0.000526412
0.000643449
0.000836746
0.00106333
0.00117801
0.00117311
0.0010918
0.00100145
0.000883562
0.000807447
0.00071649
0.000586226
0.000384567
7.65119e-05
8.49114e-06
0.000238238
0.000541039
0.00064112
0.000666818
0.00066833
0.000667403
1.88343e-05
6.23915e-05
4.83477e-05
1.76108e-05
0.000667004
0.000808071
0.000283376
0.000136121
0.000222933
0.000616165
0.000719497
0.000902605
0.00112327
0.0012369
0.00123359
0.00115787
0.0010721
0.000956644
0.000869011
0.000787293
0.000668071
0.000493615
0.000190041
9.14224e-06
8.8292e-05
0.000467623
0.000623832
0.000663596
0.000668947
0.000667862
0.000667168
1.71992e-05
5.36994e-05
4.90069e-05
1.90447e-05
0.00066695
0.000226272
0.000129277
0.000275816
0.00071299
0.000804082
0.000973221
0.00118503
0.00129669
0.00129531
0.0012215
0.00114032
0.00102993
0.000933879
0.000854855
0.000748485
0.000587935
0.000321598
3.65986e-05
2.62889e-05
0.000330885
0.000596503
0.000658414
0.000669291
0.00066859
0.000667441
0.000667004
1.6204e-05
4.74903e-05
4.9639e-05
2.08472e-05
0.000666912
0.000176907
0.000130137
0.000348562
0.000813303
0.000894119
0.00104902
0.00124963
0.0013572
0.00135756
0.00128547
0.00120611
0.00109957
0.000998828
0.000921001
0.000824918
0.000680558
0.000459248
0.000110886
8.20957e-06
0.000193563
0.000537545
0.000649747
0.00066909
0.000669539
0.000667931
0.000667133
0.000666884
1.59807e-05
4.58203e-05
5.51393e-05
0.000666885
0.000141809
0.000141805
0.000460639
0.000920686
0.000986655
0.00112903
0.00131733
0.00141995
0.00142052
0.00135026
0.0012718
0.00116651
0.00106106
0.000985802
0.000897069
0.000768474
0.000572048
0.000230625
1.34908e-05
7.90761e-05
0.000451697
0.000631996
0.000667722
0.000670591
0.000668672
0.000667406
0.000666908
0.000666795
1.74561e-05
5.03455e-05
0.000666865
0.000118417
0.000176317
0.000589518
0.00103415
0.00108356
0.00121193
0.00138749
0.00148414
0.0014847
0.00141568
0.00133864
0.00123366
0.00112125
0.00104786
0.000966224
0.00085
0.000674658
0.000373369
4.5731e-05
2.45782e-05
0.00033028
0.000601267
0.000664056
0.000671471
0.000669654
0.00066786
0.000667025
0.000666742
0.000666728
1.93725e-05
0.000666849
0.000109692
0.000240796
0.00072798
0.00114999
0.0011848
0.00129716
0.00145947
0.00154891
0.00154909
0.00148163
0.00140601
0.00130342
0.0011849
0.00110802
0.00103215
0.000926739
0.000769179
0.000523998
0.000126458
9.61211e-06
0.00019641
0.000549057
0.000656768
0.000671971
0.000670792
0.000668516
0.000667262
0.00066675
0.000666618
0.000666678
0.000666838
0.000112103
0.000336557
0.000868323
0.0012662
0.00128816
0.00138427
0.00153242
0.00161378
0.00161287
0.00154732
0.00147328
0.00137366
0.00125623
0.00116901
0.00109607
0.000999373
0.000856858
0.000641185
0.000257848
1.5146e-05
8.97157e-05
0.000469033
0.000642968
0.000671872
0.000672069
0.00066937
0.000667641
0.000666837
0.000666549
0.000666527
0.000666642
0.000666829
0.000132139
0.000491004
0.00101168
0.00138217
0.00139211
0.00147242
0.00160555
0.00167874
0.00167524
0.00161209
0.00153979
0.00144297
0.00132803
0.00123308
0.00115928
0.0010696
0.000939038
0.000744169
0.000405926
4.88668e-05
3.12948e-05
0.00036036
0.000617129
0.000670392
0.000673516
0.000670444
0.000668178
0.000667019
0.000666531
0.000666402
0.000666459
0.000666614
0.000666823
0.000179222
0.000680279
0.00115729
0.00149749
0.00149588
0.0015613
0.0016782
0.00174347
0.00173719
0.00167516
0.00160512
0.00151079
0.00139814
0.0012978
0.00122292
0.00113797
0.00101786
0.00083977
0.000560265
0.000127274
1.17843e-05
0.000232315
0.000574475
0.000665897
0.000674981
0.000671795
0.000668899
0.000667316
0.000666579
0.000666312
0.000666295
0.000666409
0.000666594
0.000666818
0.000343909
0.000879425
0.00130395
0.00161235
0.00159887
0.00165011
0.0017524
0.0018078
0.00179964
0.00173736
0.00166877
0.00157698
0.00146625
0.00136172
0.0012866
0.00120505
0.00109376
0.000930197
0.000685043
0.00025469
1.49454e-05
0.000113927
0.000508177
0.000656449
0.000676062
0.000673424
0.000669843
0.000667745
0.000666707
0.000666267
0.000666153
0.000666216
0.000666372
0.00066658
0.000666815
0.000604405
0.00108373
0.00145175
0.00172687
0.00170093
0.001738
0.00182684
0.00187261
0.00186194
0.0017998
0.00173163
0.0016415
0.00153247
0.00142441
0.00134959
0.00127128
0.00116701
0.00101636
0.000792368
0.0003965
4.18117e-05
4.52267e-05
0.000408783
0.00063818
0.000676186
0.000675255
0.000671037
0.000668332
0.000666928
0.000666277
0.000666043
0.000666039
0.000666158
0.000666345
0.000666569
0.000666813
0.000903302
0.00128767
0.00159855
0.00183963
0.00180216
0.0018243
0.00190054
0.00193625
0.00192378
0.00186205
0.00179458
0.00170574
0.00159713
0.00148597
0.0014115
0.00133658
0.00123839
0.00109852
0.000893159
0.000558946
0.000103833
1.70315e-05
0.000287167
0.000605237
0.000674322
0.000677161
0.00067248
0.000669097
0.000667256
0.000666352
0.000665972
0.000665883
0.000665956
0.000666117
0.000666326
0.000666563
0.000666817
0.0011799
0.0014805
0.00173958
0.00194801
0.0019019
0.00190885
0.0019725
0.00200199
0.00198469
0.0019236
0.00185721
0.00177013
0.0016629
0.00154691
0.0014724
0.00140067
0.0013083
0.00117752
0.000987815
0.000701438
0.000216672
1.35354e-05
0.000164578
0.000553027
0.000668874
0.000678895
0.000674159
0.000670051
0.000667704
0.0006665
0.000665945
0.000665755
0.000665768
0.000665896
0.000666087
0.000666313
0.00066656
0.000667169
0.0014139
0.00165435
0.00187051
0.00204958
0.0019985
0.00199165
0.00204213
0.00206592
0.00204591
0.00198402
0.00191895
0.00183397
0.00172923
0.00161297
0.00153273
0.00146361
0.00137667
0.00125418
0.00107738
0.000816492
0.000355935
2.86879e-05
7.87792e-05
0.000474233
0.000657471
0.000680081
0.000676028
0.000671204
0.000668282
0.000666729
0.000665968
0.000665657
0.0006656
0.000665687
0.000665854
0.000666066
0.000666275
0.000666094
0.000637932
0.00160929
0.00180738
0.00198923
0.00214301
0.00209015
0.00207239
0.00210936
0.00212747
0.00210567
0.00204405
0.00197935
0.00189661
0.00179478
0.00168065
0.00159514
0.00152572
0.0014436
0.00132872
0.00116339
0.000922131
0.00051333
7.13322e-05
3.23068e-05
0.000371807
0.000635888
0.000680181
0.000678015
0.000672556
0.000669001
0.000667046
0.000666047
0.000665594
0.000665453
0.000665491
0.00066563
0.000665822
0.000665953
0.000664262
0.000608959
9.46834e-05
0.00177463
0.00194121
0.00209556
0.00222795
0.00217555
0.00215022
0.00217425
0.0021865
0.00216342
0.00210293
0.00203893
0.00195768
0.0018588
0.00174739
0.00165875
0.00158826
0.00150933
0.00140138
0.00124646
0.00102242
0.000670463
0.000154569
1.60992e-05
0.000253575
0.000600994
0.000678186
0.00068002
0.000674099
0.000669868
0.000667459
0.000666186
0.000665569
0.000665331
0.00066531
0.000665415
0.000665582
0.000665586
0.000662005
0.000583946
9.3921e-05
0.00191644
0.0020583
0.0021903
0.00230474
0.00225412
0.00222416
0.00223678
0.00224295
0.00221881
0.00216005
0.00209738
0.00201751
0.00192106
0.00181245
0.00172207
0.00165124
0.00157447
0.00147242
0.00132693
0.0011176
0.000805589
0.000278743
1.85969e-05
0.000145069
0.000547377
0.000672978
0.000681851
0.000675827
0.000670887
0.000667974
0.00066639
0.000665587
0.000665235
0.000665147
0.000665211
0.000665345
0.000665175
0.000659428
0.000562174
9.31545e-05
0.00203913
0.00216095
0.00227465
0.00237396
0.00232585
0.00229345
0.0022967
0.00229687
0.00227163
0.00221499
0.0021542
0.00207612
0.0019818
0.00187569
0.00178441
0.001714
0.0016393
0.00154207
0.00140513
0.0012085
0.000920373
0.000418256
4.01011e-05
7.13543e-05
0.000470265
0.000661772
0.000683233
0.000677714
0.000672065
0.000668597
0.000666665
0.00066565
0.00066517
0.000665003
0.000665019
0.000665115
0.000664686
0.000656578
0.000542984
9.23994e-05
0.00214584
0.00225132
0.00234976
0.0024363
0.00239103
0.00235772
0.00235366
0.00234831
0.00232185
0.00226749
0.00220897
0.00213322
0.0020412
0.00193734
0.00184555
0.00177603
0.00170368
0.0016107
0.00148121
0.00129616
0.00102754
0.000580171
8.76912e-05
3.22732e-05
0.000371063
0.000641843
0.000683647
0.000679714
0.000673407
0.000669335
0.000667015
0.000665761
0.000665136
0.00066488
0.000664841
0.000664892
0.000664364
0.000653492
0.000525917
9.16634e-05
0.00223941
0.00233105
0.00241675
0.00249249
0.00245014
0.0024169
0.00240736
0.00239725
0.00236952
0.00231744
0.00226139
0.00218845
0.00209917
0.00199762
0.00190559
0.00183707
0.00176732
0.00167848
0.0015555
0.00138092
0.00112999
0.000737601
0.000174133
1.84792e-05
0.000259727
0.000610067
0.000682348
0.00068174
0.00067491
0.000670194
0.000667446
0.000665926
0.000665137
0.000664781
0.000664678
0.000664673
0.000664022
0.000650206
0.000510539
9.09254e-05
0.00232147
0.00240164
0.00247663
0.00254324
0.00250373
0.00247117
0.00245765
0.00244367
0.00241474
0.00236484
0.00231132
0.00224151
0.00215545
0.00205659
0.00196471
0.00189715
0.00183
0.00174533
0.00162837
0.00146308
0.00122765
0.000875998
0.000297197
2.12282e-05
0.00015815
0.000562206
0.000678507
0.00068365
0.000676567
0.000671179
0.00066796
0.000666147
0.000665176
0.000664706
0.000664532
0.000664457
0.000663541
0.000646761
0.000496571
9.01649e-05
0.00239389
0.00246438
0.00253035
0.00258921
0.00255237
0.00252083
0.0025045
0.00248751
0.00245762
0.00240979
0.00235872
0.0022922
0.00220977
0.00211411
0.002023
0.00195641
0.00189171
0.00181115
0.00169998
0.00154312
0.00132082
0.000994727
0.000436314
4.11977e-05
8.4885e-05
0.000494922
0.00066983
0.000685263
0.00067836
0.000672291
0.000668564
0.000666426
0.000665253
0.000664658
0.000664403
0.000664239
0.000662928
0.000643079
0.000483796
8.94283e-05
0.00245809
0.00252038
0.00257873
0.00263098
0.00259663
0.00256629
0.002548
0.00252878
0.00249824
0.0024524
0.00240367
0.00234044
0.00226192
0.00216997
0.00208039
0.00201495
0.00195253
0.00187589
0.00177037
0.00162138
0.00141058
0.00110519
0.000595353
8.4233e-05
4.22211e-05
0.000407567
0.000654543
0.000686222
0.000680261
0.000673534
0.000669259
0.000666767
0.000665373
0.000664639
0.000664292
0.000664018
0.00066221
0.000639197
0.000472036
8.87223e-05
0.00251526
0.0025706
0.00262245
0.00266906
0.002637
0.00260794
0.00258836
0.00256755
0.00253668
0.00249279
0.0024463
0.00238627
0.00231178
0.00222398
0.00213675
0.00207281
0.0020126
0.00193962
0.00183952
0.001698
0.00149775
0.00121069
0.000756625
0.000160411
2.35852e-05
0.000305974
0.000630243
0.000686044
0.00068222
0.000674908
0.000670049
0.000667173
0.000665536
0.000664649
0.000664201
0.000663792
0.000661409
0.000635212
0.000461152
8.80422e-05
0.00256641
0.00261582
0.00266213
0.00270385
0.00267394
0.00264619
0.0026258
0.00260393
0.00257304
0.00253108
0.00248673
0.00242981
0.00235936
0.00227601
0.0021919
0.00212989
0.00207196
0.00200246
0.00190747
0.00177305
0.00158265
0.0013122
0.000905451
0.000271849
2.1595e-05
0.00020462
0.000593797
0.00068415
0.000684156
0.00067641
0.000670938
0.000667645
0.000665744
0.000664691
0.000664128
0.000663561
0.00066051
0.00063117
0.000451033
8.73826e-05
0.0026124
0.00265672
0.00269822
0.00273576
0.00270779
0.00268137
0.00266058
0.00263807
0.00260745
0.0025674
0.00252513
0.00247121
0.00240475
0.00232603
0.00224572
0.00218609
0.00213062
0.00206449
0.00197434
0.00184663
0.00166547
0.00140952
0.00103211
0.000407172
3.42433e-05
0.000122284
0.000541707
0.000679304
0.000685955
0.000678033
0.000671928
0.000668188
0.000666
0.000664765
0.000664077
0.000663326
0.000659507
0.000627168
0.000441585
8.67412e-05
0.00265391
0.00269382
0.0027312
0.00276525
0.00273894
0.00271379
0.00269291
0.00267015
0.00264004
0.00260188
0.00256163
0.00251064
0.00244809
0.00237411
0.00229814
0.00224129
0.00218851
0.00212576
0.00204022
0.00191889
0.00174644
0.00150325
0.00114864
0.00055323
6.58135e-05
6.74526e-05
0.000471789
0.000669873
0.000687436
0.000679762
0.000673024
0.000668803
0.000666306
0.000664874
0.000664046
0.000663086
0.000658459
0.000623168
0.000432731
8.61147e-05
0.00269153
0.00272761
0.00276151
0.00279273
0.00276785
0.0027438
0.00272301
0.00270029
0.00267093
0.00263467
0.00259639
0.00254824
0.00248955
0.00242035
0.00234919
0.00229543
0.00224554
0.00218624
0.0021052
0.00198996
0.00182578
0.0015942
0.00125963
0.000718994
0.000121694
3.67688e-05
0.000385196
0.000654316
0.000688313
0.000681574
0.000674225
0.000669494
0.000666664
0.000665018
0.000664036
0.000662841
0.000657369
0.000619133
0.000424407
8.55061e-05
0.00272574
0.00275857
0.00278962
0.00281857
0.0027949
0.00277183
0.00275119
0.00272864
0.00270022
0.00266589
0.00262953
0.00258419
0.00252929
0.00246491
0.00239891
0.0023485
0.00230166
0.00224588
0.00216929
0.00205991
0.00190361
0.00168287
0.00136674
0.000878424
0.000210946
2.48219e-05
0.000288683
0.000630531
0.000688201
0.000683432
0.000675533
0.000670264
0.000667076
0.0006652
0.000664048
0.000662591
0.000656238
0.000615066
0.000416556
8.4899e-05
0.00275704
0.00278717
0.00281591
0.00284315
0.00282045
0.00279824
0.0027779
0.00275559
0.00272806
0.00269563
0.00266119
0.00261862
0.00256746
0.00250793
0.00244741
0.00240054
0.00235684
0.00230465
0.00223248
0.00212878
0.00198001
0.00176943
0.00147027
0.00102357
0.000330596
2.69235e-05
0.000196013
0.000595759
0.00068668
0.000685272
0.000676945
0.000671115
0.000667545
0.00066542
0.000664083
0.000662336
0.000655066
0.000610977
0.000409127
8.43025e-05
0.00278589
0.00281383
0.00284077
0.00286682
0.00284486
0.00282336
0.00280345
0.00278162
0.00275498
0.00272406
0.00269145
0.00265166
0.00260422
0.00254956
0.00249479
0.00245161
0.0024111
0.0023625
0.00229474
0.00219658
0.00205507
0.00185405
0.00156997
0.00115164
0.000467872
4.32718e-05
0.000121738
0.00054717
0.000682518
0.000687018
0.000678454
0.000672049
0.000668071
0.00066568
0.00066414
0.000662077
0.000653852
0.000606873
0.00040208
8.3717e-05
0.00281274
0.00283893
0.00286457
0.00289002
0.00286849
0.00284754
0.00282809
0.00280694
0.00278152
0.00275189
0.00272051
0.00268339
0.00263968
0.00258992
0.00254115
0.00250181
0.0024645
0.00241945
0.00235606
0.00226335
0.00212888
0.00193693
0.00166634
0.00127115
0.000619661
7.77502e-05
7.1181e-05
0.000482844
0.000674637
0.000688526
0.00068005
0.000673066
0.000668658
0.00066598
0.000664219
0.000661812
0.000652599
0.000602762
0.000395376
8.31419e-05
0.00283797
0.00286285
0.00288772
0.00291328
0.00289179
0.00287113
0.0028522
0.00283178
0.00280777
0.00277967
0.00274923
0.00271405
0.00267394
0.00262913
0.00258656
0.0025512
0.00251711
0.00247553
0.00241641
0.00232907
0.00220145
0.00201826
0.00176003
0.00138562
0.00078776
0.000136157
4.16495e-05
0.000403334
0.000661782
0.000689592
0.000681717
0.000674167
0.000669305
0.000666322
0.000664321
0.000661543
0.000651307
0.000598649
0.000388986
8.25768e-05
0.00286197
0.00288601
0.00291073
0.00293724
0.00291531
0.00289463
0.00287614
0.00285661
0.00283394
0.0028074
0.00277815
0.00274484
0.00270726
0.00266727
0.0026311
0.00259987
0.002569
0.0025308
0.00247583
0.00239372
0.00227279
0.00209812
0.0018515
0.00149647
0.000950572
0.000225578
2.90538e-05
0.000313587
0.000642256
0.000689947
0.000683427
0.000675349
0.000670013
0.000666706
0.000664447
0.000661259
0.000649976
0.000594541
0.000382879
8.20213e-05
0.00288513
0.00290888
0.00293421
0.00296287
0.00293971
0.00291862
0.0029005
0.00288178
0.00286072
0.00283528
0.00280718
0.00277626
0.00274143
0.00270463
0.00267481
0.00264786
0.00262025
0.00258534
0.00253436
0.00245733
0.00234286
0.00217651
0.00194089
0.00160408
0.00110092
0.000343727
2.99508e-05
0.000223728
0.000613876
0.000689286
0.00068514
0.000676612
0.000670784
0.000667133
0.000664596
0.000661047
0.00064861
0.000590442
0.000377033
8.1475e-05
0.00290794
0.00293205
0.00295906
0.00299168
0.00296605
0.0029438
0.00292595
0.00290808
0.00288841
0.0028643
0.00283656
0.00280798
0.00277679
0.00274416
0.00271793
0.00269523
0.00267091
0.00263921
0.00259206
0.00251992
0.0024117
0.00225349
0.00202826
0.001708
0.00123521
0.000481061
4.41098e-05
0.000147434
0.000574023
0.000686865
0.000686807
0.00067795
0.000671617
0.000667602
0.000664768
0.000660847
0.000647206
0.000586356
0.000371426
8.09375e-05
0.00293097
0.00295637
0.00298667
0.00302667
0.00299591
0.00297134
0.00295328
0.00293631
0.00291818
0.00289458
0.00286751
0.00284037
0.00281264
0.00278561
0.00276206
0.00274216
0.00272106
0.00269248
0.00264901
0.00258155
0.00247937
0.00232903
0.00211375
0.00180848
0.00136057
0.000629518
7.46832e-05
9.18533e-05
0.000520533
0.0006817
0.000688349
0.000679357
0.000672513
0.000668117
0.000664958
0.000660628
0.00064577
0.000582287
0.000366037
8.04085e-05
0.00295505
0.00298317
0.00301982
0.00307417
0.00303247
0.00300297
0.00298401
0.0029674
0.00295093
0.00292777
0.00289998
0.00287518
0.00284956
0.00282765
0.00280748
0.00278949
0.00277083
0.00274524
0.00270527
0.00264229
0.0025459
0.00240317
0.00219746
0.00190599
0.00148052
0.000800873
0.000125739
5.60086e-05
0.000452382
0.000672948
0.000689636
0.000680826
0.000673473
0.000668682
0.0006652
0.000660382
0.000644302
0.000578238
0.000360851
7.98876e-05
0.00298145
0.00301505
0.00306445
0.00314262
0.00308239
0.00304217
0.00302017
0.00300344
0.00298779
0.00296477
0.00293607
0.00291185
0.00289031
0.00287038
0.00285352
0.0028376
0.00282067
0.00279759
0.00276093
0.00270219
0.00261136
0.0024759
0.0022795
0.00200103
0.00159646
0.000970577
0.000205409
3.71694e-05
0.000372056
0.000659359
0.000690505
0.000682342
0.000674497
0.000669303
0.000665492
0.000660115
0.000642804
0.000574211
0.000355851
7.93747e-05
0.00301271
0.0030577
0.00313105
0.00322523
0.00315176
0.00309593
0.00306602
0.00304689
0.00303187
0.00300684
0.00297666
0.00295359
0.00293295
0.0029154
0.00290009
0.00288627
0.00287088
0.00284977
0.0028161
0.00276136
0.00267579
0.00254729
0.00235993
0.00209378
0.00170931
0.00113186
0.000313795
3.22243e-05
0.000285052
0.00063932
0.000690735
0.000683885
0.000675584
0.00066997
0.000665822
0.000659831
0.000641278
0.00057021
0.000351025
7.88694e-05
0.0030544
0.00312258
0.00321394
0.00331474
0.00323404
0.00316662
0.00312628
0.00310134
0.00308351
0.00305506
0.0030224
0.00299906
0.00297892
0.00296205
0.00294806
0.0029354
0.0029215
0.00290201
0.00287088
0.00281988
0.0027393
0.00261742
0.00243881
0.00218433
0.00181859
0.00127585
0.000446007
3.97489e-05
0.000202392
0.000610778
0.000690113
0.000685427
0.000676732
0.000670677
0.000666076
0.000659535
0.000639723
0.000566235
0.000346358
7.83716e-05
0.00311831
0.00320557
0.00330453
0.00340629
0.00332272
0.00324832
0.00319837
0.00316557
0.00314253
0.00310936
0.00307325
0.00304843
0.00302784
0.00301099
0.00299733
0.00298541
0.0029725
0.00295445
0.00292544
0.00287781
0.00280196
0.00268638
0.00251614
0.00227274
0.00192415
0.00140985
0.0005895
6.1272e-05
0.00013526
0.000571345
0.000687731
0.000686935
0.000677937
0.000671422
0.000666317
0.000659222
0.000638142
0.000562289
0.000341841
7.78808e-05
0.00320131
0.00329694
0.00339724
0.00349707
0.00341337
0.00333567
0.0032785
0.00323779
0.00320826
0.00316966
0.00312921
0.00310181
0.00307978
0.00306222
0.00304824
0.00303641
0.00302406
0.00300712
0.00297994
0.00293526
0.00286382
0.00275424
0.00259202
0.00235912
0.00202631
0.00153701
0.000753169
9.96207e-05
8.68607e-05
0.000519228
0.000683038
0.000688341
0.000679196
0.000672207
0.000666578
0.000658896
0.000636536
0.000558373
0.000337463
7.73971e-05
0.00329308
0.00339052
0.00348907
0.00358565
0.00350336
0.00342488
0.00336314
0.00331577
0.0032796
0.00323546
0.00319025
0.00315926
0.00313486
0.0031158
0.00310091
0.00308861
0.00307632
0.00306011
0.00303448
0.00299237
0.00292493
0.00282105
0.00266649
0.00244362
0.00212549
0.00165931
0.000928651
0.000160855
5.59627e-05
0.000453803
0.000675256
0.000689554
0.000680502
0.00067303
0.000666861
0.000658557
0.000634904
0.000554488
0.000333215
7.692e-05
0.0033871
0.00348312
0.00357853
0.00367131
0.00359124
0.00351356
0.00344947
0.00339724
0.00335514
0.0033059
0.003256
0.00322079
0.00319316
0.00317185
0.00315543
0.00314215
0.00312946
0.00311355
0.00308911
0.00304928
0.00298543
0.00288684
0.00273961
0.00252637
0.00222208
0.00177785
0.00110014
0.000249703
4.01539e-05
0.000376866
0.000663317
0.000690453
0.000681846
0.000673893
0.000667166
0.000658209
0.00063325
0.000550635
0.000329088
7.64494e-05
0.0034801
0.00357324
0.00366493
0.00375377
0.00367632
0.00360034
0.00353548
0.0034802
0.00343342
0.00337989
0.00332573
0.00328613
0.00325472
0.00323047
0.0032119
0.00319713
0.00318358
0.00316756
0.00314395
0.00310603
0.00304544
0.00295173
0.0028114
0.00260745
0.00231626
0.00189315
0.00126089
0.000365016
3.73722e-05
0.000293284
0.000645815
0.000690881
0.000683214
0.000674793
0.000667491
0.000657849
0.000631575
0.000546815
0.000325075
7.59852e-05
0.00357055
0.00366019
0.00374801
0.00383297
0.0037583
0.00368448
0.00361994
0.00356305
0.003513
0.00345625
0.00339855
0.00335471
0.00331934
0.00329167
0.0032704
0.00325365
0.00323881
0.00322227
0.00319908
0.00316273
0.00310504
0.00301581
0.00288197
0.00268685
0.00240811
0.00200474
0.00140686
0.00050094
4.66928e-05
0.000213714
0.000620914
0.000690685
0.00068459
0.000675731
0.000667835
0.000657481
0.000629878
0.000543029
0.000321168
7.55271e-05
0.00365777
0.00374372
0.00382773
0.00390898
0.00383709
0.00376567
0.0037021
0.00364471
0.00359264
0.00353381
0.0034735
0.00342585
0.00338658
0.00335532
0.00333096
0.00331177
0.00329522
0.00327776
0.00325461
0.00321946
0.00316431
0.00307919
0.00295139
0.00276465
0.00249766
0.00211253
0.00154384
0.000647108
6.96059e-05
0.000147964
0.000586574
0.000689157
0.000685954
0.000676705
0.000668198
0.000657103
0.000628163
0.000539275
0.000317362
7.5075e-05
0.00374153
0.00382382
0.00390418
0.00398195
0.00391276
0.0038438
0.00378162
0.00372446
0.0036714
0.00361151
0.00354956
0.00349879
0.00345588
0.00342104
0.00339344
0.00337151
0.00335287
0.00333412
0.00331064
0.0032763
0.00322332
0.00314194
0.00301977
0.00284093
0.002585
0.00221674
0.00167412
0.000815002
0.00010855
9.90895e-05
0.000541054
0.000685868
0.000687264
0.000677713
0.000668578
0.000656716
0.000626429
0.000535556
0.00031365
7.46287e-05
0.00382182
0.00390059
0.00397752
0.00405203
0.00398543
0.00391891
0.00385834
0.00380192
0.00374862
0.00368849
0.00362581
0.00357275
0.00352672
0.00348843
0.00345755
0.00343274
0.00341176
0.0033914
0.00336723
0.00333333
0.00328214
0.00320413
0.00308718
0.00291579
0.0026703
0.00231774
0.00179939
0.000993422
0.00016935
6.63794e-05
0.000483426
0.000680235
0.000688459
0.000678753
0.000668976
0.00065632
0.000624679
0.00053187
0.000310025
7.41879e-05
0.00389876
0.0039742
0.00404792
0.00411941
0.00405526
0.0039911
0.00393226
0.00387689
0.00382389
0.00376413
0.00370147
0.00364696
0.00359846
0.00355708
0.00352299
0.00349523
0.00347178
0.00344959
0.00342443
0.00339063
0.00334086
0.00326582
0.0031537
0.00298931
0.00275369
0.00241591
0.00192065
0.00116831
0.000256037
4.79976e-05
0.000414292
0.00067146
0.000689462
0.000679819
0.000669391
0.000655915
0.000622914
0.000528219
0.000306485
7.37526e-05
0.0039725
0.00404483
0.00411557
0.00418428
0.00412243
0.00406053
0.00400344
0.00394932
0.00389699
0.00383803
0.00377594
0.00372072
0.00367049
0.00362653
0.00358944
0.00355875
0.00353276
0.0035086
0.00348223
0.00344824
0.00339954
0.0033271
0.0032194
0.00306158
0.0028353
0.00251146
0.00203854
0.00133307
0.000367899
4.24387e-05
0.000336197
0.000658491
0.000690169
0.000680904
0.000669823
0.000655502
0.000621134
0.000524601
0.000303022
7.33227e-05
0.00404325
0.00411269
0.00418067
0.00424679
0.0041871
0.00412735
0.004072
0.00401923
0.00396782
0.00390995
0.00384881
0.00379348
0.00374221
0.00369629
0.00365659
0.00362308
0.0035945
0.00356828
0.00354057
0.00350615
0.00345822
0.00338801
0.00328433
0.00313266
0.00291521
0.00260452
0.00215272
0.00148341
0.000500465
4.85877e-05
0.000257262
0.000639891
0.000690475
0.000681999
0.000670271
0.000655081
0.000619342
0.000521018
0.000299634
7.28979e-05
0.0041112
0.00417796
0.00424339
0.00430713
0.00424946
0.00419172
0.00413807
0.0040867
0.00403635
0.00397976
0.00391983
0.00386485
0.00381313
0.00376587
0.00372405
0.00368797
0.00365684
0.00362849
0.00359931
0.00356431
0.0035169
0.00344862
0.00334856
0.00320261
0.00299348
0.00269515
0.00226295
0.00162521
0.000644747
6.7069e-05
0.000187449
0.000613966
0.000690013
0.000683094
0.000670735
0.000654651
0.000617539
0.000517468
0.000296316
7.24781e-05
0.00417656
0.00424083
0.00430391
0.00436544
0.00430965
0.00425381
0.00420179
0.00415182
0.00410264
0.00404742
0.00398887
0.00393457
0.00388287
0.00383483
0.00379143
0.00375317