/*--------------------------------*- C++ -*----------------------------------*\
| =========                 |                                                 |
| \\      /  F ield         | OpenFOAM: The Open Source CFD Toolbox           |
|  \\    /   O peration     | Version:  1.6.x                                 |
|   \\  /    A nd           | Web:      www.OpenFOAM.org                      |
|    \\/     M anipulation  |                                                 |
\*---------------------------------------------------------------------------*/
FoamFile
{
    version     2.0;
    format      ascii;
    class       volScalarField;
    location    "7000";
    object      CH4;
}
// * * * * * * * * * * * * * * * * * * * * * * * * * * * * * * * * * * * * * //

dimensions      [0 0 0 0 0 0 0];

internalField   nonuniform List<scalar> 
4608
(
0.156088
0.1561
0.156098
0.149969
0.1561
0.1561
0.1561
0.155768
0.146769
0.122042
0.1561
0.1561
0.1561
0.1561
0.15608
0.155299
0.144551
0.117756
0.0595094
0.1561
0.1561
0.1561
0.1561
0.156098
0.156032
0.154754
0.14283
0.116274
0.0672623
0.000664855
0.0059339
0.1561
0.1561
0.1561
0.1561
0.156092
0.15596
0.154148
0.141058
0.1164
0.0710486
0.0230599
6.93219e-05
3.7448e-06
0.000475196
0.1561
0.1561
0.1561
0.1561
0.156081
0.155857
0.153477
0.139901
0.114952
0.0742774
0.0335021
0.00280026
7.78413e-06
6.54737e-07
2.09552e-08
4.37277e-05
0.1561
0.1561
0.1561
0.1561
0.156061
0.155721
0.152775
0.131967
0.118278
0.075537
0.0404629
0.00645388
0.000353099
1.13534e-06
1.01679e-07
5.43747e-09
1.19599e-10
1.89794e-05
0.1561
0.1561
0.1561
0.1561
0.156032
0.15555
0.151808
0.1275
0.118549
0.0803083
0.0437
0.0134195
0.000768469
0.00011638
1.75979e-08
1.07902e-09
4.17772e-11
6.93939e-13
7.9998e-06
0.1561
0.1561
0.1561
0.1561
0.155989
0.155336
0.150801
0.124572
0.115906
0.0859367
0.0487692
0.0176925
0.00155288
0.000245714
4.05041e-05
2.18683e-10
1.01575e-11
3.0813e-13
5.3738e-15
2.0686e-06
0.1561
0.1561
0.1561
0.1561
0.15593
0.155088
0.149785
0.122572
0.112811
0.0872709
0.0560593
0.0230573
0.00206851
0.000494044
8.20699e-05
1.21357e-05
2.38054e-12
8.91116e-14
3.08787e-15
5.01723e-17
2.47255e-07
0.1561
0.1561
0.1561
0.1561
0.155853
0.154808
0.148794
0.120559
0.110375
0.0867621
0.0597737
0.0307468
0.00301656
0.000674086
0.000156638
2.41055e-05
2.87904e-06
2.36978e-14
1.30554e-15
3.37971e-17
4.79788e-19
2.12729e-08
0.1561
0.1561
0.1561
0.1561
0.155757
0.154504
0.147782
0.120494
0.107651
0.0859378
0.0611376
0.0357041
0.00889184
0.0010279
0.000217664
4.28849e-05
6.86937e-06
3.25095e-07
4.99697e-16
1.89073e-17
3.69946e-19
4.68856e-21
4.0985e-09
0.1561
0.1561
0.1561
0.1561
0.155641
0.154176
0.146849
0.120954
0.107363
0.084587
0.0617549
0.0384054
0.0141536
0.00312033
0.000337953
5.90669e-05
1.23112e-05
1.20219e-06
2.86966e-08
9.05324e-18
2.61035e-19
4.05991e-21
4.67505e-23
1.32613e-09
0.1561
0.1561
0.1561
0.1561
0.155506
0.153829
0.142284
0.119652
0.108874
0.0843036
0.0616382
0.040209
0.0178442
0.00503679
0.0010183
9.0156e-05
1.69512e-05
2.96397e-06
1.03022e-07
5.35007e-09
1.47663e-19
3.49471e-21
4.4726e-23
4.74325e-25
5.18497e-10
0.1561
0.1561
0.1561
0.1561
0.155351
0.153313
0.138571
0.117412
0.108175
0.0855159
0.0620201
0.0411834
0.0206525
0.00792277
0.00168332
0.000266553
2.50516e-05
4.9261e-06
3.20851e-07
1.3331e-08
1.72132e-09
2.2554e-21
4.58816e-23
4.94048e-25
4.87538e-27
2.08194e-10
0.1561
0.1561
0.1561
0.1561
0.155165
0.152698
0.135508
0.114523
0.106232
0.0858567
0.0634923
0.0422731
0.0225879
0.0104115
0.00276949
0.000461157
6.95768e-05
7.36417e-06
9.08554e-07
2.92291e-08
3.51689e-09
6.87501e-10
3.29651e-23
5.93866e-25
5.44969e-27
5.04819e-29
8.07665e-11
0.1561
0.1561
0.1561
0.1561
0.154945
0.152014
0.132795
0.112122
0.103553
0.085432
0.0644352
0.0441159
0.0243893
0.0125279
0.00392692
0.000785268
0.000125986
1.85013e-05
1.93547e-06
7.2397e-08
5.9959e-09
1.33384e-09
2.85377e-10
4.664e-25
7.54e-27
5.9735e-29
5.23631e-31
2.96058e-11
0.1561
0.1561
0.1561
0.1561
0.154691
0.151271
0.131161
0.11064
0.101405
0.0844107
0.064787
0.0455636
0.0267094
0.0146571
0.00580969
0.00119205
0.000219868
3.46657e-05
5.03924e-06
2.22734e-07
9.55166e-09
2.09372e-09
5.70066e-10
1.13957e-10
6.41064e-27
9.30485e-29
6.48946e-31
5.41411e-33
1.0155e-11
0.1561
0.1561
0.1561
0.1561
0.154402
0.150513
0.129966
0.108852
0.100219
0.0834449
0.0646465
0.0465167
0.0286419
0.0171918
0.00800702
0.00185852
0.00035393
6.20389e-05
9.80552e-06
1.08004e-06
1.81334e-08
2.84008e-09
8.97708e-10
2.43368e-10
4.24421e-11
8.55368e-29
1.11387e-30
6.97046e-33
5.56229e-35
3.23893e-12
0.1561
0.1561
0.1561
0.1561
0.154083
0.147923
0.127993
0.106772
0.098792
0.0828943
0.0644406
0.0470473
0.0301208
0.0192625
0.0104572
0.00272935
0.000576285
0.000103975
1.81535e-05
2.67859e-06
8.64743e-08
3.9346e-09
1.19895e-09
4.00736e-10
9.80619e-11
1.45515e-11
1.10639e-30
1.29035e-32
7.39888e-35
5.67716e-37
9.55014e-13
0.1561
0.1561
0.1561
0.153613
0.145244
0.125568
0.104477
0.097161
0.0822288
0.0644635
0.047451
0.0312183
0.0209805
0.0125022
0.00381538
0.000893196
0.000175538
3.13362e-05
5.20519e-06
4.46754e-07
7.56124e-09
1.52446e-09
5.56371e-10
1.72243e-10
3.63314e-11
4.56192e-12
1.38205e-32
1.43449e-34
7.7908e-37
5.75949e-39
2.58676e-13
0.1561
0.1561
0.153019
0.142715
0.122866
0.102091
0.0953464
0.08145
0.0643492
0.0479677
0.0321477
0.0223594
0.0143851
0.00484531
0.00132661
0.000285379
5.4251e-05
9.6592e-06
1.28332e-06
2.66305e-08
2.01545e-09
7.1158e-10
2.53977e-10
6.85577e-11
1.22276e-11
1.30074e-12
1.65439e-34
1.5254e-36
8.2096e-39
5.8067e-41
6.39199e-14
0.1561
0.151592
0.14022
0.119747
0.0995253
0.0933784
0.0805373
0.0641095
0.0483409
0.0331126
0.0235571
0.0159686
0.00664493
0.00177212
0.000448282
9.10268e-05
1.72226e-05
2.72806e-06
1.27694e-07
3.2155e-09
8.68185e-10
3.38218e-10
1.08255e-10
2.47717e-11
3.71319e-12
3.35465e-13
1.87544e-36
1.55673e-38
8.79323e-41
5.84505e-43
1.43052e-14
0.149691
0.137506
0.116168
0.0967949
0.0912473
0.0794512
0.0637523
0.0485691
0.0339274
0.0247556
0.017347
0.00826271
0.00249368
0.000628132
0.000148854
2.95822e-05
5.34607e-06
5.07014e-07
7.415e-09
1.06464e-09
4.19052e-10
1.52428e-10
4.19418e-11
8.0406e-12
1.01206e-12
7.77973e-14
1.98714e-38
1.54932e-40
9.6695e-43
5.75828e-45
2.87774e-15
0.147402
0.134349
0.112242
0.0939667
0.0889809
0.078192
0.0632334
0.04867
0.0345847
0.0257921
0.0186778
0.00968009
0.00324195
0.000904032
0.000218334
4.94972e-05
9.76109e-06
1.3663e-06
2.95084e-08
1.47072e-09
4.9381e-10
1.97562e-10
6.28536e-11
1.45598e-11
2.32909e-12
2.46296e-13
1.61216e-14
1.94414e-40
1.54672e-42
1.10489e-44
5.16398e-16
0.144952
0.13057
0.108135
0.0910788
0.0866085
0.0767813
0.0625525
0.048613
0.0351027
0.0266794
0.0198593
0.0110184
0.00396472
0.0012211
0.00032102
7.51703e-05
1.6799e-05
2.90129e-06
1.4521e-07
2.62605e-09
5.87129e-10
2.39746e-10
8.61085e-11
2.32479e-11
4.49107e-12
5.98823e-13
5.32219e-14
2.96565e-15
1.76243e-42
1.58118e-44
8.20411e-17
0.142338
0.125969
0.104115
0.0881196
0.0841571
0.0752253
0.061736
0.0483988
0.0354608
0.0274279
0.0209132
0.0122574
0.00469623
0.00155364
0.000448216
0.000112648
2.62979e-05
5.51282e-06
5.37592e-07
6.94709e-09
7.49182e-10
2.81608e-10
1.09838e-10
3.37837e-11
7.62583e-12
1.2236e-12
1.35928e-13
1.01526e-14
4.81091e-16
1.44868e-44
1.1455e-17
0.139328
0.120735
0.10003
0.0850748
0.0816356
0.0735399
0.0607917
0.0480524
0.0356604
0.0280148
0.0218311
0.0134649
0.00558042
0.00191026
0.000591233
0.000161627
4.00687e-05
9.25861e-06
1.4071e-06
2.90612e-08
1.12324e-09
3.31022e-10
1.33356e-10
4.55612e-11
1.17544e-11
2.20218e-12
2.92881e-13
2.70921e-14
1.69963e-15
6.83684e-17
1.39576e-18
0.135614
0.114972
0.0959139
0.081948
0.0790311
0.0717477
0.0597235
0.0475852
0.0357232
0.0284409
0.0225888
0.0145564
0.0067572
0.00233499
0.000752636
0.000220397
5.86807e-05
1.45048e-05
2.85742e-06
1.39823e-07
2.22542e-09
4.07433e-10
1.57626e-10
5.80414e-11
1.67761e-11
3.59365e-12
5.56569e-13
6.12608e-14
4.71551e-15
2.4822e-16
8.45659e-18
1.47433e-19
0.130733
0.109029
0.0917766
0.078725
0.0763406
0.0698503
0.0585486
0.0470001
0.0356625
0.0287264
0.0231846
0.0154909
0.00786809
0.0028934
0.000944807
0.000290038
8.19651e-05
2.16464e-05
4.98533e-06
5.03784e-07
6.10064e-09
5.59817e-10
1.86351e-10
7.10675e-11
2.25249e-11
5.4219e-12
9.58887e-13
1.22432e-13
1.11387e-14
7.12818e-16
3.14391e-17
9.04837e-19
1.34167e-20
0.124264
0.103168
0.0875453
0.0753878
0.0735575
0.0678446
0.0572735
0.046308
0.0354852
0.0288841
0.0236357
0.0162642
0.00884245
0.00347521
0.00119497
0.000373563
0.000110415
3.08668e-05
7.9396e-06
1.24221e-06
2.43845e-08
9.0638e-10
2.2812e-10
8.5213e-11
2.88681e-11
7.6769e-12
1.52623e-12
2.21988e-13
2.33178e-14
1.75135e-15
9.30772e-17
3.43402e-18
8.32599e-20
1.04585e-21
0.115862
0.0972101
0.0831818
0.0719317
0.0706703
0.0657323
0.0559004
0.0455165
0.0352014
0.0289269
0.0239545
0.0168915
0.0096728
0.00402774
0.00147478
0.000481325
0.000145282
4.24187e-05
1.1748e-05
2.43748e-06
1.06715e-07
1.8349e-09
2.98706e-10
1.02296e-10
3.58283e-11
1.03326e-11
2.27636e-12
3.71807e-13
4.43448e-14
3.82526e-15
2.36911e-16
1.0444e-17
3.21725e-19
6.55291e-21
6.94727e-23
0.106583
0.0911472
0.0787058
0.0683779
0.0676723
0.0635127
0.0544359
0.0446338
0.0348184
0.0288657
0.0241607
0.0173864
0.0103721
0.00453333
0.00175909
0.000608173
0.00019042
5.67904e-05
1.65121e-05
4.08641e-06
3.71111e-07
4.62714e-09
4.31767e-10
1.25718e-10
4.37434e-11
1.33789e-11
3.21902e-12
5.83081e-13
7.79374e-14
7.60388e-15
5.37852e-16
2.74383e-17
1.00203e-18
2.57233e-20
4.38949e-22
3.91404e-24
0.0975814
0.0851212
0.0741915
0.0647725
0.0645732
0.0611833
0.0528814
0.0436685
0.0343454
0.0287064
0.0242645
0.0177856
0.0109547
0.00499021
0.00203509
0.000744701
0.000245629
7.53574e-05
2.2484e-05
6.22497e-06
9.17987e-07
1.53298e-08
7.03141e-10
1.61227e-10
5.34031e-11
1.68681e-11
4.36112e-12
8.6557e-13
1.28225e-13
1.39815e-14
1.11368e-15
6.45166e-17
2.70815e-18
8.18206e-20
1.7471e-21
2.49119e-23
1.86251e-25
0.0894947
0.0793238
0.0697328
0.0611693
0.0614026
0.0587453
0.0512384
0.0426261
0.0337918
0.0284569
0.0242704
0.0180926
0.0114995
0.00540367
0.00229852
0.000884267
0.000308053
9.85874e-05
3.01721e-05
8.88326e-06
1.80164e-06
5.93837e-08
1.33136e-09
2.18777e-10
6.6179e-11
2.09687e-11
5.71685e-12
1.22775e-12
1.99511e-13
2.40715e-14
2.13581e-15
1.38687e-16
6.57315e-18
2.26806e-19
5.66178e-21
1.00371e-22
1.1931e-24
7.45709e-27
0.0824189
0.0738732
0.065404
0.0576179
0.0581993
0.0562096
0.0495049
0.0415096
0.0331686
0.0281265
0.0241847
0.0183046
0.0119796
0.00596035
0.0025502
0.00102376
0.000374889
0.000125854
3.99051e-05
1.21839e-05
3.01857e-06
2.07591e-07
2.96036e-09
3.18397e-10
8.42832e-11
2.60141e-11
7.32338e-12
1.67819e-12
2.9612e-13
3.918e-14
3.83765e-15
2.76553e-16
1.46219e-17
5.66506e-19
1.60539e-20
3.30701e-22
4.85916e-24
4.80116e-26
2.29867e-28
0.0761879
0.0687971
0.0612505
0.0541539
0.0550042
0.0535962
0.0476809
0.0403168
0.0324782
0.0277268
0.0240164
0.0184247
0.0123726
0.0065162
0.00285975
0.00116272
0.000444407
0.00015621
5.16479e-05
1.63282e-05
4.56063e-06
5.50316e-07
7.76661e-09
5.03984e-10
1.11315e-10
3.25707e-11
9.25751e-12
2.22882e-12
4.22431e-13
6.07734e-14
6.51949e-15
5.17164e-16
3.02258e-17
1.30013e-18
4.11492e-20
9.56894e-22
1.62472e-23
1.97234e-25
1.48069e-27
1.97697e-30
0.0706124
0.0640791
0.0572912
0.050799
0.0518511
0.0509328
0.0457709
0.0390446
0.031719
0.0272611
0.0237769
0.0184609
0.0126761
0.00700489
0.00318956
0.00132551
0.000516063
0.000189073
6.51493e-05
2.14103e-05
6.48492e-06
1.13651e-06
2.52586e-08
8.7051e-10
1.5349e-10
4.15352e-11
1.16584e-11
2.89898e-12
5.83341e-13
9.04548e-14
1.05502e-14
9.14758e-16
5.86626e-17
2.77795e-18
9.71563e-20
2.51059e-21
4.78713e-23
6.67434e-25
6.07126e-27
1.63255e-29
0.0655537
0.0596861
0.0535287
0.0475647
0.0487644
0.0482483
0.0437861
0.0376917
0.0308879
0.0267289
0.023471
0.0184239
0.0128961
0.00741605
0.00350526
0.00150556
0.000597985
0.000224214
8.0197e-05
2.73974e-05
8.81706e-06
2.00168e-06
8.61523e-08
1.69438e-09
2.20788e-10
5.43213e-11
1.47561e-11
3.7219e-12
7.84934e-13
1.3001e-13
1.63665e-14
1.54122e-15
1.07763e-16
5.58019e-18
2.1398e-19
6.08252e-21
1.28263e-22
1.99617e-24
2.05511e-26
7.22069e-29
0.0609149
0.0555834
0.049957
0.0444552
0.0457601
0.0455693
0.0417418
0.0362608
0.0299816
0.0261274
0.0230991
0.01832
0.0130427
0.00775316
0.00379324
0.00168896
0.000690565
0.000264037
9.67159e-05
3.42265e-05
1.1544e-05
3.11494e-06
2.52896e-07
3.67739e-09
3.3457e-10
7.2971e-11
1.89137e-11
4.75297e-12
1.03588e-12
1.81476e-13
2.44803e-14
2.48811e-15
1.88615e-16
1.06189e-17
4.43696e-19
1.3773e-20
3.18094e-22
5.44274e-24
6.16746e-26
2.53797e-28
0.0566269
0.0517398
0.046566
0.0414699
0.0428478
0.0429175
0.0396555
0.034758
0.0289989
0.0254532
0.0226592
0.0181511
0.013123
0.00802428
0.00404993
0.00186682
0.000789354
0.000309626
0.000115462
4.18822e-05
1.46823e-05
4.46233e-06
5.85679e-07
9.18639e-09
5.35167e-10
1.0082e-10
2.46619e-11
6.08103e-12
1.34938e-12
2.47367e-13
3.5484e-14
3.86946e-15
3.16287e-16
1.92632e-17
8.72469e-19
2.94058e-20
7.38765e-22
1.37656e-23
1.69261e-25
7.79943e-28
0.052639
0.0481277
0.043344
0.038606
0.0400323
0.0403095
0.037545
0.0331927
0.0279416
0.0247044
0.0221484
0.0179163
0.0131404
0.00823641
0.00427627
0.00203495
0.000890029
0.000360006
0.000137073
5.06049e-05
1.82527e-05
6.03039e-06
1.12241e-06
2.69472e-08
9.15074e-10
1.42951e-10
3.27907e-11
7.84104e-12
1.74595e-12
3.31029e-13
5.00808e-14
5.82356e-15
5.10705e-16
3.34848e-17
1.63654e-18
5.96042e-20
1.62022e-21
3.26626e-23
4.32082e-25
2.17947e-27
0.0489117
0.0447234
0.0402793
0.0358587
0.0373148
0.0377569
0.0354265
0.0315765
0.0268139
0.0238814
0.0215646
0.0176134
0.0130952
0.0083933
0.00447396
0.00219202
0.00098976
0.000413519
0.000161507
6.06956e-05
2.23356e-05
7.80617e-06
1.86645e-06
8.20454e-08
1.71094e-09
2.08152e-10
4.44285e-11
1.02336e-11
2.25698e-12
4.372e-13
6.91372e-14
8.51782e-15
7.97371e-16
5.604e-17
2.94264e-18
1.1534e-19
3.37729e-21
7.32907e-23
1.03721e-24
5.65201e-27
0.0454136
0.0415062
0.0373604
0.0332228
0.0346947
0.0352675
0.0333142
0.0299217
0.0256227
0.0229867
0.0209073
0.0172403
0.0129861
0.00849607
0.00464363
0.00233777
0.00108713
0.000468599
0.000188287
7.22745e-05
2.70534e-05
9.79538e-06
2.77573e-06
2.1969e-07
3.47238e-09
3.13926e-10
6.12312e-11
1.35476e-11
2.9297e-12
5.72803e-13
9.37735e-14
1.21563e-14
1.20846e-15
9.065e-17
5.09482e-18
2.14066e-19
6.72638e-21
1.56476e-22
2.35929e-24
1.37731e-26
0.0421188
0.0384583
0.0345763
0.0306926
0.0321697
0.032846
0.0312197
0.0282406
0.0243765
0.0220253
0.0201781
0.0167961
0.0128116
0.00854421
0.00478454
0.00247172
0.00118147
0.000524375
0.000217006
8.52699e-05
3.25023e-05
1.2059e-05
3.8276e-06
4.82452e-07
7.77919e-09
4.91263e-10
8.58334e-11
1.8193e-11
3.83346e-12
7.48067e-13
1.25505e-13
1.69926e-14
1.78416e-15
1.42235e-16
8.52473e-18
3.82668e-19
1.28561e-20
3.19462e-22
5.1147e-24
3.18052e-26
0.0390058
0.0355641
0.0319174
0.0282623
0.0297369
0.0304949
0.0291521
0.0265447
0.0230849
0.021004
0.0193808
0.0162816
0.0125708
0.00853661
0.00489507
0.00259279
0.00127215
0.000580339
0.000247164
9.95534e-05
3.87144e-05
1.46626e-05
5.0243e-06
8.96025e-07
1.99276e-08
8.0312e-10
1.2209e-10
2.47662e-11
5.06816e-12
9.78037e-13
1.6645e-13
2.3351e-14
2.57468e-15
2.17184e-16
1.38305e-17
6.61127e-19
2.36759e-20
6.26288e-22
1.06174e-23
7.00274e-26
0.0360563
0.0328102
0.0293745
0.0259266
0.0273926
0.028215
0.0271185
0.0248444
0.0217578
0.0199308
0.018521
0.0156993
0.0122637
0.00847232
0.00497317
0.0026994
0.00135833
0.000636038
0.000278397
0.000114947
4.56748e-05
1.76526e-05
6.37726e-06
1.46772e-06
5.45915e-08
1.39847e-09
1.76039e-10
3.40999e-11
6.77724e-12
1.28462e-12
2.19636e-13
3.16594e-14
3.64324e-15
3.23702e-16
2.18227e-17
1.10737e-18
4.21469e-20
1.18359e-21
2.11868e-23
1.47716e-25
0.0332549
0.0301845
0.0269393
0.0236803
0.0251333
0.0260062
0.0251242
0.0231484
0.0204049
0.0188146
0.0176056
0.0150534
0.0118921
0.00835114
0.0050169
0.00278965
0.00143889
0.000690918
0.000310396
0.000131295
5.33357e-05
2.10398e-05
7.89574e-06
2.17522e-06
1.39892e-07
2.59307e-09
2.58771e-10
4.73537e-11
9.1622e-12
1.69948e-12
2.89413e-13
4.24989e-14
5.07072e-15
4.72269e-16
3.35813e-17
1.80331e-18
7.2739e-20
2.16285e-21
4.07912e-23
2.99672e-25
0.030588
0.0276768
0.0246046
0.0215182
0.0229554
0.0238677
0.023173
0.0214644
0.0190353
0.0176642
0.0166425
0.0143495
0.011459
0.00817384
0.00502471
0.00286158
0.00151246
0.000744341
0.000342781
0.000148518
6.16455e-05
2.48207e-05
9.59387e-06
2.99363e-06
3.09905e-07
5.11116e-09
3.89228e-10
6.62487e-11
1.25008e-11
2.26766e-12
3.82047e-13
5.66753e-14
6.96272e-15
6.76296e-16
5.05263e-17
2.86241e-18
1.22031e-19
3.83225e-21
7.59921e-23
5.86866e-25
0.0280443
0.0252778
0.0223633
0.0194353
0.020855
0.021798
0.0212676
0.0197985
0.017657
0.0164882
0.0156399
0.0135942
0.0109688
0.00794227
0.00499568
0.00291342
0.00157758
0.000795487
0.000375305
0.000166585
7.05705e-05
2.89875e-05
1.14907e-05
3.92407e-06
5.88041e-07
1.1156e-08
6.00412e-10
9.32497e-11
1.71793e-11
3.05235e-12
5.0651e-13
7.53231e-14
9.46e-15
9.53064e-16
7.45116e-17
4.43922e-18
1.9949e-19
6.6005e-21
1.37343e-22
1.1125e-24
0.0256135
0.0229792
0.0202088
0.0174268
0.0188283
0.0197956
0.0194104
0.0181561
0.0162775
0.0152947
0.014606
0.0127948
0.0104266
0.00765927
0.00492959
0.00294372
0.0016328
0.000843425
0.000407544
0.000185261
8.00922e-05
3.35337e-05
1.35992e-05
4.9619e-06
9.92912e-07
2.69363e-08
9.64951e-10
1.31838e-10
2.37253e-11
4.14145e-12
6.75537e-13
1.00049e-13
1.27539e-14
1.3251e-15
1.07949e-16
6.74143e-18
3.18477e-19
1.10761e-20
2.41375e-22
2.04662e-24
0.0232865
0.020773
0.018135
0.0154878
0.0168712
0.0178582
0.0176029
0.016543
0.0149036
0.0140908
0.0135485
0.0119585
0.00983842
0.00732846
0.00482685
0.00295141
0.00167679
0.000887183
0.000438964
0.000204302
9.01419e-05
3.84538e-05
1.59252e-05
6.10607e-06
1.51779e-06
6.68419e-08
1.63435e-09
1.87925e-10
3.2844e-11
5.65558e-12
9.07037e-13
1.33129e-13
1.71083e-14
1.82218e-15
1.53981e-16
1.00455e-17
4.97543e-19
1.8146e-20
4.1338e-22
3.66218e-24
0.0210549
0.0186523
0.0161357
0.0136134
0.0149801
0.0159837
0.0158456
0.0149634
0.0135444
0.0128841
0.0124747
0.0110925
0.00921042
0.00695406
0.00468852
0.00293581
0.0017084
0.000925807
0.00046901
0.000223368
0.000100651
4.37306e-05
1.84659e-05
7.35323e-06
2.1413e-06
1.53657e-07
2.90678e-09
2.71692e-10
4.55336e-11
7.75768e-12
1.22593e-12
1.7778e-13
2.28911e-14
2.48426e-15
2.16723e-16
1.47174e-17
7.62091e-19
2.90799e-20
6.91222e-22
6.38696e-24
0.018911
0.0166098
0.014205
0.0117987
0.0131509
0.0141698
0.0141389
0.0134201
0.0122067
0.0116868
0.0113923
0.0102036
0.00854879
0.00654064
0.0045161
0.00289662
0.00172669
0.000958391
0.000497092
0.00024223
0.000111588
4.93416e-05
2.12188e-05
8.70445e-06
2.84623e-06
3.11276e-07
5.45153e-09
3.99666e-10
6.32433e-11
1.06686e-11
1.66648e-12
2.38518e-13
3.06173e-14
3.36564e-15
3.01612e-16
2.124e-17
1.14654e-18
4.56662e-20
1.13051e-21
1.08769e-23
0.0168473
0.0146389
0.0123366
0.0100391
0.0113797
0.0124141
0.0124839
0.0119159
0.0108939
0.0105066
0.0103164
0.00929989
0.00785964
0.00609288
0.00431154
0.00283389
0.00173088
0.000984109
0.000522613
0.000260572
0.000122749
5.52686e-05
2.41802e-05
1.01685e-05
3.62634e-06
5.57447e-07
1.11409e-08
6.00478e-10
8.79901e-11
1.46909e-11
2.27548e-12
3.21633e-13
4.1009e-14
4.54095e-15
4.15898e-16
3.02516e-17
1.69717e-18
7.03898e-20
1.81147e-21
1.81179e-23
0.0148566
0.0127323
0.0105246
0.00833102
0.009663
0.0107147
0.0108804
0.0104555
0.00961132
0.00934622
0.009255
0.00840246
0.00715088
0.00561557
0.00407703
0.00274796
0.00172043
0.00100221
0.000544992
0.000278032
0.000133948
6.14464e-05
2.73454e-05
1.17522e-05
4.47417e-06
9.04959e-07
2.4894e-08
9.33562e-10
1.22626e-10
2.02316e-11
3.11673e-12
4.35824e-13
5.5076e-14
6.11343e-15
5.69346e-16
4.25983e-17
2.47588e-18
1.06664e-19
2.84813e-21
2.95654e-23
0.0129314
0.0108833
0.00876396
0.00667611
0.00799872
0.00907026
0.0093307
0.00904115
0.00836862
0.00821228
0.00821019
0.00751898
0.00645523
0.00511592
0.00381509
0.00263943
0.00169494
0.00101204
0.000563668
0.000294264
0.000144933
6.78006e-05
3.0695e-05
1.34583e-05
5.38606e-06
1.34573e-06
5.73175e-08
1.51657e-09
1.71811e-10
2.78338e-11
4.27642e-12
5.93054e-13
7.42249e-14
8.22652e-15
7.75233e-16
5.94089e-17
3.56529e-18
1.59137e-19
4.40035e-21
4.73326e-23
0.0110642
0.00908561
0.00705365
0.00508936
0.00639067
0.00748113
0.00783731
0.00768044
0.00716847
0.00711971
0.00718959
0.00664834
0.00577659
0.00465009
0.00353036
0.00250925
0.00165421
0.00101302
0.000578103
0.000308909
0.000155555
7.43094e-05
3.4202e-05
1.52792e-05
6.35783e-06
1.86166e-06
1.24743e-07
2.56509e-09
2.43207e-10
3.8256e-11
5.87012e-12
8.09664e-13
1.00407e-13
1.10798e-14
1.05175e-15
8.21978e-17
5.07576e-18
2.34095e-19
6.68969e-21
7.4443e-23
0.00924848
0.00733651
0.00540524
0.00362395
0.00485651
0.00595512
0.00640534
0.00638062
0.00602712
0.00606871
0.00621288
0.0058006
0.00510712
0.00420889
0.00325116
0.00235982
0.00159828
0.00100466
0.000587786
0.000321602
0.000165616
8.08282e-05
3.78472e-05
1.72055e-05
7.38495e-06
2.43541e-06
2.45087e-07
4.51238e-09
3.48757e-10
5.25706e-11
8.05354e-12
1.10783e-12
1.36312e-13
1.49505e-14
1.42396e-15
1.13011e-16
7.15484e-18
3.4e-19
1.00203e-20
1.15166e-22
0.00748051
0.00564504
0.00386625
0.00244524
0.00345324
0.00451377
0.00505191
0.0051522
0.00495603
0.0050853
0.00527722
0.00500577
0.00446143
0.00377114
0.00297975
0.00220463
0.00152807
0.000986615
0.000592237
0.000331979
0.000174894
8.72324e-05
4.15822e-05
1.92285e-05
8.46954e-06
3.05993e-06
4.31779e-07
8.45916e-09
5.07797e-10
7.22381e-11
1.10371e-11
1.51755e-12
1.85634e-13
2.02231e-14
1.9265e-15
1.54632e-16
1.00005e-17
4.88222e-19
1.48063e-20
1.75462e-22
0.00576808
0.00405436
0.00259136
0.00166767
0.0023495
0.0032178
0.00380666
0.00402668
0.00397106
0.00418171
0.00441788
0.00425067
0.00388806
0.00334138
0.00270704
0.00204813
0.00144954
0.000959028
0.000591046
0.000339675
0.000183158
9.33758e-05
4.53515e-05
2.1333e-05
9.61277e-06
3.72597e-06
6.97063e-07
1.71736e-08
7.57506e-10
9.92439e-11
1.51009e-11
2.07931e-12
2.53414e-13
2.74289e-14
2.60733e-15
2.10869e-16
1.38795e-17
6.94016e-19
2.16087e-20
2.63567e-22
0.00415214
0.00271009
0.00174569
0.00114974
0.00161484
0.00222319
0.00274284
0.00304248
0.0031256
0.00337672
0.00364638
0.00359279
0.0033458
0.0029459
0.00243398
0.00188748
0.00136616
0.000924239
0.000584029
0.000344351
0.000190174
9.91232e-05
4.9114e-05
2.3497e-05
1.08137e-05
4.42792e-06
1.03761e-06
3.69059e-08
1.16939e-09
1.36603e-10
2.0615e-11
2.84726e-12
3.46509e-13
3.72996e-14
3.53278e-15
2.86953e-16
1.91531e-17
9.7787e-19
3.11836e-20
3.90769e-22
0.00277337
0.00180781
0.00119442
0.000799877
0.0011197
0.00154759
0.0019558
0.00225802
0.00241655
0.0026856
0.00297026
0.00300039
0.00285977
0.00256978
0.00217397
0.00172281
0.00127768
0.000884267
0.000571931
0.000345759
0.000195709
0.000104353
5.28054e-05
2.56986e-05
1.20627e-05
5.16021e-06
1.44001e-06
7.79945e-08
1.87251e-09
1.89091e-10
2.80776e-11
3.89382e-12
4.74179e-13
5.08381e-14
4.79444e-15
3.90087e-16
2.63128e-17
1.36735e-18
4.45475e-20
5.72429e-22
0.00184073
0.00122981
0.000826264
0.000561288
0.000782515
0.00108395
0.00139267
0.00165474
0.00183594
0.00209949
0.00238417
0.00247371
0.00241804
0.00222403
0.00192328
0.00156056
0.00118421
0.000839561
0.000555696
0.000344025
0.000199557
0.000108925
5.63323e-05
2.79085e-05
1.33486e-05
5.91671e-06
1.88653e-06
1.53473e-07
3.08878e-09
2.64089e-10
3.81763e-11
5.315e-12
6.48958e-13
6.94112e-14
6.51862e-15
5.3019e-16
3.60296e-17
1.89966e-18
6.30653e-20
8.29332e-22
0.0012485
0.000847224
0.000577157
0.000397401
0.000551149
0.000763742
0.000992923
0.00120477
0.00137539
0.00161317
0.00188213
0.0020108
0.00201953
0.00190536
0.00168713
0.00140089
0.00108871
0.000790295
0.000535736
0.000339484
0.000201654
0.000112698
5.96063e-05
3.00872e-05
1.46582e-05
6.69323e-06
2.36736e-06
2.74469e-07
5.2938e-09
3.72629e-10
5.18478e-11
7.23878e-12
8.87582e-13
9.48881e-14
8.87855e-15
7.20944e-16
4.92223e-17
2.62514e-18
8.85694e-20
1.18949e-21
0.000858306
0.000589847
0.000407079
0.000284194
0.000391436
0.000541542
0.000709816
0.000874684
0.00102071
0.00122179
0.00146074
0.00160874
0.00166387
0.00161331
0.00146559
0.00124662
0.000992146
0.000737763
0.000512211
0.000332352
0.000202059
0.000115579
6.25318e-05
3.21913e-05
1.59754e-05
7.48733e-06
2.87398e-06
4.50833e-07
9.62988e-09
5.33316e-10
7.03249e-11
9.83524e-12
1.21245e-12
1.29789e-13
1.21131e-14
9.81163e-16
6.71517e-17
3.6121e-18
1.23522e-19
1.69054e-21
0.000596582
0.00041489
0.000290168
0.000205665
0.000280659
0.000386719
0.000509391
0.0006348
0.000753274
0.000915885
0.00111718
0.00126605
0.00135023
0.00134828
0.00125895
0.0010988
0.000896212
0.000682792
0.000485659
0.000322723
0.000200838
0.000117536
6.5033e-05
3.41832e-05
1.72812e-05
8.29518e-06
3.39827e-06
6.86943e-07
1.88015e-08
7.80919e-10
9.53022e-11
1.33263e-11
1.6534e-12
1.77515e-13
1.65468e-14
1.33689e-15
9.15462e-17
4.95351e-18
1.71235e-19
2.38294e-21
0.000419059
0.000295045
0.000209399
0.000151024
0.000203546
0.00027848
0.000367435
0.000461416
0.000554436
0.000682064
0.000845068
0.000981753
0.00107848
0.00111065
0.00106802
0.000958177
0.000802002
0.000626379
0.000456572
0.000310799
0.000198021
0.000118563
6.70731e-05
3.60227e-05
1.85553e-05
9.11037e-06
3.934e-06
9.75912e-07
3.80612e-08
1.17936e-09
1.29327e-10
1.8002e-11
2.24988e-12
2.4264e-13
2.2622e-14
1.82372e-15
1.24797e-16
6.77587e-18
2.36173e-19
3.33432e-21
0.000297666
0.000212484
0.000153391
0.000112915
0.000149726
0.000202614
0.00026682
0.000336507
0.000407988
0.000506138
0.000634494
0.00075245
0.000848882
0.000901134
0.000893694
0.000825638
0.00071033
0.000569356
0.000425501
0.000296814
0.000193663
0.000118648
6.86246e-05
3.76618e-05
1.9776e-05
9.92195e-06
4.47541e-06
1.30473e-06
7.52044e-08
1.83381e-09
1.76302e-10
2.42512e-11
3.05377e-12
3.31274e-13
3.09379e-14
2.49044e-15
1.70175e-16
9.25316e-18
3.24346e-19
4.63526e-21
0.000214154
0.000155371
0.000114447
8.62761e-05
0.000112088
0.000149341
0.000195462
0.000246712
0.00030082
0.000375224
0.000474315
0.00057189
0.00066009
0.000720667
0.000737089
0.000702227
0.000622017
0.000512401
0.000392975
0.000281037
0.00018785
0.000117791
6.96624e-05
3.90677e-05
2.09188e-05
1.07179e-05
5.01529e-06
1.65941e-06
1.39171e-07
2.91819e-09
2.41942e-10
3.26002e-11
4.13354e-12
4.51549e-13
4.23037e-14
3.40365e-15
2.32173e-16
1.26222e-17
4.43951e-19
6.40673e-21
0.00015645
0.000115739
8.72968e-05
6.75924e-05
8.57158e-05
0.000111882
0.000144837
0.000182259
0.000222758
0.00027857
0.000353973
0.000432329
0.000508592
0.000569227
0.000599442
0.000589108
0.000537997
0.000456164
0.000359466
0.000263758
0.000180689
0.000116005
7.01664e-05
4.02137e-05
2.19622e-05
1.14858e-05
5.54831e-06
2.03136e-06
2.37192e-07
4.78743e-09
3.34566e-10
4.3746e-11
5.57939e-12
6.14264e-13
5.78073e-14
4.65399e-15
3.16947e-16
1.72075e-17
6.06034e-19
8.81239e-21
0.000116447
8.816e-05
6.83e-05
5.4403e-05
6.718e-05
8.55096e-05
0.000108915
0.000136056
0.000166096
0.000207622
0.000264377
0.000325959
0.000389401
0.000445212
0.000481438
0.000487541
0.000459299
0.000401376
0.000325425
0.000245255
0.000172314
0.000113318
7.01225e-05
4.1077e-05
2.28872e-05
1.2214e-05
6.07031e-06
2.41213e-06
3.76081e-07
8.23952e-09
4.67797e-10
5.85892e-11
7.50944e-12
8.33712e-13
7.89063e-14
6.36433e-15
4.32915e-16
2.34529e-17
8.25607e-19
1.20707e-20
8.86343e-05
6.88947e-05
5.49181e-05
4.4978e-05
5.40727e-05
6.69002e-05
8.342e-05
0.000102972
0.000125082
0.000155777
0.000198127
0.000245738
0.000297066
0.000345734
0.000382698
0.000398496
0.00038703
0.000348836
0.000291362
0.000225808
0.000162865
0.000109777
6.95271e-05
4.16331e-05
2.36769e-05
1.28913e-05
6.57724e-06
2.79405e-06
5.57774e-07
1.50813e-08
6.6598e-10
7.83423e-11
1.00761e-11
1.12873e-12
1.07547e-13
8.70074e-15
5.91552e-16
3.19649e-17
1.12306e-18
1.64759e-20
6.92207e-05
5.5344e-05
4.53727e-05
3.81037e-05
4.46957e-05
5.37056e-05
6.53045e-05
7.92998e-05
9.54602e-05
0.000118024
0.000149396
0.000185726
0.000226388
0.000267263
0.000301821
0.000322274
0.000322165
0.000299419
0.000257841
0.000205735
0.000152492
0.000105437
6.83867e-05
4.18737e-05
2.43221e-05
1.35071e-05
7.0643e-06
3.17144e-06
7.76428e-07
2.86904e-08
9.7254e-10
1.04762e-10
1.34762e-11
1.52399e-12
1.46319e-13
1.18869e-14
8.08464e-16
4.35714e-17
1.52612e-18
2.2424e-20
5.55758e-05
4.56913e-05
3.84199e-05
3.29396e-05
3.78539e-05
4.42589e-05
5.23893e-05
6.23568e-05
7.40994e-05
9.06081e-05
0.000113702
0.000141118
0.000172796
0.000206186
0.000236747
0.00025843
0.000265298
0.000253957
0.00022549
0.000185398
0.000141372
0.000100368
6.67154e-05
4.17925e-05
2.48043e-05
1.40524e-05
7.52452e-06
3.5394e-06
1.02161e-06
5.40146e-08
1.45629e-09
1.40449e-10
1.79692e-11
2.05161e-12
1.98651e-13
1.62229e-14
1.1048e-15
5.94005e-17
2.07242e-18
3.0449e-20
4.58626e-05
3.86686e-05
3.3201e-05
2.89178e-05
3.27169e-05
3.73787e-05
4.31108e-05
5.01994e-05
5.86992e-05
7.07372e-05
8.76416e-05
0.000108126
0.00013246
0.000159151
0.000185148
0.000205948
0.000216526
0.000213089
0.000194941
0.000165208
0.000129715
9.46534e-05
6.45357e-05
4.13867e-05
2.51102e-05
1.45168e-05
7.95112e-06
3.89295e-06
1.28178e-06
9.67978e-08
2.22168e-09
1.89097e-10
2.39e-11
2.75357e-12
2.69063e-13
2.21101e-14
1.50917e-15
8.09857e-17
2.81309e-18
4.12706e-20
3.88005e-05
3.3402e-05
2.91372e-05
2.56683e-05
2.8721e-05
3.22367e-05
3.63487e-05
4.14171e-05
4.75706e-05
5.634e-05
6.86588e-05
8.3823e-05
0.000102283
0.00012324
0.000144718
0.00016348
0.000175503
0.000177153
0.000166745
0.000145602
0.000117768
8.84027e-05
6.18814e-05
4.06577e-05
2.52305e-05
1.48909e-05
8.33763e-06
4.22723e-06
1.54886e-06
1.61929e-07
3.45582e-09
2.55839e-10
3.17191e-11
3.68462e-12
3.63503e-13
3.00829e-14
2.06006e-15
1.10407e-16
3.81748e-18
5.586e-20
3.35072e-05
2.93034e-05
2.5853e-05
2.29607e-05
2.54976e-05
2.82643e-05
3.13077e-05
3.49893e-05
3.94749e-05
4.58844e-05
5.4841e-05
6.59723e-05
7.9815e-05
9.60138e-05
0.000113348
0.000129564
0.000141572
0.000146181
0.000141292
0.000126994
0.000105804
8.17491e-05
5.88e-05
3.96138e-05
2.51593e-05
1.51664e-05
8.67814e-06
4.53958e-06
1.81619e-06
2.53407e-07
5.54519e-09
3.48413e-10
4.1999e-11
4.91578e-12
4.89774e-13
4.0851e-14
2.80919e-15
1.50476e-16
5.17952e-18
7.55271e-20
2.93896e-05
2.59919e-05
2.31155e-05
2.06565e-05
2.28158e-05
2.50836e-05
2.74341e-05