/*--------------------------------*- C++ -*----------------------------------*\
| =========                 |                                                 |
| \\      /  F ield         | OpenFOAM: The Open Source CFD Toolbox           |
|  \\    /   O peration     | Version:  1.6.x                                 |
|   \\  /    A nd           | Web:      www.OpenFOAM.org                      |
|    \\/     M anipulation  |                                                 |
\*---------------------------------------------------------------------------*/
FoamFile
{
    version     2.0;
    format      ascii;
    class       volScalarField;
    location    "7000";
    object      epsilon;
}
// * * * * * * * * * * * * * * * * * * * * * * * * * * * * * * * * * * * * * //

dimensions      [0 2 -3 0 0 0 0];

internalField   nonuniform List<scalar> 
4608
(
98217.6
104971
26072.9
78649.8
106649
22930
5205.65
25797.1
53274.6
15355.7
108314
22044
4787.33
2012
5541.47
24215.1
37265.8
53121.1
31235.8
110168
21113.6
4534.82
1959.8
2062.42
5835.05
21808.8
28121.3
56859.2
92987.8
745.501
4933.83
112141
20246.8
4328.02
1944.21
2132.24
5978.97
19169.1
24875
47292.8
104419
39300.8
925.734
510.687
2266.11
114218
19428.8
4154.66
1942.69
2202.39
6001.93
16861.5
21197.3
43212.5
94901.9
75902.7
9746.29
1871.37
808.991
514.682
1289.77
116352
18665.8
4015.59
1956.09
2265.51
5928.95
14957.9
16287.7
35590.5
87284
97990
29813.3
2991.68
911.075
1823.39
849.174
510.828
148.624
118469
17956.9
3908.36
1982.81
2317.97
5817.21
12926.9
12718.2
25364.1
75363.9
104130
55372.5
8559.04
1192
870.172
1816.78
847.4
508.453
71.0582
120458
17297
3831.61
2022.41
2360.76
5636.17
10729.7
10792
19856.9
58878.1
103756
71019.5
19659.1
3597.55
472.049
876.724
1844.32
855.851
501.027
8.727
122163
16676
3783.7
2076.9
2388.13
5328.46
8820.72
9679.11
18303.4
49482.9
100574
80057.5
30896.3
9250.27
1437.5
91.7596
893.533
1877.88
856.942
488.428
0.449139
123362
16085.7
3763.21
2147.16
2391.51
4958.16
7259.54
9507.96
18289.3
45860.8
97553.8
89599.2
41345.8
16451.9
4190.27
332.203
8.64973
905.658
1904.01
852.746
469.3
0.0227727
123718
15509.6
3769.51
2236.02
2372.7
4550.7
6184.76
9282.23
20139
45078.7
94390.8
96319
55983.9
24111.8
8647.62
1182.22
40.7316
0.452917
915
1925.42
840.262
442.823
0.00379242
122775
14921.7
3801.96
2348.79
2329.98
4148.79
5138.23
8183.53
21179.3
46980.8
91522.8
98074
69074.1
36096.8
14156.6
3067.57
198.148
2.34485
0.0295812
920.341
1939.69
816.707
408.898
0.00176988
119915
14289.2
3860.22
2492.59
2267.24
3772.14
4089.26
7609.15
19677.7
48705.2
89524.6
97922.6
76513.1
48301
23621.2
5942.96
732.326
14.7038
0.115455
0.0049922
919.391
1946.1
778.683
368.914
0.0013512
114160
13566.8
3945.26
2662.36
2191.17
3388.82
3440.93
7761.56
19433.6
48328.1
87092.9
96617.6
80258.5
56926.7
34231.6
11639
1857.56
90.588
0.559756
0.0119253
0.00206375
909.486
1922.15
725.203
326.21
0.00123084
103627
12680.5
4057.75
2855.12
2095.86
2996.04
3075.77
8826.77
20623.9
48835
85191.6
94112.4
81455.2
62719.9
42916
18961.3
4575.62
349.751
4.67978
0.0315447
0.00333324
0.00143667
885.779
1861.9
657.354
284.648
0.00119097
86559.7
11560.1
4200.5
3089.77
1995.89
2619.22
2923.69
10378.8
23275.8
50285.8
85145.1
92384.9
80923.3
66040.4
49740.3
25994.8
8689.89
1292.31
28.7591
0.163537
0.00543541
0.00180777
0.00125557
837.193
1751.73
579.249
247.407
0.00117645
69803.5
10283.5
4380.07
3376.91
1867.41
2303.75
2883.59
11729.9
26102.4
52692.8
85776.4
92239.8
81041.4
67344
54408.4
32536.2
13300.2
3120.96
210.325
0.968314
0.0128283
0.00230231
0.0013817
0.00119613
757.938
1593.53
495.373
217.165
0.00117104
50749.5
9101.34
4609.4
3734.49
1733.01
1986.71
2835.98
13541
28137.5
54956.8
86274
92538.3
81953
68847.1
56977.2
37861.4
18271.2
5540.8
765.65
14.4977
0.0375606
0.00335807
0.00155546
0.00123931
0.00117595
656.672
1388.56
410.898
196.327
0.00116885
32522.9
8038.52
4945.29
4187.89
1595.92
1625.67
2952
16032.1
30629.9
56529.9
86033.3
92395.7
82898.4
70683
59455.5
41594
22953.6
8572.39
1742.6
100.323
0.432071
0.00531562
0.00184313
0.001309
0.00118928
0.00116881
543.418
1134.52
333.927
185.936
0.00116779
7335.67
5611.11
4771.52
1459.41
1390
3302.2
19166.6
33398.8
58412.1
85530.7
91723.6
83403.6
72361.4
62013.8
45211.3
26829.9
11856.8
3203.53
343.37
5.33214
0.0194157
0.00223256
0.00141577
0.00121657
0.00117176
0.00116592
423.477
859.168
270.243
186.649
0.00116719
6491.12
5521.6
1311.15
1253.3
3970.85
23048.4
36462.2
60355.9
85329.2
90903.7
83273.2
73537.4
64261.7
48716.5
30806.3
14986.1
5041.25
853.732
31.3687
0.149804
0.00357701
0.00155003
0.00126067
0.00118142
0.00116525
0.00116442
319.604
599.201
223.349
210.338
0.00116682
6459.11
1145.93
1181.31
5109.13
27613.4
39922.8
62267.7
85159.4
90153.4
83016.5
74048.2
65931.8
51737.4
34668.2
18433.2
7053.15
1652.04
128.952
1.08883
0.00973793
0.00181362
0.00131979
0.0011993
0.00116776
0.00116226
0.00116343
248.052
394.838
186.678
271.308
0.00116657
986.497
1183.17
6918.21
32542.4
43671.1
64195.1
84975.1
89370.9
82772.6
74372.2
66914.3
54075.8
38085.3
21927.1
9463.51
2669.31
353.701
8.0021
0.0350877
0.00257927
0.00139953
0.00122583
0.0011743
0.00116173
0.00116045
0.0011627
211.398
265.721
170.344
362.941
0.00116639
852.798
1308.34
9529.94
37443.7
47457
66049.6
84761.9
88548.5
82401.7
74653.4
67669.2
55728.5
40926.2
25164.8
12086
4024.01
732.692
36.9008
0.213013
0.00445144
0.0015705
0.00125851
0.00118547
0.00116327
0.00115838
0.00115914
0.00116215
206.636
203.278
160.777
0.00116625
746.57
1635.73
13299.9
42110.2
51044.2
67706
84410
87681.5
81921
74779.7
68350.7
57135.6
43179
28054
14675.3
5644.76
1329.56
116.45
1.41793
0.0111273
0.00189684
0.00131053
0.00119989
0.00116724
0.0011575
0.00115614
0.00115814
0.00116173
274.413
178.371
0.00116615
678.97
2388.66
18474.9
46415.1
54262.7
69109.6
83847.9
86689.6
81321.2
74744.6
68857.7
58427.4
45207.2
30551.5
17148.1
7382.41
2131.91
289.636
7.60886
0.0399136
0.00263174
0.00140076
0.0012202
0.00117321
0.00115797
0.00115388
0.00115451
0.00115738
0.00116141
382.138
0.00116608
706.252
3910.6
24551.1
50230.8
57018.3
70171.6
83057.7
85509.3
80526.5
74529.9
69163.5
59497
47092.6
32894.9
19446.4
9168.38
3089.03
587.305
30.7715
0.198189
0.00448846
0.00156265
0.00125242
0.00118191
0.00115974
0.00115247
0.00115136
0.00115329
0.0011568
0.00116117
0.00116602
839.173
6604.21
30772.6
53359.3
59271.2
70802
82019.5
84117.6
79501.5
74080.3
69247.7
60303.9
48717.4
35103
21694
10948.2
4165.06
1006.8
93.6015
1.16472
0.0100736
0.0018622
0.00130275
0.00119549
0.00116314
0.00115193
0.00114878
0.00114953
0.00115238
0.00115636
0.00116098
0.00116597
1224.09
10783.6
36548.8
55616.9
60924.2
70988.9
80725.1
82501.7
78252.2
73377.9
69070.8
60839.3
50038.3
37087.4
23864.5
12772.2
5322.59
1531.13
214.848
6.0159
0.0319113
0.00246327
0.00138385
0.00121563
0.00116903
0.00115247
0.00114683
0.00114617
0.00114819
0.00115169
0.00115603
0.00116084
0.00116594
2140.77
17061.4
41481.6
56847.6
61856.2
70706.7
79191.5
80702.9
76799
72441.5
68626.4
61088.7
51063.9
38815.8
25890
14599
6576.99
2149.69
407.047
21.8486
0.149531
0.00387484
0.00151586
0.00124465
0.00117802
0.00115449
0.00114562
0.00114327
0.00114429
0.00114719
0.00115118
0.00115577
0.00116073
0.00116591
4781.94
24197.3
45208.6
56988.1
61959
69906.5
77328.2
78733.2
75171.6
71302.3
67942
61058.2
51793.9
40280.3
27753.6
16371.4
7895.81
2870.68
670.917
60.7343
0.762983
0.008079
0.00174314
0.00128618
0.00119061
0.00115825
0.00114535
0.00114088
0.00114071
0.0011429
0.00114646
0.00115079
0.00115558
0.00116064
0.00116589
10869.9
30905.3
47585.5
56131.5
61176.6
68546.8
75138.9
76547.1
73385.8
69986.2
67054.5
60785.2
52239.8
41469.1
29434.8
18077
9234.6
3677.69
1007.46
132.51
3.47685
0.0219091
0.00219788
0.00134757
0.00120762
0.0011639
0.00114617
0.00113913
0.00113751
0.00113885
0.00114189
0.0011459
0.00115049
0.00115543
0.00116058
0.00116587
19532.3
36441.1
48704.4
54481.4
59562.1
66588.1
72671.4
74125.8
71429
68502
65986
60306.3
52444.9
42388.3
30905.2
19695.4
10579.8
4544.02
1414.01
248.392
11.6638
0.0815815
0.00316672
0.00144577
0.00123016
0.00117167
0.00114814
0.00113809
0.00113474
0.00113507
0.0011375
0.00114114
0.00114549
0.00115027
0.00115532
0.00116053
0.00116585
28167.7
40430.9
48743.8
52257.6
57272.6
64033.7
69900
71500.9
69285.3
66842.9
64739.8
59632.3
52434
43077.5
32158
21192.6
11915.7
5458.01
1883.73
410.655
32.1043
0.342761
0.00562925
0.00160819
0.00126077
0.00118173
0.00115135
0.00113781
0.00113245
0.0011316
0.00113331
0.0011365
0.00114058
0.00114518
0.0011501
0.00115523
0.00116049
0.00116522
34833.5
42768.7
47891.9
49647.7
54504.9
60966.4
66798.5
68680.7
66969.2
65001
63312.4
58762.4
52204.8
43545.4
33207.1
22550.3
13213.8
6408.98
2410.65
618.766
71.3974
1.46292
0.0122613
0.00190361
0.00130466
0.00119454
0.00115585
0.00113833
0.00113068
0.00112846
0.00112933
0.00113202
0.00113577
0.00114017
0.00114495
0.00114998
0.00115522
0.00116125
0.00121828
39018.1
43605.2
46343.9
46803.9
51440.7
57534.4
63376.1
65657.3
64494.5
62991.8
61702.3
57699.2
51759.4
43778.3
34053.9
23759.5
14452.1
7377.98
2989.18
868.684
135.174
5.01884
0.0346551
0.00245829
0.00137202
0.0012111
0.00116174
0.00113969
0.00112947
0.00112568
0.0011256
0.0011277
0.00113108
0.00113524
0.00113986
0.00114479
0.00115006
0.00115856
0.00126815
0.00810799
41043.8
43246.6
44297.2
43848.8
48227.8
53903.2
59693.7
62425.1
61865.9
60831.6
59926.7
56450
51109.6
43784.7
34688.7
24809.5
15610.9
8347.26
3609.74
1161.85
226.69
13.9646
0.122413
0.00365303
0.00147525
0.00123308
0.00116925
0.00114192
0.00112882
0.00112329
0.00112213
0.00112355
0.00112652
0.0011304
0.00113484
0.00113965
0.00114502
0.0011566
0.00131333
0.00791632
41453.5
42029.3
41933
40879.1
44979.5
50216.8
55852.3
59000.5
59080.8
58528.5
58003.6
55034.9
50270.3
43582.9
35116
25694.9
16670.1
9297.68
4262.02
1496.69
347.157
32.2897
0.46745
0.00652896
0.0016437
0.00126229
0.00117871
0.00114509
0.00112877
0.00112129
0.00111893
0.0011196
0.00112208
0.00112566
0.0011299
0.00113458
0.00114011
0.00115517
0.00135465
0.00772671
40744.7
40247.1
39400.7
37967.1
41780.1
46582.7
51965.8
55431.1
56141.2
56083
55943.8
53474.3
49263.2
43190.4
35347.6
26416.7
17622.1
10207.7
4933.24
1869.26
495.894
63.3039
1.6435
0.0140627
0.00193818
0.00130406
0.0011905
0.00114931
0.00112935
0.00111972
0.00111602
0.00111585
0.00111779
0.00112102
0.00112504
0.00112958
0.00113539
0.00115421
0.00139251
0.00754291
39307.8
38128.6
36814.3
35163.5
38688.9
43073.8
48135.4
51789.1
53066.1
53494.8
53749.4
51781.2
48109.8
42627.9
35396.6
26977.7
18465.1
11066.1
5606.89
2273.74
671.668
110.439
4.71497
0.0372876
0.00248196
0.00136518
0.00120531
0.00115465
0.00113059
0.00111859
0.00111341
0.0011123
0.00111365
0.0011165
0.00112026
0.00112465
0.00113044
0.00115365
0.00142726
0.00736661
37428.8
35840.1
34254.9
32500.9
35745.5
39736.8
44438.3
48153.9
49895.2
50774.6
51419.8
49959.9
46824.4
41916.1
35279
27382.5
19196.3
11867.9
6271.65
2701.19
874.811
175.202
11.6459
0.116039
0.00359359
0.00145685
0.00122424
0.00116124
0.00113254
0.00111792
0.00111111
0.00110898
0.00110967
0.00111209
0.00111558
0.0011198
0.00112559
0.00115344
0.00145913
0.00719259
35309.7
33498.7
31777.5
29998.3
32973.5
36598.5
40926.3
44598
46682.7
47949.5
48960.7
48009.9
45413.5
41070.2
35012.4
27639.4
19813
12608
6921.06
3143.82
1103.09
258.173
24.7208
0.388057
0.00603385
0.00160182
0.00124863
0.00116925
0.00113522
0.00111772
0.00110915
0.00110589
0.00110586
0.00110781
0.00111099
0.00111505
0.00112103
0.00115351
0.0014884
0.00701604
33090.4
31183
29416.7
27664.1
30384.7
33671.8
37629.9
41179
43487
45060.4
46391.4
45933.5
43877.5
40098.3
34611
27759.5
20315.6
13280
7549.31
3596.1
1352.97
358.832
45.8391
1.20935
0.0118522
0.00184133
0.00128284
0.00117895
0.00113867
0.00111802
0.00110752
0.00110303
0.00110221
0.00110365
0.0011065
0.00111039
0.00111674
0.00115383
0.00151531
0.00684785
30864.1
28943.7
27192.2
25499.4
27982.1
30959.6
34563.2
37936.9
40362.3
42156
43744.3
43742
42216.9
39002.3
34083.7
27753.7
20707.8
13879.2
8149.81
4053.19
1621.4
475.444
76.8743
3.20473
0.02753
0.00225818
0.00133108
0.00119086
0.00114296
0.00111883
0.00110624
0.00110042
0.00109875
0.00109963
0.00110211
0.00110583
0.00111269
0.00115437
0.00154009
0.00668927
28691.4
26811.9
25113.4
23500
25762.7
28458.2
31728.6
34895.7
37352.9
39285
41060.7
41457.6
40437.7
37782.5
33433.8
27629.3
20995
14403.4
8716.08
4509.87
1905.66
608.045
118.767
7.44807
0.0746475
0.00304223
0.00140055
0.00120567
0.00114817
0.00112018
0.00110532
0.00109807
0.00109547
0.00109575
0.00109783
0.00110139
0.00110882
0.0011551
0.00156292
0.00653885
26609.9
24804.5
23181.9
21658.6
23719.3
26159.1
29120.9
32066.6
34490.9
36490.3
38384.8
39112.1
38553.9
36441.4
32661.8
27389.6
21181.3
14852.5
9243.09
4960.56
2202.73
756.546
171.48
15.2582
0.220851
0.00463005
0.00150473
0.00122421
0.00115441
0.00112209
0.00110478
0.00109598
0.00109238
0.001092
0.00109367
0.00109707
0.00110518
0.00115599
0.00158394
0.0063952
24641.1
22928.9
21394.8
19966.4
21842.2
24051
26730.2
29450.9
31796.5
33805.9
35757.7
36742.3
36588.3
34987.3
31768.4
27035
21268.3
15226.8
9727.36
5400.2
2509.16
919.922
235.901
27.8144
0.636135
0.00803475
0.00166799
0.00124865
0.00116183
0.00112459
0.00110462
0.00109416
0.00108949
0.0010884
0.00108962
0.00109286
0.00110177
0.00115702
0.0016033
0.00625758
22795.5
21186
19746.3
18414
20120.7
22120.9
24543.1
27043.7
29280.2
31255.9
33214.3
34385.5
34570
33435.3
30757.7
26564.9
21255.6
15525.7
10166.1
5824.38
2821.4
1096.62
310.346
46.0721
1.64215
0.0158629
0.00193453
0.00128223
0.00117069
0.0011277
0.00110487
0.00109262
0.00108679
0.00108496
0.00108569
0.00108877
0.00109851
0.00115817
0.00162113
0.00612509
21076.2
19572.9
18229.3
16991.4
18544.4
20355.9
22545
24835
26944.6
28855.3
30780.6
32075.3
32530.9
31806.9
29638.6
25980.2
21141.4
15747.2
10556.5
6229.17
3135.96
1285.07
394.952
71.0576
3.71683
0.0361997
0.00238983
0.00132871
0.00118138
0.00113148
0.00110552
0.00109137
0.0010843
0.00108166
0.00108189
0.00108481
0.00109538
0.00115941
0.00163753
0.00599821
19481.8
18084.3
16835.5
15688.8
17102.2
18743.9
20721.8
22812.7
24786.4
26611.4
28474.6
29839.6
30502
30127.7
28425.7
25284.9
20924.3
15888.6
10895.7
6610.88
3449.41
1483.5
489.967
103.016
7.6382
0.0923504
0.00322905
0.00139456
0.00119441
0.00113597
0.0011066
0.00109041
0.00108203
0.00107853
0.00107821
0.00108097
0.00109239
0.00116074
0.00165257
0.00587338
18008.2
16713.4
15556.4
14496.5
15783.3
17272.1
19060.2
20965.1
22798.7
24525.1
26306.9
27699.2
28511
28424.8
27138.1
24487.5
20604.3
15946.5
11179.7
6965.86
3758.36
1689.9
595.222
142.137
14.1626
0.247394
0.00485408
0.0014917
0.00121038
0.00114125
0.00110811
0.00108974
0.00107997
0.00107556
0.00107466
0.00107727
0.00108955
0.00116214
0.00166637
0.00575244
16649.4
15453
14383.5
13405.2
14577.4
15928.7
17546.3
19280.3
20975
22593.8
24281.2
25668.5
26580.4
26724.1
25797.8
23600.4
20184.8
15918.5
11404.5
7290.11
4059.55
1902.08
709.996
188.615
23.9447
0.633866
0.00814959
0.00164002
0.00123137
0.0011474
0.00111008
0.00108939
0.00107813
0.00107275
0.00107125
0.00107369
0.00108684
0.00116359
0.00167899
0.00563534
15398.9
14295.5
13308.4
12406.8
13474.9
14702.3
16166.8
17744.4
19306.2
20814.6
22398.5
23755.3
24727.7
25048.4
24427.3
22639.9
19672.3
15803.9
11565.9
7579.3
4349.5
2117.81
833.316
241.609
37.6132
1.46918
0.015276
0.00187457
0.00125945
0.00115462
0.0011125
0.00108934
0.00107651
0.00107011
0.00106797
0.00107025
0.00108427
0.00116509
0.00169052
0.00552191
14249.4
13233.1
12323.4
11493.4
12467
13582.6
14909.4
16344.2
17779.8
19180.4
20658.1
21965
22964.2
23416.8
23048.2
21623.8
19076.7
15604.3
11660.8
7828.92
4624.47
2334.66
964.179
301.204
55.7334
3.08335
0.0323388
0.00226151
0.00129739
0.00116314
0.00111541
0.0010896
0.00107512
0.00106764
0.00106484
0.00106694
0.00108183
0.00116663
0.00170102
0.00541195
13193.6
12258.5
11421.1
10658.1
11545.7
12560.3
13763.2
15067.8
16384.5
17680.6
19054.7
20300.5
21300
21843.9
21679.7
20570.6
18410.6
15324.1
11687.6
8034.78
4880.45
2549.95
1101.42
367.534
78.4444
5.96142
0.0760686
0.00294152
0.00134991
0.00117329
0.00111882
0.00109019
0.00107396
0.00106534
0.00106184
0.00106378
0.00107954
0.00116819
0.00171055
0.00530529
12224.6
11365
10595.1
9894.95
10703.9
11626.9
12718.2
13904.2
15110
16305.7
17578.7
18758.4
19740.9
20343.3
20338.4
19498
17687.9
14970.4
11646.3
8193.39
5113.38
2760.73
1243.62
440.487
105.891
10.5716
0.187551
0.00419946
0.0014252
0.00118545
0.00112277
0.00109109
0.00107304
0.00106323
0.00105899
0.00106064
0.00107738
0.00116976
0.00171917
0.00520177
11335.6
10546.2
9839.57
9198.84
9935.19
10774.9
11765.5
12843.8
13946.2
15046.7
16222.6
17331.5
18285.5
18923.2
19039.5
18422.7
16923.2
14552
11539.2
8302.39
5319.43
2963.86
1389.09
519.596
138.252
17.3364
0.448175
0.00660435
0.0015369
0.00120083
0.00112731
0.00109232
0.00107234
0.00106129
0.00105629
0.00105761
0.00107535
0.00117135
0.00172694
0.00510125
10520.6
9796.59
9149.69
8567.59
9234.57
9997.77
10897
11877.1
12884.1
13894.7
14978.3
16015.2
16929.9
17584.2
17793.2
17359.9
16131.2
14079.1
11370.5
8360.72
5495.26
3156.19
1535.9
604.132
174.852
26.6155
0.991143
0.0114025
0.00170764
0.00122114
0.00113253
0.00109387
0.00107188
0.00105952
0.00105375
0.00105474
0.00107346
0.00117295
0.00173389
0.00500359
9774.08
9111.51
8523.43
7999.37
8599.5
9290.17
10105.7
10996.1
11914.5
12841.3
13837.7
14802.8
15672.4
16326.5
16603.7
16321.2
15325.8
13563.1
11145.8
8368.83
5638.21
3334.62
1681.97
693.242
215.657
38.8338
2.00349
0.0218547
0.00197699
0.00124803
0.00113859
0.00109576
0.00107164
0.00105793
0.0010513
0.00105205
0.0010717
0.00117454
0.00174008
0.00490867
9091.5
8489
7960.81
7483.24
8026.72
8649.04
9385.94
10193.4
11029.5
11877.7
12793
13687.7
14508.3
15150.9
15474.4
15313.6
14518.3
13015.1
10872.2
8328.5
5746.51
3496.28
1825.11
785.958
260.664
54.094
3.78784
0.0463522
0.00242506
0.00128436
0.00114567
0.00109799
0.00107164
0.0010565
0.00104897
0.00104952
0.00107006
0.00117613
0.00174555
0.00481638
8470.9
7930.3
7452.38
7003.66
7504.62
8068.91
8732.49
9461.89
10220.8
10995.9
11835.4
12662.8
13432.2
14055.3
14408.6
14343.7
13717.5
12444.8
10557.4
8242.95
5819.36
3638.62
1963.03
881.145
309.77
72.3835
6.6438
0.105802
0.00320803
0.00133497
0.00115405
0.00110058
0.00107187
0.00105524
0.00104677
0.00104715
0.00106854
0.00117772
0.00175033
0.0047266
7914.12
7427.48
6981.34
6550.55
7018.75
7537.31
8136.64
8794.14
9480.68
10188.1
10957.5
11720.3
12438.9
13036.7
13406.7
13416.5
12931.8
11861
10208.6
8116.23
5857.02
3759.65
2093.53
977.482
362.625
94.005
10.8506
0.241699
0.00462984
0.00140753
0.00116401
0.00110356
0.00107234
0.00105418
0.00104487
0.00104494
0.00106715
0.00117929
0.00175447
0.00463924
7414.11
6962.99
6535.85
6119.49
6560.11
7041.59
7586.62
8180.9
8801.74
9447.18
10151.9
10853.7
11522
12091.3
12468
12534.9
12167.9
11272.5
9832.75
7952.48
5860.58
3858.01
2214.55
1073.53
418.661
118.408
16.6324
0.52542
0.00725876
0.0015148
0.00117703
0.00110697
0.00107304
0.00105331
0.00104318
0.00104288
0.00106589
0.00118084
0.00175799
0.00455419
6953.01
6523.47
6110.85
5709.23
6124.69
6574.37
7073.11
7612.82
8176.14
8766.27
9411.68
10056.5
10676.2
11214.6
11590.7
11700.4
11430.3
10686.6
9437.72
7756.33
5831.52
3932.93
2324.33
1167.8
477.182
145.374
24.2363
1.05601
0.0123889
0.00167688
0.00119406
0.00111089
0.00107399
0.00105262
0.00104165
0.00104098
0.00106474
0.00118238
0.00176092
0.00447137
6516.64
6103.26
5705.14
5319.82
5711.17
6132.15
6590.78
7082.91
7596.11
8138.13
8730.65
9322.57
9896.05
10402.7
10772.3
10913.3
10722.5
10108.9
9030.41
7533.42
5771.95
3984.03
2421.37
1258.87
537.431
174.805
33.819
1.98804
0.0231778
0.00193017
0.00121657
0.00111544
0.00107518
0.00105214
0.00104027
0.00103923
0.00106371
0.00118391
0.0017633
0.00439069
6098.96
5701.14
5319.01
4951.6
5319.41
5713.56
6136.73
6587.04
7055.91
7555.67
8101.9
8646.14
9176.05
9651.04
10010.2
10173.1
10046.7
9544.13
8616.47
7289.23
5685
4011.46
2504.38
1345.34
598.608
206.566
45.3748
3.51527
0.0475516
0.00234463
0.00124693
0.00112075
0.00107664
0.00105184
0.00103904
0.00103763
0.0010628
0.0011854
0.00176516
0.00431206
5698.76
5317.64
4953.1
4604.78
4949.57
5318.17
5709.42
6122.64
6551.98
7013.61
7518.8
8020.92
8511.06
8955.15
9301.27
9478.72
9404.03
8995.81
8201
7028.58
5574.12
4016.19
2572.43
1425.89
659.861
240.439
58.9061
5.82102
0.102569
0.00305594
0.00128906
0.00112702
0.00107837
0.00105174
0.00103798
0.00103618
0.00106201
0.00118688
0.00176651
0.00423542
5316.65
4953.58
4607.85
4279.32
4601.67
4945.8
5307.89
5687.93
6081.88
6508.62
6976.39
7440.86
7895.45
8310.63
8642.07
8828.48
8795.16
8466.54
7788.13
6756.05
5442.67
3999.68
2625.11
1499.33
720.272
276.069
74.4385
9.06483
0.219131
0.00430203
0.00134905
0.00113448
0.0010804
0.00105184
0.00103707
0.00103487
0.00106133
0.00118833
0.00176738
0.00416069
4953.59
4609.62
4283.42
3974.89
4275.53
4596.23
4931.42
5281.51
5643.64
6038.32
6471.5
6901.47
7323.87
7712.66
8029.17
8220.25
8219.86
7958.32
7381.29
6475.62
5294.06
3963.67
2662.46
1564.71
778.904
312.985
91.5437
13.3653
0.446052
0.00651048
0.00143634
0.00114424
0.00108276
0.00105215
0.00103633
0.00103371
0.00106076
0.00118976
0.0017678
0.00408781
4610.32
4286.03
3979.6
3690.91
3970.71
4269.06
4579.31
4902.13
5235.51
5600.65
6001.77
6399.76
6792.27
7156.63
7458.7
7651.72
7677.35
7472.27
6983.37
6190.83
5131.44
3910.07
2684.81
1621.35
834.877
350.656
110.034
18.8626
0.847747
0.0106017
0.00156546
0.001157
0.0010855
0.00105265
0.00103576
0.0010327
0.00106031
0.00119116
0.00176779
0.00401669
4287.21
3982.75
3695.95
3426.61
3686.55
3963.66
4250.73
4548.6
4855.87
5193.77
5565.15
5933.47
6297.94
6639.05
6926.93
7120.1
7166.52
7008.87
6596.46
5904.83
4957.81
3840.89
2692.8
1668.78
887.413
388.543
129.771
25.6163
1.52477
0.0186831
0.00176175
0.00117375
0.00108872
0.00105338
0.00103535
0.00103184
0.00105996
0.00119253
0.00176736
0.00394728
3984.23
3699.41
3431.76
3181.1
3422.23
3679.26
3944.77
4219.7
4503.15
4815.86
5159.68
5500.53
5838.71
6157.51
6431.03
6622.66
6685.78
6568.2
6222.05
5620.17
4775.99
3758.17
2687.25
1706.79
935.84
426.126
150.601
33.5792
2.595
0.035826
0.002072
0.0011961
0.00109248
0.00105432
0.00103511
0.00103113
0.00105972
0.00119388
0.00176654
0.00387951
3701.06
3435.36
3186.22
2953.38
3176.79
3414.93
3660.38
3914.19
4175.8
4465.21
4783.47
5098.94
5412.6
5710.07
5968.99
6157.33
6233.48
6149.81
5861.19
5338.94
4588.46
3663.93
2669.15
1735.33
979.596
462.898
172.338
42.7219
4.16631
0.0724261
0.00258507
0.00122664
0.00109692
0.0010555
0.00103505
0.00103056
0.00105959
0.0011952
0.00176534
0.00381334
3437.12
3189.84
2958.37
2742.42
2949.22
3169.64
3396.47
3630.78
3872.35
4140.16
4434.72
4726.73
5017.61
5294.86
5539.18
5722.63
5808.35
5753.12
5514.45
5062.81
4397.36
3560.13
2639.61
1754.54
1018.24
498.363
194.733
53.0286
6.32914
0.146553
0.00345057
0.00126935
0.0011022
0.00105693
0.00103517
0.00103015
0.00105956
0.00119649
0.00176379
0.00374871
3191.62
2961.93
2747.21
2547.16
2738.44
2942.32
3151.87
3368.19
3591.3
3839.09
4111.65
4382
4651.75
4910.01
5139.96
5317.3
5409.53
5377.71
5182.16
4793.07
4204.61
3448.59
2599.82
1764.74
1051.45
532.051
217.484
64.1879
9.14715
0.286051
0.00491345
0.00133007
0.00110888
0.00105862
0.00103546
0.00102989
0.00105965
0.00119776
0.0017619
0.00368556
2963.7
2750.66
2551.72
2366.57
2543.41
2731.87
2925.42
3125.13
3331.22
3560.45
3812.6
4062.9
4313.1
4553.58
4769.64
4940.07
5036.27
5023.37
4864.7
4530.75
4011.8
3330.98
2550.96
1766.38
1079.05
563.541
240.271
76.0236
12.6759
0.527628
0.00744136
0.0014174
0.00111759
0.00106061
0.00103594
0.00102979
0.00105983
0.00119899
0.00175967
0.00362384
2752.38
2555.02
2370.88
2199.65
2363.05
2537.2
2715.93
2900.31
3090.71
3302.73
3535.95
3767.71
3999.79
4223.67
4426.46
4589.53
4687.71
4689.9
4562.48
4276.81
3820.32
3208.86
2494.26
1760
1100.97
592.476
262.782
88.4169
16.9602
0.922371
0.0120257
0.00154509
0.00112888
0.00106295
0.00103661
0.00102984
0.00106012
0.00120021
0.00175714
0.00356351
2556.68
2374.01
2203.68
2045.38
2196.35
2357.22
2522.26
2692.5
2868.42
3064.5
3280.17
3494.75
3710.02
3918.45
4108.63
4264.16
4362.83
4376.92
4275.83
4032.17
3631.5
3083.63
2430.87
1746.21
1117.25
618.579
284.727
101.253
21.9651
1.53941
0.0208951
0.00173724
0.00114365
0.00106569
0.00103747
0.00103005
0.00106052
0.00120139
0.00175431
0.00350453
2375.58
2206.63
2049.14
1902.83
2042.32
2190.92
2343.29
2500.49
2663.05
2844.37
3043.78
3242.45
3442.14
3636.16
3814.41
3962.4
4060.46
4083.87
4004.87
3797.62
3446.55
2956.66
2361.94
1725.71
1128.01
641.641
305.852
114.411
27.6186
2.44203
0.0387766
0.00203786
0.00116327
0.0010689
0.00103852
0.00103043
0.00106102
0.0012026
0.0017512
0.00344684
2208.11
2051.91
1906.33
1771.11
1899.99
2037.26
2177.98
2323.14
2473.38
2641.04
2825.39
3009.33
3194.56
3375.14
3542.13
3682.68
3779.32
3809.98
3749.5
3573.72
3266.54
2829.22
2288.63
1699.19
1133.48
661.513
325.925
127.76
33.9615
3.6831
0.0739937
0.00252345
0.00118987
0.00107265
0.00103978
0.00103096
0.00106162
0.00120385
0.00174776
0.0033904
2053.3
1908.9
1774.36
1649.41
1768.49
1895.3
2025.29
2159.37
2298.24
2453.27
2623.69
2793.98
2965.78
3133.84
3290.2
3423.48
3518.11
3554.35
3509.4
3360.8
3092.36
2702.48
2212.03
1667.44
1133.96
678.12
344.735
141.148
40.7953
5.30179
0.139564
0.00331127
0.00122657
0.00107726
0.00104127
0.00103167
0.00106234
0.00120514
0.00174399
0.00333517
1910.21
1776.75
1652.41
1536.94
1646.99
1764.16
1884.25
2008.14
2136.54
2279.88
2437.43
2595.08
2754.43
2910.8
3057.15
3183.34
3275.53
3315.99
3284.08
3158.95
2924.67
2577.46
2133.21
1631.24
1129.8
691.453
362.098
154.407
47.9758
7.31684
0.253471
0.00458813
0.00127776
0.00108306
0.001043
0.00103254
0.00106316
0.00120646
0.00173993
0.00328113
1777.97
1654.63
1539.7
1432.97
1534.7
1643
1753.97
1868.47
1987.23
2119.79
2265.43
2411.39
2559.18
2704.66
2841.57
2960.91
3050.31
3093.89
3072.91
2968.08
2763.89
2454.98
2053.12
1591.38
1121.43
701.572
377.873
167.376
55.4017
9.75529
0.437862
0.00669559
0.00134967
0.00109033
0.00104502
0.00103358
0.0010641
0.00120781
0.00173557
0.00322822
1655.77
1541.76
1435.52
1336.83
1430.91
1531.03
1633.61
1739.48
1849.34
1971.97
2106.63
2241.75
2378.83
2514.15
2642.18
2754.89
2841.27
2887.04
2875.21
2787.94
2610.27
2335.7
1972.6
1548.61
1109.3
708.597
391.96
179.91
62.9987
12.6184
0.725138
0.0103139
0.001452
0.00109949
0.00104734
0.0010348
0.00106514
0.00120919
0.00173094
0.00317642
1542.82
1437.42
1339.18
1247.9
1334.94
1427.53
1522.4
1620.31
1721.98
1835.43
1959.98
2085.11
2212.22
2338.09
2457.75
2564.09
2647.27
2694.46
2690.26
2618.18
2463.89
2220.08
1892.34
1503.6
1093.89
712.695
404.307
191.886
70.6996
15.8703
1.15275
0.016912
0.00160113
0.00111113
0.00105002
0.00103619
0.00106629
0.0012106
0.00172606
0.00312568
1438.4
1340.94
1250.06
1165.6
1246.16
1331.83
1419.61
1510.2
1604.31
1709.31
1824.51
1940.42
2058.33
2175.36
2287.17
2387.4
2467.25
2515.23
2517.34
2458.39
2324.72
2108.46
1812.93
1456.99
1075.64
714.063
414.898
203.209
78.4377
19.4611
1.75369
0.0293517
0.0018263
0.00112617
0.0010531
0.00103775
0.00106755
0.00121202
0.00172093
0.00307599
1341.84
1251.68
1167.59
1089.42
1164.01
1243.31
1324.56
1408.42
1495.58
1592.78
1699.37
1806.74
1916.13
2024.97
2129.39
2223.76
2300.22
2348.44
2355.74
2308.14
2192.63
2001.04
1734.81
1409.31
1055
712.919
423.749
213.804
86.1547
23.4211
2.55433
0.0524018
0.00217598
0.001146
0.00105665
0.0010395
0.00106892
0.00121347
0.00171556
0.00302731
1252.52
1169.09
1091.24
1018.85
1087.96
1161.4
1236.64
1314.3
1395.06
1485.07
1583.73
1683.21
1784.71
1885.93
1983.44
2072.2
2145.24
2193.27
2204.79
2166.94
2067.45
1897.94
1658.35
1361.02
1032.37
709.492
430.902
223.61
93.7832
27.6074
3.57316
0.0931864
0.00272156
0.00117261
0.00106078
0.00104141
0.00107041
0.00121493
0.00170997
0.00297961
1169.86
1092.62
1020.53
953.458
1017.51
1085.56
1155.28
1227.24
1302.09
1385.49
1476.83
1569.04
1663.22
1757.36
1848.4
1931.84
2001.46
2048.92
2063.82
2034.36
1948.95
1799.2
1583.79
1312.51
1008.11
704.01
436.416
232.579
101.254
31.9465
4.81749
0.161237
0.00356817
0.0012087
0.00106562
0.00104349
0.001072
0.0012164
0.00170416
0.00293285
1093.34
1021.8
954.999
892.833
952.232
1015.31
1079.95
1146.66
1216.08
1293.37
1377.98
1463.47
1550.89
1638.45
1723.42
1801.82
1868.06
1914.65
1932.22
1909.93
1836.9
1704.8
1511.35
1264.1
982.552
696.698
440.368
240.679
108.5
36.3786
6.29468
0.268238
0.00488782
0.00125784
0.00107142
0.00104565
0.0010737
0.00121788
0.00169816
0.00288702
1022.46
956.169
894.247
836.597
891.707
950.216
1010.17
1072.05
1136.46
1208.13
1286.53
1365.82
1446.99
1528.44
1607.74
1681.35
1744.27
1789.79
1809.4
1793.2
1731.04
1614.7
1441.16
1216.04
955.986
687.769
442.847
247.893
115.463
40.8618
8.01043
0.429599
0.00699422
0.00132522
0.00107843
0.0010482
0.0010755
0.00121937
0.00169196
0.0028421
956.777
895.325
837.896
784.407
835.565
889.86
945.5
1002.93
1062.72
1129.21
1201.89
1275.47
1350.85
1426.63
1500.64
1569.71
1629.39
1673.65
1694.79
1683.77
1631.11
1528.83
1373.31
1168.57
928.663
677.421
443.946
254.216
122.096
45.3638
9.94585
0.665803
0.0105072
0.00141903
0.00108698
0.00105108
0.00107742
0.00122087
0.00168557
0.00279804
895.886
838.889
785.6
735.947
783.46
833.872
885.535
938.863
994.395
1056.1
1123.52
1191.82
1261.86
1332.37
1401.44
1466.23
1522.77
1565.63
1587.87
1581.21
1536.84
1447.08
1307.86
1121.84
900.804
665.84
443.76
259.657
128.362
49.8542
12.0717
0.995219
0.016649
0.00155305
0.00109752
0.00105422
0.00107944
0.00122236
0.00167901
0.00275482
839.407
786.515
737.044
690.928
735.078
781.907
829.904
879.449
931.052
988.355
1050.91
1114.34
1179.44
1245.07
1309.53
1370.29
1423.79
1465.15
1488.11
1485.12
1448
1369.36
1244.87
1076.02
872.6
653.194
442.385
264.233
134.236
54.3078
14.3951
1.4332
0.0274978
0.0017507
0.00111077
0.00105767
0.00108156
0.00122385
0.00167227
0.00271243
786.993
737.887
691.936
649.083
690.13
733.652
778.266
824.32
872.298
925.536
983.616
1042.55
1103.07
1164.19
1224.35
1281.32
1331.88
1371.69
1395.06
1395.12
1364.3
1295.54
1184.33
1031.22
844.222
639.639
439.915
267.965
139.695
58.7003
16.8676
1.99132
0.0462111
0.00204751
0.00112771
0.00106193
0.00108378
0.00122534
0.00166538
0.00267084
738.328
692.713
650.011
610.168
648.349
688.82
730.31
773.141
817.77
867.257
921.207
975.988
1032.29