/*--------------------------------*- C++ -*----------------------------------*\
| =========                 |                                                 |
| \\      /  F ield         | OpenFOAM: The Open Source CFD Toolbox           |
|  \\    /   O peration     | Version:  1.6.x                                 |
|   \\  /    A nd           | Web:      www.OpenFOAM.org                      |
|    \\/     M anipulation  |                                                 |
\*---------------------------------------------------------------------------*/
FoamFile
{
    version     2.0;
    format      ascii;
    class       volScalarField;
    location    "7000";
    object      G;
}
// * * * * * * * * * * * * * * * * * * * * * * * * * * * * * * * * * * * * * //

dimensions      [1 0 -3 0 0 0 0];

internalField   nonuniform List<scalar> 
4608
(
113126
105654
113119
123300
98807.3
105679
113089
121043
85508.5
126842
92517.1
98831.9
105694
113070
119756
86148.4
61952.6
84221.4
133946
86746.2
92540.2
98847.1
105699
119188
86461.9
62563.7
48309
60882.2
81500.6
485340
134648
81461.6
86767.7
92554.6
98853.6
86593.5
62883.3
48691.2
40391.2
47671
58715.3
73102.4
482488
821970
117500
76633
81481.7
86781.4
92560.7
63023.4
48889.9
40620
35754.9
40020.9
46416.5
53347.4
62972.3
480325
819696
1.1137e+06
88626.6
72232.9
76651.9
81494.6
86787.3
48976.6
40737
35885.8
32960.3
35550.5
39309
43406.3
47586.1
54062.6
480549
820664
1.11186e+06
1.36407e+06
71967.8
68236.2
72250.7
76664.2
81500.3
40787.4
35953.4
33045.2
31215.6
32828.6
35165.9
37624.9
40161.7
42953.3
50348.3
824455
1.11295e+06
1.36249e+06
1.57846e+06
63581.3
64620
68252.9
72262.3
76669.6
35982.3
33084.7
31272.8
30133.3
31133.3
32604.8
34205.3
35736.9
37330
41122.2
48089.3
1.11644e+06
1.36345e+06
1.5771e+06
1.76183e+06
57735.2
61363.6
64635.8
68264
72267.6
33101.1
31298.2
30170.7
29466
30080.6
30997.9
32056.7
33038.4
33887.9
36128.9
39997
45942
1.36647e+06
1.57793e+06
1.76066e+06
1.91852e+06
53637.5
58448.6
61378.6
64646.4
68269.1
31308.5
30187.1
29490.1
29058.5
29432.3
29994.6
30664.5
31305.8
31733.4
33009.7
35386.9
38882.3
44312
1.58052e+06
1.76137e+06
1.91751e+06
2.05227e+06
50142.9
55858.2
58462.8
61388.8
64651.4
30193.7
29500.7
29074
28816.7
29036
29376.2
29765.9
30146.8
30359.4
31002.5
32458.5
34639.1
38056
42870
1.76361e+06
1.91812e+06
2.05139e+06
2.1663e+06
46976.7
53577.6
55871.8
58472.7
61393.6
29504.8
29080.9
28827.4
28687.6
28800.7
28997.5
29202.9
29368.2
29419.4
29715.5
30535.4
31886
34087.9
37357.3
41417.7
1.92004e+06
2.05192e+06
2.16554e+06
2.26339e+06
44101.8
51593.9
53590.6
55881.3
58477.4
29083.6
28832.2
28696.5
28649.6
28675.6
28771.9
28851.2
28871.9
28762.5
28847.5
29282.5
30036.4
31454.5
33662.1
36655.8
39912.2
2.05357e+06
2.166e+06
2.26274e+06
2.34592e+06
41498.4
49895.7
51606.4
53599.9
55885.9
28834
28700.4
28656.1
28678.5
28640.8
28653.4
28638.9
28553.3
28341.1
28250.5
28439.6
28789.1
29651.2
31137.7
33263.5
35885.4
38379.1
2.16742e+06
2.26313e+06
2.34535e+06
2.41592e+06
39145.5
48473.3
49907.8
51615.5
53604.4
28701.8
28659.1
28683.3
28758.7
28670.9
28623.6
28532.6
28357.5
28063.3
27871.7
27871
27930.6
28397
29367.6
30868
32829.2
35039.9
36848.9
2.26435e+06
2.34569e+06
2.41542e+06
2.4751e+06
37021.5
47318.7
48485.1
49916.7
51619.9
28660.2
28685.6
28762.5
28878.4
28751.3
28655.6
28513.9
28266
27890.8
27620.8
27513.6
27347.7
27507.5
28101.7
29150.1
30591.7
32335.6
34131.3
35348.1
2.34674e+06
2.41572e+06
2.47467e+06
2.52493e+06
35105.1
46425.1
47330.2
48493.8
49921.1
28686.4
28764.2
28881
29026.6
28870.6
28735.7
28550.1
28261.8
27821.2
27467.6
27279.4
26975.6
26886.7
27180.8
27885.3
28947
30278
31781.8
33175.8
33897.6
2.41662e+06
2.47492e+06
2.52455e+06
2.56662e+06
33375.6
45787.7
46436.4
47338.8
48498.3
28764.8
28881.9
29028.4
29198
29018.7
28854.1
28629.2
28305.1
27837.8
27417.5
27139.9
26740.6
26472.6
26518.7
26940.4
27708.5
28725.7
29918.4
31172.1
32190.7
32512.8
2.47571e+06
2.52477e+06
2.56629e+06
2.60118e+06
31814
45402.7
45798.8
46445.1
47343.3
28882.3
29028.6
29199.3
29385.9
29189.7
29001.5
28744.8
28386.4
27892.5
27451.7
27103.7
26608
26204.4
26055.5
26242.2
26763.2
27535.5
28472.6
29511.9
30513.5
31193.2
31204
2.52546e+06
2.56648e+06
2.60088e+06
2.62943e+06
30402.5
45413.7
45807.5
46449.5
29028.9
29199.2
29387.4
29589.1
29376.5
29171.6
28890.3
28502.4
27979.9
27516.5
27150.1
26580.5
26047
25739.9
25734.1
26042.5
26610.9
27344.5
28184.1
29059.7
29815.3
30199.5
29976.8
2.56708e+06
2.60106e+06
2.62917e+06
2.65203e+06
29125.6
45422.4
45812
29199.3
29387.1
29591.2
29808.2
29578.1
29356.5
29058.4
28648.9
28101
27611.2
27222.2
26634.6
25995.8
25538.9
25370.7
25498.7
25890.7
26455.9
27127.2
27858.7
28565
29088.1
29223.7
28833.5
2.6016e+06
2.62933e+06
2.65178e+06
2.66945e+06
27968.9
45427.1
29387
29590.9
29811.3
30043.5
29795.3
29555.3
29239.8
28817.6
28253.5
27739
27322.6
26715.7
26028.1
25441.8
25121.2
25093.7
25329.9
25752.5
26283
26881.2
27496.3
28032.5
28343.4
28277.5
27773.7
2.62981e+06
2.65193e+06
2.66922e+06
2.68205e+06
26920
29590.6
29811
30048.2
30293.4
30028.6
29769.5
29433.9
28997.3
28427.4
27899.1
27455.8
26825.1
26103.4
25428.4
24971
24799.4
24894.6
25193.1
25606.3
26087.6
26604.8
27098
27468.9
27592.6
27369.9
26794.7
2.65237e+06
2.66936e+06
2.68183e+06
2.69004e+06
25967.9
29810.7
30047.9
30300.3
30554.3
30276.2
29999.4
29642.8
29188.2
28609
28079.6
27621.8
26967.1
26212.8
25469.2
24902.2
24598.7
24563.4
24747.5
25060.8
25443
25867.7
26297.4
26666.4
26881.9
26846.6
26507.1
25893.1
2.66978e+06
2.68197e+06
2.68982e+06
25102.8
30047.6
30300.2
30564.2
30820.3
30534.2
30243.2
29867
29393.3
28799.9
28265.1
27807.4
27142.1
26356.3
25552.6
24893
24475.3
24319.4
24394.4
24618.9
24917.6
25260.1
25621.9
25959.4
26205.7
26280
26114.8
25693.3
25064.4
2.68237e+06
2.68996e+06
24316.2
30299.8
30564.5
30834.2
31089
30796.8
30496.9
30104.6
29613.4
29004.3
28458.8
27996.1
27335.8
26534
25674.6
24932.1
24413
24148.2
24118.1
24260.2
24487.4
24758.8
25055.9
25349.5
25592.4
25721.3
25671.9
25405.1
24930.4
24303.9
2.69035e+06
23600.6
30564.1
30835.8
31108.2
31361.5
31061.5
30754.2
30351.2
29846.3
29223.3
28665.5
28192.2
27530.4
26731.6
25833.4
25013.6
24401.1
24036.8
23908.4
23969.5
24133.6
24344
24582.6
24829.2
25050.6
25199.1
25219.5
25066.1
24723.8
24218.8
23606.9
22949.4
30835.5
31112.4
31387.2
31639.9
31329.5
31012.8
30600
30087.4
29454.6
28886.4
28401
27731.7
26931.9
26017.6
25134.1
24433.4
23975.4
23755.4
23736.2
23841.3
23999.7
24186.5
24387.6
24579.3
24726.2
24783.6
24707.3
24470
24075.4
23558
22969
22357
31112.2
31395.4
31673.1
31925.7
31602.7
31273.7
30848.6
30329.1
29693.3
29119.2
28623.6
27945.3
27139.6
26213.4
25284.2
24505.1
23958
23650.6
23552.2
23599.6
23712.5
23854.3
24013.3
24172.7
24306.2
24378.5
24350.8
24191.6
23890.2
23462.8
22946.7
22386
21818.7
31395.9
31686.8
31967.5
32218.8
31882.8
31539.1
31098.3
30568.8
29930.5
29358.9
28857.8
28172.1
27359.2
26420.4
25453.7
24608.9
23979.2
23588.2
23412.4
23400.9
23471.9
23574.8
23696
23823.3
23937.3
24010.7
24010.6
23906.3
23679.3
23331.9
22887.8
22383
21854.2
21330.4
31689.2
31988.4
32270.1
32516.4
32169.7
31810.7
31351.3
30808.2
30163.8
29595.4
29098.4
28409.6
27591.2
26640.3
25639.8
24736.9
24033.1
23562.5
23312.1
23239.7
23269.8
23338.7
23426.4
23523.4
23615.5
23681.5
23694.5
23626.6
23456.2
23176.6
22799.4
22351.4
21865.2
21370.4
20889.2
31994.6
32299.3
32577.4
32814.1
32461
32088.4
31609.3
31049.8
30395.4
29826.7
29334.6
28652.9
27833.1
26872.6
25842
24885.8
24113.4
23568.7
23246.2
23111.8
23100.3
23138.7
23196.7
23266
23335.7
23389.5
23405.9
23360.4
23231.4
23006.5
22688.7
22295.5
21853.7
21391.4
20932.2
20492.9
32310.6
32615.1
32884.1
33107.1
32752.7
32370.2
31872.5
31295.4
30628.3
30055.5
29564.7
28890
28079.9
27114.7
26058.9
25053.9
24216.9
23602.1
23210.7
23014.1
22959
22968.6
23000.4
23044.5
23092.5
23131.9
23145.3
23112.1
23011.9
22830
22562.8
22220.2
21822.5
21394.7
20960.3
20537.8
20140.4
32631.4
32929.4
33185
33391.1
33040.2
32652.7
32139.3
31545.2
30864.2
30285
29791.8
29119.6
28318.9
27361.8
26287.3
25239.3
24341.6
23659.1
23201.4
22944.3
22842.9
22823.7
22832.2
22853.6
22881.2
22905.2
22911.8
22883.7
22802.6
22653.2
22427.9
22130.3
21774.7
21382
20974.2
20570.8
20186.4
19831.7
32950.1
33236.7
33475.7
33662.6
33319.5
32931.9
32406.9
31798
31103.5
30517
30019.1
29345.6
28549.5
27601.8
26522.6
25438.7
24485.1
23737.8
23215.2
22899.1
22749.5
22700.5
22687.7
22688.6
22697.2
22705.9
22703.4
22675.5
22606.3
22480.6
22289
22030.4
21713.6
21355.2
20975.1
20592.3
20222.7
19878.3
19568.6
33260.8
33532.8
33752.9
33918.2
33586.8
33203.8
32672
32051.4
31345.1
30751.9
30248.6
29571.2
28775.9
27834
26756.1
25647.8
24644.7
23835.9
23250.3
22875.6
22676.6
22595.8
22563.1
22545.6
22536.8
22530.5
22517.8
22486.9
22424
22315.2
22150
21924.2
21642.3
21316.6
20964.1
20603
20249.4
19916.6
19615.4
19354.7
33559.7
33814.3
34013.3
34155
33838.9
33464.8
32931
32302.7
31587
30988.6
30480.5
29798.4
29001.5
28062.1
26985.2
25860.1
24816.4
23950.8
23304.3
22872.1
22623.1
22507.9
22455.2
22421.3
22396.5
22376
22352.6
22316.6
22256.2
22158.8
22013.7
21815.1
21563.8
21268.4
20942.8
20603.7
20267
19946.8
19654.8
19401.4
33843.4
34078.4
34254.2
34370.1
34072.6
33711.3
33180.2
32548.4
31826.7
31225.4
30713.9
30027.5
29228
28289
27211.5
26072.7
24995.4
24079.6
23375.2
22886.6
22587.9
22435.5
22361.7
22312.8
22273.5
22239.7
22205.6
22163.1
22102.3
22012.1
21882.2
21705.4
21480.5
21212.5
20912.6
20595.3
20276
19969.1
19687
19441.2
34109.4
34322.5
34472.9
34560.9
34285.1
33940.1
33416.3
32785.4
32061.3
31459.9
30947.2
30257.5
29455.6
28516
27436.9
26285.7
25179
24218.4
23460.4
22917
22569
22377.4
22280.8
22217.6
22165.2
22119
22074.4
22024.8
21961.7
21875.5
21756.5
21597.2
21394.5
21150.9
20874.9
20578.9
20277.1
19983.8
19712.1
19474.2
34355.2
34544
34666.9
34724.6
34473.4
34148.3
33635.7
33010.1
32287.6
31689.2
31178
30487
29683.6
28743.4
27662.4
26499.7
25366.4
24365
23557.3
22961.6
22564.8
22332.6
22211
22134
22069.5
22011.8
21957.2
21900.1
21833.4
21748.8
21637.3
21491.6
21307.4
21085.3
20831.1
20555.3
20270.8
19991.4
19730.4
19500.6
34578.1
34740.4
34833.5
34859
34635
34332.8
33835.4
33219.2
32502.3
31910.4
31403.7
30713.8
29910.5
28970.5
27888.1
26715.1
25557.4
24518
23663.6
23018.3
22573.9
22300.6
22151.5
22060
21984.4
21916.2
21852
21787.4
21716.3
21631.4
21525
21389.7
21220.6
21017
20782.5
20525.7
20258
19992.4
19742.2
19520.5
34775.8
34909.3
34970.5
34961.7
34767.4
34490.9
34012.3
33409.3
32702
32120.2
31621.3
30935.2
30134.3
29196.1
28113.3
26931.6
25751.9
24677.1
23778.2
23085.3
22594.7
22280.6
22101.6
21994.3
21908.5
21830.6
21757.4
21685.3
21609.2
21522.9
21419.4
21291.8
21135
20947.1
20730.2
20490.9
20239.2
19987.1
19747.7
19534.3
34945.9
35048.3
35075.6
35030.5
34868.3
34620.1
34163.4
33577.3
32883.5
32315.3
31827.6
31148.7
30352.7
29418.1
28336.7
27148.4
25949.2
24841.5
23900.4
23161.4
22625.7
22271.3
22060.7
21936.1
21840.4
21753.4
21671.8
21592.5
21511.2
21422.5
21320.3
21198.3
21051.3
20876.6
20675.1
20451.8
20215.1
19976.1
19747.4
19542.1
35085.9
35155.2
35146.6
35063.3
34935.5
34718.1
34286.2
33720.3
33043.5
32492.5
32019.5
31351
30562.9
29634.5
28556.6
27364.3
26148.4
25010.6
24029.5
23245.9
22665.9
22271.4
22028.2
21884.2
21778.8
21683.5
21594.1
21507.8
21421.2
21329.5
21227.4
21109.2
20969.8
20806.1
20618
20409.1
20186.4
19960
19741.6
19544.3
35193.8
35227.9
35181.4
35057.8
34966.8
34782.6
34378.2
33835.5
33179
32648.5
32193.6
31539.1
30762.1
29842.8
28771
27577.6
26348.2
25183.3
24164.5
23337.9
22714.6
22280.2
22003.5
21838.3
21722.6
21619.7
21523
21430.1
21338.1
21243.1
21140.2
21024.4
20890.8
20736.2
20559.6
20363.5
20153.8
19939.2
19730.8
19541.2
35267.5
35264.3
35177.7
35011.4
34960
34811.6
34437.3
33920.6
33287.3
32780.5
32346.8
31709.6
30947.2
30040
28977.5
27786.3
26547.1
25358.4
24304.6
23436.7
22770.9
22297
21986.6
21798.1
21671
21561.1
21457.6
21358.5
21261.2
21162.5
21058.2
20943.7
20814.4
20667.1
20500.4
20315.7
20117.7
19914.1
19715.2
19533.1
35304.7
35262.1
35132.8
34920.7
34912.4
34802.6
34461.3
33973.2
33366.1
32885.5
32476.1
31859.5
31115
30223.4
29173.4
27988.2
26743.1
25534.5
24448.6
23541.4
22834.3
22321.2
21976.8
21763.2
21623.4
21506.7
21396.9
21292
21189.7
21087.2
20980.9
20866.8
20740.7
20599.3
20440.8
20266
20078.6
19885.3
19695.4
19520.3
35303.3
35218.6
35043.6
34783.2
34820.6
34753.1
34447.9
33991.2
33413
32961.3
32578.8
31985.8
31262.5
30389.8
29356
28180.8
26934.1
25709.6
24595.1
23651
22903.8
22351.9
21973.5
21733.4
21579.3
21455.8
21340.3
21229.8
21122.7
21016.4
20907.8
20793.5
20669.5
20532.7
20381.1
20215
20037
19853.1
19671.6
19503.3
35260.5
35130.6
34907.5
34597.2
34682.1
34659.5
34394.3
33972.5
33426
33005.7
32652.5
32085.8
31386.7
30536.3
29522.3
28361.4
27117.8
25882
24742.6
23764.2
22978.6
22388.6
21976.1
21708.4
21538.2
21407.7
21286.9
21171.3
21059.5
20949.5
20838.5
20723.3
20600.7
20467.4
20321.6
20162.8
19993.3
19818
19644.3
19482.3
35173.2
34995.7
34722.8
34361.4
34495.3
34519.3
34297.1
33914.3
33402.8
33016.5
32695
32157.3
31485.2
30660.1
29669.5
28527.1
27291.6
26049.4
24889.3
23879.8
23057.8
22430.7
21984.2
21688.2
21500.2
21361.8
21236.1
21115.8
20999.7
20885.9
20772.3
20656
20534
20403.5
20262.3
20109.9
19947.8
19780.2
19613.8
19457.6
35038.9
34812.1
34488
34073.6
34258.7
34331
34153.5
33812.7
33340.9
32991.8
32704.4
32198
31555.6
30758.7
29794.9
28675.3
27452.8
26209.4
25033.4
23996.3
23140.2
22477.3
21997.1
21672.6
21465
21317.7
21187.3
21062.7
20942.5
20825.2
20708.9
20591.2
20469.4
20340.8
20203.4
20056.4
19900.8
19740.2
19580.3
19429.6
34855.9
34578.3
34201.2
33732.5
33970.3
34093.1
33962.2
33665.2
33236.1
32928.7
32678.4
32206.1
31595.8
30829.9
29896
28803.2
27598.8
26359.7
25172.8
24112.1
23224.5
22527.3
22014.2
21661.2
21432.5
21275.1
21140.1
21011.5
20887.5
20766.8
20647.9
20528.6
20406.5
20279.3
20144.9
20002.4
19852.5
19698.1
19544.2
19398.6
34622.7
34292.3
33860.9
33336.1
33628.7
33803.6
33721.8
33470.5
33085.8
32823.2
32614.7
32179.4
31603.9
30871.6
29970.7
28908.6
27727
26497.7
25305.2
24225.4
23309.6
22580
22034.8
21653.3
21402.4
21233.5
21094
20961.7
20834.2
20710.3
20588.8
20467.8
20345.2
20218.8
20086.8
19948.1
19803.1
19654.1
19505.8
19364.7
34337.3
33952.8
33465.2
32882.9
33231.9
33461.1
33430.2
33227.5
32889.2
32672.5
32508.7
32115.7
31578
30882.1
30017
28989.1
27835.1
26621
25428.5
24334.3
23393.8
22634.2
22058
21648.3
21374.7
21192.9
21048.5
20912.9
20782.1
20655.3
20531.3
20408.5
20285.1
20159.2
20029
19893.5
19752.7
19608.6
19465.2
19328.4
33998.2
33557.8
33012.5
32371.6
32778.4
33063.7
33086.2
32933.9
32645.3
32476.3
32357.9
32010.1
31515.8
30859.5
30033.2
29042.9
27920.8
26727.3
25540.4
24436.9
23475.7
22688.7
22083.1
21645.8
21349.1
21153.1
21003.1
20864.6
20730.9
20601.3
20474.9
20350.4
20226.2
20100.4
19971.6
19838.6
19701.5
19561.7
19422.7
19289.8
33603.6
33105.7
32501.4
31800.2
32267.1
32609.8
32687.8
32588.8
32351.6
32233.5
32162.1
31860.5
31412.7
30801.6
30017.6
29068.2
27982.1
26814.3
25638.6
24531.2
23553.6
22742.4
22109.2
21645.2
21325.5
21114
20957.7
20816.4
20680.1
20548
20419.5
20293.2
20168
20042.2
19914.4
19783.5
19649.5
19513.5
19378.4
19249.1
33151.9
32595
31930
31166.9
31695.9
32098.4
32233.6
32190.1
32007.8
31941.8
31920.5
31666.9
31266.7
30704.3
29968
29063.3
28017.3
26880
25721.1
24615.2
23625.8
22793.7
22135.3
21645.7
21303.3
21075.3
20911.9
20767.9
20629.4
20495.1
20364.5
20236.7
20110.4
19984.4
19857.3
19728.2
19596.8
19464.1
19332.6
19206.5
32641.5
32023.8
31296.2
30469.9
31063.3
31527.6
31722.9
31737
31611.7
31601.1
31630.5
31428.6
31077.9
30565.7
29881.2
29026.2
28024.4
26922.6
25785.9
24687
23690.7
22841.5
22160.3
21646.4
21282
21036.9
20865.3
20718.9
20578.4
20442.2
20309.8
20180.5
20053.2
19926.9
19800.3
19672.6
19543.5
19413.7
19285.3
19162.2
32070.5
31389.9
30598
29708.4
30367.7
30896.2
31154.1
31228.9
31163.2
31209.5
31292.5
31143.2
30846
30386.1
29755.5
28954.3
28001.8
26940.2
25831.1
24744.7
23746.5
22884.2
22183.1
21646.8
21261
20998.6
20817.8
20668.8
20526.9
20389
20255.1
20124.4
19996.1
19869.4
19743.2
19616.7
19489.5
19362.2
19236.7
19116.3
31436.8
30691.1
29833.6
28889.6
29608.9
30202.8
30526.6
30665.1
30662.4
30767.2
30904.7
30811.5
30569
30165.4
29590.8
28846.1
27947.1
26930.9
25854.7
24786.5
23791.6
22920.6
22202.7
21645.9
21239.8
20960
20769.3
20617.5
20474.4
20335.3
20200
20068.1
19939
19812
19686
19560.4
19434.8
19309.8
19186.9
19069
30737.7
29925.1
29008.5
28039.3
28795.7
29448.7
29840.6
30046.2
30109.4
30274.8
30467.6
30431.9
30247.6
29902.1
29386.9
28701.2
27858.9
26892.8
25855
24810.5
23824.2
22949
22217.8
21642.9
21217.8
20921.1
20719.7
20564.5
20420.6
20280.6
20144.3
20011.5
19881.7
19754.2
19628.4
19503.6
19379.5
19256.5
19135.9
19020.2
29971.2
29095.8
28148.8
27186.3
27952.9
28644.4
29099.9
29374.2
29506.3
29733.3
29982.2
30005.7
29881.3
29596.8
29143.1
28519.3
27736.7
26824.5
25830.2
24815
23842.8
22968
22227.3
21637
21194.4
20881.4
20668.7
20509.7
20365.3
20224.8
20087.8
19954.3
19823.9
19696.2
19570.5
19446.4
19323.6
19202.3
19083.7
18970.2
29139.9
28229.6
27285.2
26353.4
27108.3
27813.9
28317.3
28655.7
28856.8
29145
29450
29533.9
29470.9
29249.2
28859.6
28300
27580
26725.2
25778.9
24798.3
23845.6
22976.3
22230
21627
21168.8
20840.6
20616.2
20452.8
20308.2
20167.5
20030.2
19896.2
19765.4
19637.5
19512.1
19388.6
19266.9
19147.2
19030.6
18919
28270.5
27358.3
26441.7
25556
26283.9
26982.8
27513.8
27903.1
28167.9
28514
28873.4
29018.4
29017.9
28860.4
28536.6
28043.4
27388.5
26594.3
25700
24759
23831.2
22972.3
22224.7
21612.2
21140.3
20798
20562.1
20393.7
20248.9
20108.6
19971.2
19837.1
19706.2
19578.2
19453
19330.1
19209.5
19091.2
18976.4
18866.7
27395.4
26507.1
25634.3
24802.6
25494.3
26171.7
26711.8
27134.6
27451.1
27847
28256.6
28461.6
28524.1
28431.7
28174.9
27749.9
27162.3
26431.5
25593
24696
23798.2
22954.8
22210.1
21591.5
21108.3
20753.2
20506
20332.2
20187.3
20047.7
19910.7
19776.8
19645.9
19518.1
19393.2
19270.9
19151.3
19034.4
18921.2
18813.2
26540.3
25692.3
24871.9
24097.3
24748.1
25394.8
25929.4
26369.1
26721.8
27154.9
27606.2
27867.9
27992.2
27965
27776
27420.2
26901.7
26236.8
25457.2
24608.6
23745.4
22922.3
22185.1
21563.9
21072
20705.7
20447.8
20268.2
20123.1
19984.7
19848.5
19715
19584.5
19457
19332.5
19211
19092.2
18976.7
18865
18758.7
25721.8
24923.2
24158.5
23440.9
24049.1
24660
25179.3
25622.5
25996.4
26451.8
26932.6
27243.7
27426.4
27463.1
27341.7
27055.7
26607.4
26010.4
25292.7
24496
23672
22873.9
22148.5
21528.6
21030.7
20655
20387.3
20201.7
20056.2
19919.3
19784.3
19651.7
19521.7
19394.8
19270.9
19150.1
19032.3
18918
18807.8
18703.1
24949.4
24203.9
23494.9
22832.1
23398.3
23971.3
24469
24905.8
25288.3
25752.5
26249.1
26598.4
26832.7
26929.9
26874.7
26658.3
26280.7
25752.9
25099.4
24358
23577.2
22808.7
22099.5
21484.5
20983.7
20600.5
20324.2
20132.5
19986.3
19851.4
19718
19586.5
19457.5
19331.4
19208.2
19088.2
18971.5
18858.4
18749.7
18646.5
24227.1
23535.1
22879.9
22268.7
22794.5
23329.5
23802.1
24225.8
24607.6
25069.5
25569.2
25944.2
26219.9
26371.2
26378.7
26230.4
25923.3
25465.5
24877.8
24194.6
23460.7
22725.9
22037
21430.9
20930.1
20541.7
20258.2
20060.5
19913.4
19780.7
19649.4
19519.5
19391.8
19266.6
19144.4
19025.3
18909.7
18797.9
18690.5
18588.9
23555.6
22915.5
22311.1
21747.8
22235.4
22733.5
23179.6
23586.2
23960.4
24412
24904.9
25293.5
25598.8
25795
25859.2
25775.6
25537.6
25149.6
24629
24006
23322.1
22624.9
21960.5
21367
20869.4
20478.1
20188.8
19985.7
19837.5
19707.2
19578.4
19450.5
19324.2
19200.4
19079.3
18961.3
18846.9
18736.3
18630.4
18530.3
22933.7
22342.6
21785.4
21266.3
21718.2
22181.3
22600.6
22987.8
23350.1
23786
24264.7
24656.8
24980.6
25210.8
25323.4
25298.9
25126.9
24807.5
24354.1
23792.9
23161.8
22505.5
21869.4
21292.1
20800.9
20409.1
20115.7
19907.8
19758.4
19630.6
19504.8
19379.2
19254.9
19132.6
19012.8
18896.1
18782.9
18673.7
18569.2
18470.6
22358.8
21813.4
21299.7
20821
21240
21670.2
22063.3
22430.1
22777.8
23194.8
23654.5
24042.5
24375
24628.7
24779.7
24806.7
24695.5
24442.1
24055.1
23556.4
22980
22367.7
21763.3
21205.8
20724.1
20334.4
20038.6
19826.8
19676.1
19551
19428.5
19305.7
19183.6
19063.2
18945
18829.7
18717.9
18610.1
18507
18409.9
21827.8
21324.7
20850.8
20408.9
20797.5
21197.2
21565.2
21911.5
22243.1
22639.4
23077.5
23455.8
23789.5
24057.4
24236.9
24306.5
24249.3
24057.3
23734.6
23298.1
22777.7
22211.6
21642
21107.6
20638.6
20253.5
19957.2
19742.5
19590.8
19468.2
19349.4
19229.8
19110.4
18992
18875.7
18762
18651.7
18545.3
18443.8
18348.2
21337.5
20873.1
20435.5
20027.2
20387.9
20759.4
21103.6
21429.8
21744.8
22119.8
22534.8
22899.9
23229.2
23503.8
23703
23805.9
23794.6
23658.2
23396
23020.3
22556.1
22038
21505.8
20997.4
20544
20166
19871.1
19655
19502.3
19382.2
19267.6
19151.5
19035
18919.1
18804.9
18693
18584.3
18479.5
18379.5
18285.5
20884.5
20455.5
20051.1
19673.3
20008.5
20353.9
20675.8
20982.6
21281
21634.7
22026.4
22376.2
22697.1
22972.7
23184.2
23312.1
23338.4
23250.2
23043.5
22725.8
22317
21847.8
21354.9
20875.1
20440
20071.7
19780.2
19563.9
19410.7
19293.1
19182.9
19070.8
18957.5
18844.4
18732.5
18622.6
18515.7
18412.5
18314.2
18221.7
20465.7
20068.9
19694.7
19344.9
19656.5
19977.9
20279
20567.4
20849.6
21182.6
21551.3
21884.6
22194.6
22467
22685
22830.7
22886.7
22839.4
22682
22418.1
22062.8
21642.4
21190.1
20741.1
20326.8
19970.4
19684.3
19469.3
19316.1
19200.9
19095.2
18987.5
18877.9
18767.8
18658.4
18550.8
18445.8
18344.4
18247.7
18156.9
20078.2
19710.8
19364.1
19039.7
19329.7
19629.1
19910.7
20181.8
20448.2
20761.4
21107.9
21424.4
21722
21988.3
22208.3
22365.9
22444.7
22431
22316.4
22101.3
21796.5
21423.6
21012.5
20595.8
20204.3
19862.1
19583.2
19370.8
19218.3
19105.6
19004.8
18901.7
18796
18689.3
18582.8
18477.5
18374.6
18275.2
18180.2
18091
19719.1
19378.6
19057.1
18756
19026.1
19305.1
19568.6
19823.4
20074.7
20369.1
20694.5
20994.2
21278.6
21536.8
21755.7
21920.5
22016.4
22029.7
21951.5
21779.5
21521.2
21193.9
20823.5
20440
20073
19746.8
19476.9
19268.6
19117.6
19007.5
18911.5
18813.4
18712
18608.9
18505.5
18402.8
18302.2
18204.7
18111.6
18024.1
19386.1
19070.2
18771.7
18492
18743.7
19003.9
19250.6
19489.9
19727
20003.6
20309
20592.4
20863.3
21112.3
21327.6
21496.2
21604.3
21639.1
21591.1
21456.7
21240.4
20955.8
20624.8
20274.8
19933.4
19624.8
19365.6
19162.7
19014
18906.6
18815.4
18722.6
18625.9
18526.7
18426.5
18326.7
18228.5
18133.1
18041.8
17956.1
19076.9
18783.5
18506.2
18246.2
18480.8
18723.6
18954.7
19179.5
19403.1
19663
19949.5
20217.2
20474.7
20713.7
20923.9
21093.6
21210.1
21261.6
21238.7
21136.5
20957.4
20712
20418.6
20101.5
19786.3
19496.5
19249.2
19053.1
18907.7
18803.2
18716.8
18629.5
18537.6
18442.5
18345.9
18249.1
18153.5
18060.4
17971
17887.1
18789.6
18516.9
18259.1
18017.4
18236.1
18462.6
18679.1
18890.4
19101
19345.3
19614.2
19866.8
20111.3
20340
20544
20712.7
20834.8
20899.1
20896.5
20821.7
20675.3
20465.3
20207
19921.6
19632.6
19362.4
19128.3
18940
18798.7
18697.4
18615.7
18534.1
18447.3
18356.6
18263.7
18170.1
18077.2
17986.4
17899.1
17817
18522.5
18268.8
18029.1
17804.3
18008.2
18219.6
18422.3
18620.8
18819.3
19048.8
19301.3
19539.6
19771.3
19989.8
20186.9
20353.2
20478.5
20552.4
20566.3
20514.5
20396.5
20218.1
19992.1
19736.8
19473.5
19223.2
19003.1
18823.5
18687.2
18589.4
18512.3
18436.5
18355
18268.9
18180
18089.8
17999.7
17911.4
17826.2
17745.9
18273.9
18037.9
17815
17606.1
17795.9
17993.1
18182.9
18369.3
18556.3
18772
19009
19233.8
19453.3
19661.6
19851.4
20014.3
20141
20222.1
20249.1
20216.6
20123
19972.6
19776
19548.8
19310.3
19079.8
18874.1
18704
18573.5
18479.4
18406.9
18336.9
18260.8
18179.5
18094.7
18008.1
17921
17835.2
17752.2
17673.8
18042.5
17823.1
17615.9
17422
17598.5
17782.2
17959.7
18134.7
18310.7
18513.4
18735.9
18947.9
19155.7
19354
19536.3
19695.1
19821.8
19908
19945.6
19929.1
19856.4
19730.7
19560.4
19359.2
19144.1
18933.1
18742
18581.9
18457.7
18367.6
18299.7
18235.4
18164.9
18088.6
18008.1
17925.1
17841.2
17758
17677.2
17600.7
17827.3
17623.3
17430.9
17251.2
17415
17586
17751.8
17915.7
18081.3
18271.7
18480.6
18680.4
18877
19065.6
19240.4
19394.5
19520.3
19609.9
19655.8
19652.6
19597.9
19493.6
19346.9
19169.3
18976.2
18783.9
18607.3
18457.6
18340.1
18254.4
18190.9
18132.2
18067.5
17996.2
17920
17840.8
17760.2
17679.7
17601.3
17526.6
17627.1
17437.7
17259.4
17093.3
17244.8
17403.5
17558.1
17711.6
17867.1
18045.8
18241.8
18430.2
18616.1
18795.2
18962.5
19111.7
19235.7
19327.3
19379.7
19387.5
19348
19262.5
19136.7
18980.6
18807.9
18633.3
18470.9
18331.5
18221.1
18140
18080.8
18027.6
17968.6
17902.4
17830.8
17755.5
17678.1
17600.5
17524.3
17451.6
17441.2
17265.6
17100.8
16947.9
17087.4
17234.3
17378
17521.3
17667.1
17834.6
18018.5
18195.9
18371.6
18541.7
18701.5
18845.4
18967
19059.7
19117
19133.8
19107.4
19038.1
18930.8
18794.1
18640
18482
18333.3
18204.3
18101.1
18024.7
17969.8
17921.8
17868.4
17807.4
17740.4
17669
17595.1
17520.3
17446.5
17375.7
17268.9
17106.6
16954.8
16814.7
16942.5
17077.8
17210.8
17344.2
17480.5
17637.4
17809.7
17976.6
18142.5
18303.8
18456.3
18594.8
18713.5
18806.4
18867.4
18891.6
18876.1
18820.9
18729.9
18610.6
18473.5
18331
18195.3
18076.3
17980.3
17908.8
17858.1
17815.1
17767.2
17711.4
17649
17581.6
17511.2
17439.3
17367.9
17299
17109.6
16960.1
16821.1
16693.7
16809.7
16933.6
17056.2
17179.8
17306.8
17453.3
17614.6
17771.4
17927.8
18080.6
18225.9
18358.9
18474.3
18566.7
18630.3
18660.4
18654.2
18611.3
18534.6
18430.8
18309.2
18181
18057.5
17948.2
17859.2
17792.7
17746
17707.6
17665.2
17614.5
17556.6
17493.4
17426.4
17357.5
17288.5
17221.5
16962.9
16826
16699.7
16585
16689.1
16801.5
16913.6
17027.5
17145.3
17281.8
17432.4
17579.5
17726.7
17871.2
18009.4
18136.8
18248.8
18339.9
18405.2
18440.2
18441.7
18409.3
18345.3
18255.3
18147.6
18032.5
17920.4
17820.3
17738.3
17676.7
17633.8
17599.8
17562.5
17516.8
17463.6
17404.4
17340.9
17274.9
17208.4
17143.3
16828.6
16704.2
16590.5
16488.7
16580.7
16681.4
16783
16887.1
16995.7
17122.3
17262.6
17400.2
17538.5
17674.9
17806
17927.8
18036
18125.6
18191.8
18230.4
18238.5
18215.1
18162.1
18084.4
17989.3
17886.2
17784.6
17693.1
17617.7
17560.9
17521.7
17491.8
17459.4
17418.7
17369.9
17314.7
17254.7
17191.7
17127.6
17064.4
16706.6
16594.8
16493.9
16405.4
16484.7
16573.5
16664.3
16758.4
16857.7
16974.5
17104.6
17232.9
17362.6
17491
17615
17731.2
17835.3
17922.9
17989.4
18030.8
18044.2
18028.6
17985.3
17918.4
17834.6
17742.3
17650.5
17567.1
17497.9
17445.8
17410
17383.9
17356.2
17320.1
17275.8
17224.6
17168.1
17108
17046.3
16985
16597
16497.9
16410.3
16335.8
16401.6
16478
16557.6
16641.4
16731.2
16838.1
16958.2
17077.3
17198.3
17318.8
17435.9
17546.4
17646.2
17731.4
17797.6
17841
17858.8
17849.7
17814.8
17757.5
17683.8
17601.4
17518.4
17442.5
17379.3
17331.5
17299
17276.3
17252.9
17221.4
17181.4
17134.1
17081
17023.8
16964.5
16905
16500
16414
16340.3
16280.7
16332.2
16395.4
16463.1
16536.2
16616.1
16713
16823
16932.9
17045.3
17158
17268.2
17372.7
17468.1
17550.5
17615.9
17660.6
17681.8
17678.3
17650.6
17601.8
17537.1
17463.6
17388.7
17319.7
17262
17218.4
17189
17169.4
17149.9
17122.8
17086.9
17043.3
16993.6
16939.3
16882.3
16824.5
16416
16343.9
16285.1
16241.5
16277.3
16326.3
16381.3
16443.1
16512.6
16599.2
16699
16799.6
16903.4
17008.1
17111.2
17209.9
17300.6
17379.9
17443.9
17489.3
17513.2
17514.3
17492.8
17451.4
17394.8
17329.1
17261.6
17199
17146.3
17106.6
17080
17063.3
17047.4
17024.3
16992.4
16952.5
16906
16854.5
16799.8
16743.7
16345.8
16288.4
16245.7
16219.9
16238.3
16271.7
16313
16362.5
16420.9
16496.8
16586.1
16677.2
16772.2
16868.9
16964.9
17057.4
17143.3
17219.1
17281.4
17326.8
17352.6
17357.5
17341.3
17306.4
17256.8
17198.3
17137.4
17080.5
17032.5
16996.3
16972.5
16958.3
16945.5
16926.3
16898
16861.7
16818.4
16769.6
16717
16662.6
16290.2
16248.9
16224
16218
16216.8
16232.9
16259.1
16295.2
16341.6
16406.1
16484.6
16565.9
16651.8
16740.2
16828.9
16915.1
16995.8
17067.8
17127.9
17172.8
17199.9
17207.7
17196
17166.7
17123.3
17071.1
17016.2
16964.5
16920.7
16887.8
16866.4
16854.5
16844.5
16828.7
16804.1
16771
16730.8
16684.6
16634.2
16581.3
16250.7
16227.1
16221.9
16238.5
16214.9
16211.6
16220.8
16242.1
16275.4
16327.7
16394.6
16465.6
16542.1
16622
16703.1
16782.6
16857.9
16925.9
16983.3
17027.1
17054.9
17064.9
17056.9
17032.3
16994.4
16947.8
16898.2
16851.1
16811.2
16781.2
16762.1
16752
16744.5
16732
16710.6
16680.7
16643.3
16599.7
16551.3
16499.9
16228.7
16225
16242.4
16285
16235.5
16209.8
16199.8
16204.4
16223.2
16262.2
16316.9
16376.9
16443.4
16514.3
16587.4
16660.1
16729.6
16793
16847.3
16889.6
16917.4
16928.9
16923.9
16903.3
16870.1
16828.4
16783.4
16740.5
16704
16676.7
16659.5
16651.1
16645.8
16636.1
16617.8
16590.9
16556.2
16514.9
16468.5
16418.4
16226.6
16245.5
16289
16362
16281.9
16230.4
16198.3
16184
16186.3
16210.6
16251.9
16300.1
16356
16417.4
16482
16547.3
16610.6
16669.1
16719.9
16760.1
16787.3
16799.7
16796.9
16779.6
16750.3
16712.9
16672.1
16632.8
16599.3
16574.4
16558.9
16551.9
16548.4
16541.2
16525.7
16501.6
16469.5
16430.5
16385.8
16337.1
16247.1
16292.1
16366.1
16475.2
16358.8
16276.8
16219
16182.7
16166.4
16174.2
16200.8
16236
16280.4
16331.5
16387.1
16444.5
16501.1
16554.2
16600.9
16638.5
16664.5
16677.2
16675.9
16661.2
16635.3
16601.5
16564.2
16528.2
16497.3
16474.3
16460.3
16454.4
16452.5
16447.5
16434.6
16413
16383.3
16346.4
16303.4
16255.9
16293.7
16369.2
16479.5
16632.1
16471.9
16353.6
16265.3
16203.5
16165.5
16154.6
16164.8
16185.6
16217.3
16257.3
16303
16351.9
16401.2
16448.4
16490.5
16524.8
16549.1
16561.4
16561
16548.2
16524.9
16494.1
16459.9
16426.6
16398
16376.7
16363.9
16358.9
16358.2
16355.1
16344.5
16325.2
16297.7
16262.8
16221.4
16175
16370.9
16482.8
16636.6
16842.2
16628.5
16466.4
16341.7
16249.7
16186.3
16153.9
16145.5
16150.2
16167.7
16195.4
16230.3
16269.8
16311.2
16351.7
16388.6
16419.2
16441
16452.3
16452.1
16440.6
16419.3
16391
16359.3
16328.2
16301.5
16281.6
16269.8
16265.5
16265.7
16264.1
16255.5
16238.4
16212.9
16179.8
16139.9
16094.4
16484.6
16640.2
16847.3
17118.4
16838.3
16622.6
16453.9
16325.6
16232.3
16174.8
16144.9
16131.3
16132.9
16146.7
16169.7
16198.9
16231.4
16264.6
16295.6
16321.6
16340.4
16350
16349.4
16338.5
16318.6
16292.1
16262.3
16233.1
16207.9
16189.1
16178
16174.1
16175
16174.7
16167.9
16152.6
16129
16097.5
16058.9