/*--------------------------------*- C++ -*----------------------------------*\
| =========                 |                                                 |
| \\      /  F ield         | OpenFOAM: The Open Source CFD Toolbox           |
|  \\    /   O peration     | Version:  1.6.x                                 |
|   \\  /    A nd           | Web:      www.OpenFOAM.org                      |
|    \\/     M anipulation  |                                                 |
\*---------------------------------------------------------------------------*/
FoamFile
{
    version     2.0;
    format      ascii;
    class       volScalarField;
    location    "7000";
    object      gammaL;
}
// * * * * * * * * * * * * * * * * * * * * * * * * * * * * * * * * * * * * * //

dimensions      [0 0 0 0 0 0 0];

internalField   nonuniform List<scalar> 
4608
(
0.5174
0.515894
0.523653
0.571245
0.51664
0.526164
0.547026
0.519659
0.607525
0.519664
0.517415
0.533806
0.550958
0.531439
0.544277
0.518346
0.63426
0.678973
0.7
0.518142
0.540701
0.551985
0.52926
0.533732
0.54093
0.520215
0.640874
0.7
0.7
0.7
0.7
0.51885
0.547272
0.552001
0.525933
0.535004
0.537379
0.524537
0.646073
0.7
0.7
0.7
0.7
0.7
0.7
0.519547
0.553717
0.551045
0.52171
0.53549
0.534023
0.530412
0.643379
0.7
0.7
0.7
0.7
0.7
0.7
0.7
0.7
0.520255
0.559844
0.549144
0.516331
0.535264
0.53129
0.534327
0.7
0.7
0.7
0.7
0.7
0.7
0.7
0.7
0.7
0.7
0.7
0.520999
0.565525
0.546358
0.510353
0.534427
0.528633
0.549776
0.7
0.7
0.7
0.7
0.7
0.7
0.7
0.7
0.7
0.7
0.7
0.7
0.521819
0.570593
0.542669
0.505155
0.533056
0.527574
0.572339
0.7
0.7
0.7
0.7
0.7
0.7
0.7
0.7
0.7
0.7
0.7
0.7
0.7
0.522771
0.574844
0.538155
0.499669
0.531472
0.52872
0.596974
0.7
0.7
0.7
0.699302
0.7
0.7
0.7
0.7
0.7
0.7
0.7
0.7
0.7
0.7
0.523929
0.578013
0.532887
0.494205
0.530055
0.531863
0.621168
0.7
0.7
0.7
0.692816
0.694503
0.7
0.7
0.7
0.7
0.7
0.7
0.7
0.7
0.7
0.7
0.525406
0.579794
0.526943
0.488837
0.52917
0.536834
0.641843
0.7
0.7
0.7
0.685534
0.677093
0.7
0.7
0.7
0.7
0.7
0.7
0.7
0.7
0.7
0.7
0.623891
0.527367
0.579823
0.520415
0.483783
0.52914
0.543122
0.659351
0.7
0.7
0.7
0.676294
0.658721
0.691369
0.7
0.7
0.7
0.7
0.7
0.7
0.7
0.7
0.7
0.7
0.516503
0.530056
0.577667
0.513256
0.479219
0.529862
0.549425
0.7
0.7
0.7
0.7
0.663637
0.645251
0.669123
0.7
0.7
0.7
0.7
0.7
0.7
0.665972
0.7
0.7
0.7
0.7
0.485216
0.533914
0.572871
0.505114
0.474674
0.531318
0.561048
0.7
0.7
0.7
0.7
0.651897
0.633882
0.65134
0.682976
0.7
0.7
0.7
0.7
0.7
0.7
0.537036
0.7
0.7
0.7
0.7
0.476593
0.539957
0.564838
0.4963
0.469908
0.533621
0.577136
0.7
0.7
0.7
0.69642
0.643002
0.62545
0.6368
0.664427
0.686455
0.689511
0.690865
0.7
0.7
0.7
0.606082
0.49302
0.7
0.7
0.7
0.7
0.474507
0.549889
0.55274
0.486415
0.465592
0.538049
0.596345
0.7
0.7
0.7
0.682632
0.633477
0.616715
0.624898
0.647699
0.672119
0.676758
0.675928
0.68827
0.7
0.7
0.68592
0.521916
0.479049
0.7
0.7
0.7
0.7
0.474211
0.56167
0.536447
0.475261
0.461785
0.544042
0.616353
0.7
0.7
0.7
0.667043
0.623213
0.607476
0.613726
0.633242
0.655043
0.664757
0.663634
0.66608
0.7
0.7
0.7
0.55377
0.489909
0.475097
0.7
0.7
0.7
0.7
0.474269
0.578696
0.517218
0.46619
0.458731
0.551538
0.635769
0.7
0.7
0.7
0.652082
0.61252
0.598514
0.603884
0.620116
0.639283
0.651834
0.652291
0.651598
0.672979
0.7
0.7
0.607456
0.503328
0.478536
0.474281
0.7
0.7
0.7
0.7
0.47435
0.602557
0.495366
0.458589
0.456609
0.560118
0.695999
0.7
0.7
0.685477
0.639559
0.602407
0.58946
0.594657
0.609198
0.625443
0.640117
0.641012
0.639595
0.644898
0.7
0.7
0.679672
0.523315
0.483741
0.475059
0.474242
0.7
0.7
0.7
0.7
0.474396
0.466756
0.455975
0.45519
0.573065
0.7
0.7
0.7
0.66736
0.627423
0.593626
0.58117
0.585529
0.598986
0.613978
0.629987
0.631053
0.628594
0.629601
0.676873
0.7
0.7
0.546264
0.491388
0.47663
0.474282
0.47432
0.7
0.7
0.7
0.7
0.47442
0.45372
0.454244
0.590494
0.7
0.7
0.678115
0.650092
0.615615
0.585259
0.573924
0.577241
0.589099
0.602897
0.62103
0.622519
0.619157
0.617272
0.630226
0.7
0.7
0.61386
0.500027
0.479233
0.474527
0.474238
0.474382
0.7
0.7
0.7
0.7
0.474435
0.453217
0.625617
0.7
0.7
0.653753
0.633178
0.604284
0.577196
0.56673
0.569718
0.580188
0.592404
0.609139
0.614901
0.611046
0.607355
0.610553
0.693938
0.7
0.7
0.518611
0.482537
0.475119
0.474146
0.474319
0.474423
0.7
0.7
0.7
0.7
0.474444
0.678715
0.7
0.7
0.631975
0.61674
0.593257
0.569445
0.559885
0.562535
0.572183
0.583037
0.597978
0.606381
0.603886
0.598932
0.598179
0.633277
0.7
0.7
0.565473
0.487988
0.476068
0.474102
0.474207
0.474392
0.474451
0.7
0.7
0.7
0.7
0.474451
0.7
0.7
0.7
0.613029
0.601465
0.582498
0.561884
0.553367
0.555733
0.564682
0.574669
0.58825
0.597968
0.596801
0.591677
0.588298
0.598593
0.7
0.7
0.646607
0.500868
0.477664
0.474155
0.474056
0.474321
0.474445
0.474472
0.7
0.7
0.7
0.474455
0.7
0.7
0.692332
0.59565
0.587692
0.57216
0.554493
0.547005
0.549247
0.557541
0.566897
0.579667
0.590328
0.589873
0.585076
0.580195
0.582506
0.65936
0.7
0.7
0.523153
0.481
0.474413
0.473886
0.474206
0.474413
0.474483
0.474487
0.7
0.7
0.474458
0.7
0.7
0.655135
0.579778
0.574888
0.562399
0.547337
0.540867
0.543008
0.550738
0.559449
0.571638
0.583439
0.583467
0.578859
0.57336
0.571703
0.605395
0.7
0.7
0.565763
0.487046
0.475082
0.473746
0.474049
0.474348
0.474478
0.474511
0.474498
0.7
0.474461
0.7
0.7
0.624885
0.56569
0.562935
0.553222
0.540469
0.535017
0.537094
0.544273
0.552362
0.563672
0.576245
0.577613
0.573122
0.567281
0.563447
0.573439
0.7
0.7
0.644285
0.498249
0.47641
0.473674
0.473863
0.474247
0.474452
0.474525
0.474532
0.474506
0.474463
0.7
0.7
0.600795
0.553277
0.551998
0.544608
0.533951
0.529472
0.531544
0.538198
0.545701
0.556092
0.568032
0.571774
0.567839
0.561795
0.556695
0.558947
0.636957
0.7
0.7
0.518278
0.478961
0.473706
0.473653
0.474111
0.4744
0.474525
0.474559
0.474547
0.474512
0.474464
0.7
0.679648
0.580649
0.542282
0.542088
0.536575
0.527816
0.524209
0.526391
0.532531
0.539494
0.549071
0.560185
0.565536
0.562729
0.556766
0.550917
0.549526
0.586223
0.7
0.7
0.553596
0.483912
0.473982
0.473413
0.473936
0.474319
0.474508
0.474577
0.474584
0.474558
0.474516
0.474465
0.7
0.632683
0.563504
0.532493
0.533122
0.529094
0.522079
0.519227
0.521519
0.527299
0.533735
0.542618
0.55301
0.559369
0.557559
0.552016
0.54579
0.542261
0.555517
0.7
0.7
0.617834
0.49267
0.474794
0.473171
0.473713
0.474207
0.47447
0.474583
0.474614
0.474602
0.474566
0.474519
0.474466
0.7
0.598145
0.548782
0.523684
0.525013
0.52217
0.516551
0.514514
0.516833
0.522385
0.52842
0.536681
0.546473
0.55352
0.552439
0.547404
0.54109
0.536304
0.540373
0.631531
0.7
0.7
0.508022
0.476508
0.472996
0.47344
0.474054
0.474408
0.474575
0.474637
0.474641
0.474614
0.474572
0.474521
0.474466
0.649107
0.57151
0.535882
0.515657
0.517649
0.515806
0.511315
0.509985
0.512362
0.517667
0.523418
0.531213
0.540482
0.548023
0.547492
0.542902
0.53669
0.531125
0.531182
0.580151
0.7
0.7
0.536446
0.479896
0.472988
0.473134
0.473857
0.474318
0.47455
0.474649
0.474674
0.47466
0.474623
0.474576
0.474523
0.474466
0.594849
0.550302
0.524512
0.508348
0.510897
0.509988
0.506417
0.505739
0.50811
0.513162
0.518624
0.52601
0.534956
0.542838
0.542763
0.538536
0.532501
0.526509
0.524079
0.545541
0.7
0.7
0.585974
0.486311
0.473329
0.472814
0.473617
0.474197
0.474506
0.47465
0.474701
0.474701
0.474673
0.47463
0.474579
0.474523
0.474466
0.561068
0.533543
0.514654
0.501793
0.504689
0.504657
0.501891
0.501548
0.504093
0.50889
0.514049
0.521004
0.529523
0.53791
0.538236
0.534334
0.528477
0.522298
0.518367
0.526549
0.648459
0.7
0.673497
0.497418
0.474303
0.472526
0.473336
0.474042
0.474441
0.474637
0.47472
0.474738
0.47472
0.474682
0.474634
0.47458
0.474523
0.474403
0.539043
0.520437
0.506277
0.496015
0.499031
0.499741
0.49774
0.497654
0.500218
0.504865
0.509725
0.516242
0.524231
0.532476
0.533868
0.530286
0.524614
0.518364
0.513547
0.51636
0.585005
0.7
0.7
0.516919
0.47636
0.472333
0.473022
0.473852
0.474352
0.474611
0.474729
0.474768
0.474763
0.474732
0.474688
0.474637
0.474586
0.474606
0.479747
0.523647
0.510134
0.499238
0.490986
0.493947
0.495196
0.49393
0.494068
0.496585
0.501024
0.505662
0.511764
0.519217
0.527025
0.529319
0.52636
0.520898
0.514647
0.509259
0.508967
0.545565
0.7
0.7
0.549356
0.480366
0.47233
0.472689
0.473628
0.474238
0.474568
0.474729
0.474793
0.474802
0.47478
0.474741
0.474693
0.474656
0.474945
0.485367
0.7
0.512205
0.501914
0.493336
0.486633
0.489437
0.491016
0.490417
0.490773
0.493209
0.497399
0.501811
0.507575
0.51453
0.521865
0.524715
0.522402
0.517296
0.511108
0.50535
0.503029
0.520598
0.696915
0.7
0.604532
0.487205
0.47269
0.472354
0.47337
0.474098
0.474508
0.474718
0.474811
0.474837
0.474826
0.474792
0.474748
0.474734
0.475362
0.490495
0.7
0.503329
0.495247
0.488369
0.482867
0.48547
0.487209
0.487169
0.487747
0.490091
0.494014
0.498176
0.503633
0.510163
0.517054
0.520239
0.518423
0.513735
0.507705
0.50173
0.498131
0.506159
0.610048
0.7
0.695137
0.498735
0.473615
0.47205
0.473081
0.473932
0.47443
0.474695
0.474821
0.474868
0.474868
0.474841
0.474803
0.47482
0.475837
0.495189
0.7
0.49625
0.489765
0.484162
0.479604
0.481991
0.483778
0.484168
0.484963
0.487223
0.490874
0.49477
0.499916
0.506073
0.512575
0.515964
0.514508
0.510195
0.504393
0.498328
0.493922
0.497351
0.561213
0.7
0.7
0.518046
0.475621
0.471824
0.472764
0.473737
0.474333
0.474659
0.474823
0.474893
0.474907
0.474888
0.474857
0.474919
0.476365
0.49952
0.7
0.490499
0.485193
0.480576
0.476767
0.478943
0.480706
0.481407
0.482395
0.484588
0.487976
0.491602
0.496426
0.502226
0.508382
0.511903
0.510716
0.506705
0.501146
0.495091
0.490145
0.490674
0.526659
0.7
0.7
0.549673
0.479284
0.471766
0.472429
0.473514
0.474215
0.47461
0.474816
0.474912
0.474941
0.474933
0.474909
0.474989
0.476939
0.503537
0.7
0.485727
0.481348
0.4775
0.47429
0.476269
0.477969
0.478881
0.480024
0.482165
0.485307
0.488669
0.493166
0.498606
0.504436
0.508036
0.507068
0.503301
0.497961
0.491983
0.48668
0.485209
0.504486
0.6756
0.7
0.600966
0.48542
0.472003
0.472091
0.473264
0.474076
0.474547
0.4748
0.474924
0.474972
0.474975
0.474961
0.475063
0.477552
0.507299
0.7
0.481748
0.478081
0.474842
0.472115
0.473915
0.475532
0.476579
0.477836
0.47993
0.48285
0.485965
0.490136
0.495213
0.500712
0.504339
0.503561
0.500004
0.494852
0.488975
0.483458
0.480652
0.490792
0.598068
0.7
0.680345
0.49545
0.472683
0.471774
0.472987
0.473916
0.474468
0.474774
0.474931
0.474998
0.475014
0.475012
0.475161
0.478199
0.510842
0.7
0.478384
0.475281
0.472529
0.470193
0.471835
0.473361
0.474488
0.475818
0.477864
0.480584
0.483472
0.487331
0.492044
0.497201
0.500797
0.50018
0.496818
0.491833
0.486059
0.480417
0.476748
0.482132
0.551502
0.7
0.7
0.511507
0.474219
0.471509
0.472687
0.473733
0.474374
0.474737
0.47493
0.475019
0.475049
0.475063
0.475283
0.478895
0.514195
0.7
0.47551
0.472861
0.470502
0.468485
0.469987
0.471422
0.47259
0.47396
0.475951
0.478488
0.48117
0.484736
0.489092
0.493898
0.497401
0.496913
0.493733
0.488909
0.483233
0.477521
0.473271
0.475571
0.518258
0.7
0.7
0.536968
0.476977
0.471357
0.472369
0.473527
0.474264
0.474689
0.474921
0.475036
0.475082
0.475115
0.475424
0.479632
0.517381
0.7
0.473034
0.470751
0.468712
0.466958
0.468335
0.469683
0.470865
0.472248
0.474176
0.476544
0.47904
0.482334
0.486349
0.490797
0.494151
0.493753
0.49074
0.486074
0.480499
0.474753
0.47009
0.470204
0.495424
0.686864
0.7
0.576885
0.481523
0.471401
0.472043
0.473299
0.474137
0.47463
0.474905
0.475047
0.475111
0.475168
0.47558
0.480395
0.52042
0.7
0.470882
0.468898
0.467122
0.465587
0.466852
0.468117
0.469294
0.47067
0.472526
0.474736
0.477061
0.480105
0.483796
0.487889
0.491044
0.490697
0.487832
0.483319
0.477853
0.472105
0.467143
0.465682
0.480238
0.60737
0.7
0.637953
0.48876
0.47174
0.471721
0.473049
0.473993
0.474559
0.47488
0.475052
0.475136
0.475222
0.475755
0.481175
0.523328
0.7
0.468996
0.467258
0.465702
0.464347
0.465515
0.4667
0.467857
0.46921
0.470987
0.473048
0.475216
0.478028
0.481414
0.485158
0.488077
0.487745
0.485004
0.480639
0.475287
0.469561
0.464385
0.461831
0.470714
0.555419
0.7
0.7
0.500122
0.472591
0.471424
0.472778
0.473831
0.474475
0.474848
0.475051
0.475158
0.475277
0.475948
0.481953
0.526119
0.7
0.467331
0.465799
0.464425
0.463216
0.464301
0.465413
0.466539
0.467855
0.469548
0.471468
0.473489
0.476084
0.479183
0.482588
0.485239
0.484893
0.482256
0.478028
0.472793
0.467109
0.461782
0.458461
0.463675
0.521158
0.7
0.7
0.517717
0.474259
0.471183
0.47249
0.473651
0.474379
0.474806
0.475044
0.475176
0.475332
0.476149
0.482737
0.528803
0.7
0.465852
0.464493
0.463267
0.462171
0.463187
0.464237
0.465327
0.466596
0.468197
0.469981
0.471866
0.474256
0.477083
0.480158
0.482521
0.482137
0.479583
0.475481
0.470365
0.464736
0.459306
0.455427
0.458009
0.494528
0.7
0.7
0.544654
0.477066
0.471046
0.472188
0.473452
0.474269
0.474755
0.475031
0.47519
0.475388
0.476359
0.483534
0.53139
0.7
0.46453
0.463313
0.462205
0.461194
0.462153
0.463148
0.464202
0.465422
0.466927
0.468579
0.470334
0.472529
0.475098
0.477852
0.479908
0.479467
0.476983
0.472997
0.467996
0.462434
0.456938
0.452645
0.453251
0.476303
0.642236
0.7
0.585395
0.481515
0.471077
0.47188
0.473236
0.474146
0.474694
0.475011
0.475201
0.475445
0.476576
0.484343
0.53389
0.7
0.463339
0.462236
0.461219
0.460268
0.461181
0.462128
0.463142
0.464312
0.465727
0.467252
0.468882
0.470891
0.473211
0.475652
0.477387
0.476875
0.47445
0.470572
0.465684
0.460197
0.454667
0.450068
0.449192
0.463856
0.578593
0.7
0.64491
0.488406
0.471351
0.471575
0.473001
0.474008
0.474623
0.474985
0.475207
0.475503
0.476802
0.485164
0.536311
0.7
0.462254
0.461241
0.460291
0.459376
0.460253
0.461161
0.462129
0.463241
0.464569
0.46599
0.467503
0.469331
0.47141
0.473544
0.474948
0.474349
0.471974
0.468201
0.463423
0.45802
0.452481
0.447657
0.445701
0.455375
0.535904
0.7
0.7
0.498918
0.47208
0.471288
0.472751
0.473856
0.474542
0.474951
0.475209
0.475562
0.477035
0.485995
0.538659
0.7
0.461254
0.46031
0.459405
0.458499
0.459354
0.46023
0.461152
0.462195
0.463423
0.464755
0.466186
0.46784
0.469684
0.471516
0.472579
0.471882
0.469548
0.465876
0.46121
0.455896
0.450367
0.445381
0.442631
0.448868
0.50515
0.7
0.7
0.514778
0.473465
0.471042
0.472486
0.473689
0.474451
0.47491
0.475207
0.475622
0.477276
0.486834
0.540941
0.7
0.46032
0.459426
0.458541
0.457612
0.458463
0.459317
0.46019
0.461165
0.462282
0.463513
0.464882
0.466407
0.468026
0.469559
0.470273
0.469465
0.467164
0.463591
0.459039
0.453818
0.448317
0.443211
0.439868
0.443544
0.481126
0.7
0.7
0.538477
0.475761
0.470873
0.472209
0.473508
0.474348
0.474861
0.475201
0.475683
0.477525
0.48768
0.543163
0.7
0.459436
0.45857
0.457677
0.456688
0.457554
0.458401
0.459228
0.460125
0.461137
0.462264
0.463556
0.464961
0.466421
0.467664
0.468025
0.467092
0.464815
0.461338
0.456902
0.451782
0.446323
0.441133
0.437337
0.439033
0.464105
0.630646
0.7
0.573465
0.479349
0.470825
0.471926
0.473313
0.474235
0.474805
0.475191
0.475746
0.477781
0.488532
0.54533
0.7
0.458584
0.457721
0.456788
0.455681
0.456598
0.457454
0.458236
0.459059
0.459949
0.461
0.462216
0.46347
0.46476
0.46582
0.46583
0.464759
0.462495
0.459112
0.454793
0.449781
0.444381
0.439134
0.434995
0.435151
0.452062
0.571418
0.7
0.623996
0.484808
0.47095
0.471643
0.473105
0.474112
0.474742
0.475177
0.475797
0.478045
0.489391
0.547445
0.7
0.457742
0.456855
0.455832
0.454524
0.455547
0.456444
0.457183
0.457927
0.458707
0.459664
0.460851
0.461954
0.463021
0.463837
0.463678
0.462464
0.460202
0.456905
0.452707
0.447808
0.442482
0.437201
0.432808
0.431795
0.443607
0.529811
0.7
0.692595
0.493026
0.471377
0.471369
0.472884
0.473977
0.474671
0.475158
0.475845
0.478316
0.490253
0.549514
0.7
0.456886
0.455933
0.454747
0.453075
0.454325
0.455316
0.45603
0.456689
0.457348
0.458257
0.459391
0.460398
0.461251
0.461735
0.46147
0.460199
0.457932
0.454716
0.450636
0.445858
0.440617
0.435329
0.430747
0.42885
0.437078
0.50008
0.7
0.7
0.505244
0.472279
0.471117
0.472651
0.473831
0.474591
0.475137
0.475896
0.478594
0.49112
0.551539
0.7
0.455981
0.454897
0.453406
0.451016
0.452784
0.453987
0.454704
0.455299
0.455824
0.456685
0.457846
0.458698
0.459421
0.459604
0.459191
0.457916
0.455679
0.452539
0.448578
0.443923
0.438779
0.433506
0.428787
0.426213
0.431732
0.475523
0.7
0.7
0.523298
0.47382
0.47091
0.472408
0.473675
0.474503
0.475106
0.475953
0.478878
0.49199
0.553524
0.7
0.454969
0.453631
0.451521
0.447887
0.450579
0.452289
0.453102
0.453648
0.454082
0.454903
0.456096
0.456898
0.457366
0.457447
0.456885
0.455593
0.453421
0.45037
0.446526
0.441999
0.436962
0.431727
0.42691
0.42381
0.42721
0.45765
0.643686
0.7
0.549521
0.476255
0.470774
0.472158
0.473507
0.474405
0.475066
0.476013
0.479169
0.492863
0.555472
0.7
0.453739
0.451865
0.448512
0.444071
0.447386
0.449854
0.451009
0.451612
0.451951
0.452851
0.454101
0.454813
0.455219
0.455171
0.454565
0.453246
0.451141
0.448199
0.444477
0.440081
0.435159
0.429982
0.425099
0.421592
0.423295
0.444558
0.58202
0.7
0.587381
0.479956
0.470747
0.471904
0.473329
0.4743
0.475019
0.476076
0.479466
0.493737
0.557385
0.7
0.452031
0.448966
0.444697
0.439961
0.443579
0.446572
0.448184
0.449012
0.449437
0.450482
0.451834
0.452536
0.452902
0.452825
0.452186
0.450887
0.448841
0.446016
0.442426
0.438164
0.433365
0.428263
0.423343
0.419527
0.419897
0.435346
0.536516
0.7
0.639909
0.485481
0.470865
0.47165
0.47314
0.474187
0.474986
0.476142
0.479769
0.494614
0.559267
0.7
0.449193
0.445158
0.44054
0.435808
0.439506
0.442781
0.444797
0.445947
0.446576
0.447822
0.449319
0.450072
0.450448
0.450377
0.449757
0.448496
0.446528
0.443815
0.440367
0.436245
0.431574
0.426561
0.421633
0.417587
0.416923
0.428269
0.504302
0.7
0.7
0.493662
0.471285
0.471403
0.472942
0.474067
0.474955
0.476211
0.480078
0.495492
0.56112
0.7
0.445392
0.440968
0.436331
0.431745
0.435395
0.438768
0.441066
0.442534
0.443425
0.444897
0.446573
0.447429
0.447865
0.447836
0.447266
0.446072
0.444194
0.4416
0.438294
0.434321
0.429784
0.424871
0.419959
0.415746
0.414278
0.42255
0.478352
0.7
0.7
0.505622
0.472104
0.471175
0.472735
0.473941
0.474921
0.476282
0.480393
0.496371
0.562945
0.7
0.441185
0.436718
0.432217
0.427836
0.431372
0.434726
0.437181
0.438903
0.440057
0.44175
0.443615
0.444618
0.445157
0.445206
0.444713
0.443608
0.441837
0.439369
0.436207
0.432386
0.427991
0.423188
0.418312
0.413983
0.411887
0.417754
0.45787
0.68199
0.7
0.52295
0.473471
0.47098
0.47252
0.473808
0.474882
0.476355
0.480714
0.49725
0.564745
0.7
0.436915
0.432566
0.428264
0.424107
0.427498
0.430767
0.433279
0.435173
0.436551
0.438437
0.440479
0.441652
0.442329
0.44249
0.442098
0.441102
0.439452
0.437119
0.434104
0.430438
0.426192
0.421508
0.416687
0.412281
0.40969
0.41363
0.442618
0.613236
0.7
0.547826
0.475599
0.470838
0.472299
0.473669
0.47484
0.47643
0.481039
0.49813
0.566521
0.7
0.432743
0.42858
0.424496
0.420562
0.423799
0.426949
0.429453
0.431439
0.432985
0.435018
0.437209
0.438555
0.439391
0.43969
0.439423
0.438552
0.437036
0.434848
0.431986
0.428477
0.424383
0.419829
0.415077
0.410627
0.407649
0.410022
0.431308
0.560347
0.7
0.583285
0.478802
0.470778
0.472075
0.473523
0.474795
0.476507
0.48137
0.49901
0.568276
0.7
0.428741
0.424785
0.42092
0.417198
0.42028
0.423298
0.425752
0.427771
0.429424
0.431555
0.433857
0.435361
0.436358
0.436812
0.43669
0.43596
0.434589
0.432553
0.42985
0.426501
0.422563
0.418145
0.413479
0.409012
0.405735
0.406858
0.42298
0.520706
0.7
0.631335
0.483544
0.470823
0.471849
0.47337
0.474745
0.476586
0.481706
0.499891
0.57001
0.7
0.424932
0.421185
0.417528
0.414005
0.416938
0.41982
0.422203
0.424213
0.425922
0.428102
0.430471
0.432109
0.433258
0.433868
0.433902
0.433325
0.43211
0.430234
0.427694
0.42451
0.42073
0.416454
0.411887
0.40743
0.403927
0.404058
0.416393
0.491752
0.7
0.692144
0.490483
0.471096
0.471627
0.473212
0.474693
0.476667
0.482047
0.500771
0.571725
0.7
0.42132
0.417773
0.414311
0.41097
0.413763
0.416513
0.418813
0.420788
0.422514
0.424702
0.427097
0.428835
0.430118
0.430878
0.431069
0.430653
0.4296
0.427891
0.425519
0.422503
0.418885
0.414755
0.410297
0.405871
0.402205
0.40155
0.41098
0.467596
0.7
0.7
0.500503
0.471672
0.471414
0.473048
0.474638
0.476749
0.482392
0.50165
0.573424
0.7
0.417898
0.414539
0.411256
0.408083
0.410745
0.413369
0.415581
0.417506
0.419222
0.421389
0.423774
0.425576
0.426968
0.427865
0.428206
0.42795
0.427063
0.425523
0.423324
0.420479
0.417026
0.413047
0.408706
0.40433
0.40055
0.39927
0.406391
0.448352
0.672855
0.7
0.514808
0.472657
0.471221
0.472879
0.474579
0.476833
0.482741
0.502529
0.575107
0.7
0.414655
0.411468
0.40835
0.405331
0.407871
0.410377
0.412501
0.414369
0.416056
0.418181
0.42053
0.422364
0.423835
0.424849
0.425331
0.425228
0.424504
0.423135
0.42111
0.418438
0.415153
0.411328
0.407112
0.402802
0.398947
0.397168
0.402414
0.433736
0.608648
0.7
0.535072
0.474206
0.471062
0.472705
0.474517
0.476918
0.483095
0.503408
0.576775
0.7
0.411577
0.40855
0.405582
0.402703
0.405132
0.407527
0.409566
0.411371
0.41302
0.41509
0.417386
0.419223
0.420744
0.421851
0.422459
0.422501
0.421935
0.420732
0.418879
0.416381
0.413266
0.409599
0.405514
0.401282
0.397386
0.395208
0.398906
0.422695
0.558092
0.7
0.563773
0.476536
0.470953
0.472529
0.474453
0.477005
0.483453
0.504286
0.578429
0.7
0.408652
0.40577
0.40294
0.400189
0.402515
0.404808
0.406766
0.408507
0.410111
0.41212
0.414351
0.416172
0.417716
0.418891
0.419604
0.41978
0.419364
0.418322
0.416638
0.414311
0.411366
0.407859
0.403911
0.399767
0.395857
0.393366
0.395799
0.414409
0.519177
0.7
0.6028
0.479974
0.470913
0.472351
0.474385
0.477094
0.483814
0.505164
0.580072
0.7
0.405866
0.403118
0.400414
0.39778
0.400011
0.402209
0.40409
0.40577
0.407326
0.409269
0.41143
0.41322
0.414767
0.415985
0.416783
0.417077
0.416801
0.415913
0.414391
0.412233
0.409456
0.406109
0.402302
0.398256
0.394356
0.391621
0.393033
0.407751
0.49006
0.7
0.652471
0.484974
0.471003
0.472173
0.474315
0.477184
0.484179
0.50604
0.581703
0.7
0.403209
0.400582
0.397994
0.395468
0.397612
0.399721
0.401531
0.40315
0.404657
0.406535
0.408623
0.410372
0.411907
0.413149
0.41401
0.414403
0.414255
0.413512
0.412146
0.41015
0.407538
0.404351
0.400687
0.396747
0.392877
0.389958
0.390546
0.402271
0.466526
0.7
0.7
0.492127
0.471298
0.472
0.474242
0.477276
0.484548
0.506916
0.583325
0.7
0.400669
0.398154
0.395671
0.393246
0.395308
0.397336
0.399078
0.40064
0.402099
0.403911
0.405927
0.407631
0.409143
0.410392
0.411296
0.411769
0.411733
0.411126
0.409909
0.40807
0.405617
0.402587
0.399067
0.395239
0.391415
0.388361
0.388284
0.397622
0.446633
0.692207
0.7
0.502273
0.471859
0.471835
0.474166
0.47737
0.484921
0.507796
0.584936
0.7
0.398236
0.395824
0.393439
0.391106
0.393093
0.395046
0.396725
0.398232
0.399644
0.401394
0.403338
0.404993
0.406475
0.407719
0.408649
0.409185
0.409244
0.40876
0.407684
0.405996
0.403698
0.400821
0.397445
0.393733
0.389967
0.386818
0.3862
0.393591
0.431147
0.627952
0.7
0.516383
0.47278
0.471688
0.474087
0.477465
0.485299
0.508676
0.586548
0.7
0.395903
0.393585
0.391291
0.389042
0.39096
0.392843
0.394463
0.395919
0.397285
0.398975
0.400851
0.402456
0.403903
0.405133
0.406078
0.406659
0.406797
0.406422
0.405477
0.403932
0.401783
0.399057
0.395822
0.392228
0.38853
0.38532
0.38426
0.390024
0.41912
0.575346
0.7
0.536184
0.474191
0.471568
0.474007
0.477563
0.485682
0.509565
0.588156
0.7
0.393661
0.39143
0.38922
0.387051
0.388903
0.390721
0.392286
0.393694
0.395017
0.39665
0.39846
0.400015
0.401425
0.402636
0.403584
0.404197
0.404399
0.404117
0.403291
0.401882
0.399877
0.397296
0.394201
0.390726
0.387105
0.383858
0.382437
0.386842
0.410096
0.53352
0.7
0.563584
0.476274
0.471485
0.473926
0.477662
0.486068
0.510461
0.58975
0.7
0.391503
0.389353
0.38722
0.385126
0.386917
0.388674
0.390188
0.39155
0.392833
0.394411
0.39616
0.397666
0.399038
0.400225
0.401169
0.401803
0.402055
0.401852
0.401132
0.399849
0.397982
0.395543
0.392584
0.389229
0.38569
0.382428
0.380716
0.383993
0.402844
0.501106
0.7
0.59963
0.479303
0.471474
0.473846
0.477763
0.48646
0.511366
0.591331
0.7
0.389423
0.387349
0.385289
0.383264
0.384997
0.386697
0.388164
0.389483
0.390727
0.392254
0.393944
0.395404
0.396736
0.397897
0.398832
0.399479
0.399769
0.399633
0.399006
0.397838
0.396101
0.393798
0.390973
0.387737
0.384285
0.381026
0.379081
0.381429
0.396872
0.476108
0.7
0.644226
0.483632
0.471574
0.473768
0.477866
0.486856
0.512278
0.592898
0.7
0.387415
0.385412
0.38342
0.38146
0.38314
0.384787
0.386208
0.387487
0.388695
0.390174
0.391808
0.393223
0.394517
0.395651
0.396573
0.397225
0.397544
0.397462
0.396916
0.395852
0.394236
0.392063
0.389369
0.386253
0.38289
0.37965
0.37752
0.379103
0.391855
0.454702
0.7
0.696679
0.489714
0.47182
0.473696
0.477972
0.487257
0.513197
0.594453
0.7
0.385476
0.383539
0.381611
0.379713
0.381342
0.382938
0.384316
0.385558
0.386731
0.388164
0.389747
0.391118
0.392376
0.393481
0.394388
0.395041
0.395381
0.395343
0.394866
0.393895
0.39239
0.390341
0.387774
0.384775
0.381506
0.378295
0.376022
0.376972
0.387535
0.436827
0.674656
0.7
0.498156
0.472261
0.473635
0.47808
0.487662
0.514124
0.595996
0.7
0.383601
0.381726
0.379858
0.378018
0.379599
0.381147
0.382485
0.383691
0.384831
0.386222
0.387755
0.389085
0.390308
0.391385
0.392274
0.392925
0.39328
0.393278
0.39286
0.39197
0.390568
0.388634
0.386189
0.383306
0.380131
0.376961
0.374578
0.375001
0.383747
0.422658
0.617235
0.7
0.509684
0.472966
0.473591
0.47819
0.488072
0.515057
0.597529
0.7
0.381785
0.379968
0.378158
0.376373
0.377908
0.379411
0.380711
0.381883
0.382992
0.384342
0.385829
0.38712
0.388309
0.389359
0.39023
0.390875
0.39124
0.391268
0.3909
0.390082
0.388771
0.386945
0.384615
0.381846
0.378766
0.375644
0.37318
0.37316
0.380359
0.411443
0.569334
0.7
0.525601
0.474022
0.473571
0.478304
0.488487
0.515997
0.599052
0.7
0.380026
0.378264
0.376508
0.374775
0.376267
0.377727
0.378991
0.380131
0.38121
0.382522
0.383964
0.385219
0.386375
0.387398
0.388251
0.388889
0.38926
0.389311
0.388986
0.388231
0.387003
0.385276
0.383055
0.380395
0.377411
0.374343
0.37182
0.371429
0.377311
0.402885
0.53043
0.7
0.547367
0.475558
0.473585
0.478421
0.488907
0.516943
0.600565
0.7
0.37832
0.37661
0.374905
0.373221
0.374672
0.376092
0.377322
0.378431
0.379482
0.380757
0.382158
0.383378
0.384502
0.3855
0.386335
0.386963
0.387339
0.387409
0.38712
0.38642
0.385266
0.38363
0.381511
0.378956
0.376065
0.373056
0.370495
0.369792
0.374559
0.395842
0.499544
0.7
0.57594
0.477757
0.473646
0.47854
0.489332
0.517895
0.60207
0.7
0.376664
0.375004
0.373347
0.371711
0.373123
0.374504
0.375701
0.376781
0.377805
0.379045
0.380406
0.381593
0.382688
0.383661
0.384477
0.385097
0.385474
0.385559
0.385301
0.38465
0.383562
0.382009
0.379985
0.377529
0.37473
0.371784
0.369199
0.368237
0.372064
0.389937
0.475139
0.7
0.611416
0.480854
0.47377
0.478661
0.489761
0.518853
0.603567
0.7
0.375056
0.373443
0.371833
0.370241
0.371615
0.37296
0.374125
0.375178
0.376176
0.377384
0.378707
0.379862
0.380928
0.381877
0.382676
0.383286
0.383663
0.383761
0.383529
0.382921
0.381892
0.380414
0.378479
0.376116
0.373407
0.370525
0.367931
0.366754
0.36979
0.384945
0.454628
0.7
0.653275
0.485136
0.473988
0.478776
0.490195
0.519817
0.605056
0.7
0.373494
0.371926
0.370359
0.368811
0.370149
0.371458
0.372594
0.373619
0.374593
0.375769
0.377057
0.378182
0.379221
0.380147
0.380928
0.381528
0.381905
0.382012
0.381804
0.381233
0.380258
0.378848
0.376994
0.37472
0.372096
0.36928
0.366687
0.365333
0.367701
0.38063
0.436651
0.689463
0.7
0.490994
0.474332
0.478917
0.490635
0.520786
0.606538
0.7
0.371975
0.370449
0.368925
0.367418
0.368721
0.369996
0.371104
0.372104
0.373054
0.3742
0.375454
0.37655
0.377563
0.378467
0.379231
0.379821
0.380196
0.380312
0.380124
0.379586
0.378659
0.377312
0.375532
0.373341
0.370798
0.368048
0.365465
0.363966
0.365766
0.37683
0.422031
0.634753
0.7
0.498861
0.474843
0.479082
0.491079
0.52176
0.608014
0.7
0.370497
0.369012
0.367528
0.36606
0.367331
0.368573
0.369653
0.370629
0.371557
0.372674
0.373895
0.374963
0.375951
0.376834
0.377583
0.378162
0.378534
0.378657
0.378487
0.37798
0.377096
0.375805
0.374095
0.37198
0.369515
0.36683
0.364264
0.362646
0.36396
0.373423
0.41024
0.587051
0.7
0.509439
0.475574
0.479264
0.49153
0.52274
0.609484
0.7
0.369058
0.367613
0.366167
0.364737
0.365976
0.367187
0.368241
0.369193
0.370099
0.371189
0.372379
0.373421
0.374385
0.375247
0.37598
0.376549
0.376919
0.377047
0.376893
0.376413
0.375569
0.37433
0.372683
0.37064
0.368249
0.365626
0.363082
0.361367
0.362262
0.370341
0.400979
0.546976
0.7
0.523768
0.476595
0.47947
0.491986
0.523724
0.610948
0.7
0.367658
0.36625
0.364841
0.363446
0.364655
0.365836
0.366864
0.367794
0.36868
0.369743
0.370903
0.37192
0.372861
0.373704
0.374421
0.37498
0.375346
0.37548
0.37534
0.374885
0.374077
0.372886
0.371297
0.369321
0.366999
0.364437
0.361919
0.360125
0.360658
0.367538
0.393453
0.51418
0.7
0.542885
0.478
0.47976
0.492449
0.524713
0.612407
0.7
0.366293
0.364921
0.363547
0.362187
0.363367
0.364519
0.365523
0.366431
0.367296
0.368335
0.369466
0.370459
0.371378
0.372202
0.372904
0.373453
0.373816
0.373954
0.373826
0.373394
0.372619
0.371472
0.369938
0.368025
0.365767
0.363264
0.360774
0.358916
0.359135
0.364983
0.387088
0.487498
0.7
0.567426
0.479918
0.480093
0.492923
0.525707
0.613862
0.7
0.364963
0.363625
0.362285
0.360958
0.36211
0.363235
0.364215
0.365102
0.365948
0.366962
0.368066
0.369035
0.369933
0.370739
0.371427
0.371967
0.372326
0.372467
0.372351
0.371939
0.371195
0.370089
0.368606
0.366751
0.364554
0.362107
0.359647
0.357738
0.357686
0.362646
0.381668
0.465844
0.7
0.597409
0.48251
0.480473
0.493407
0.526703
0.615311
0.7
0.363666
0.362361
0.361053
0.359757
0.360883
0.361982
0.362939
0.363806
0.364633
0.365624
0.366702
0.367648
0.368526
0.369314
0.369988
0.370518
0.370874
0.371018
0.370912
0.37052
0.369804
0.368737
0.367301
0.3655
0.363361
0.360968
0.358538
0.356589
0.356303
0.360499
0.377009
0.446886
0.7
0.632421
0.485975
0.48092
0.493901
0.527702
0.616757
0.7
0.362401
0.361127
0.35985
0.358584
0.359684
0.360758
0.361693
0.362541
0.36335
0.364319
0.365371
0.366296
0.367154
0.367925
0.368586
0.369107
0.369458
0.369605
0.369509
0.369134
0.368446
0.367414
0.366022
0.364272
0.362187
0.359846
0.357448
0.355467
0.35498
0.358516
0.372928
0.430326
0.678006
0.671692
0.490572
0.481463
0.494408
0.528703
0.618199
0.7
0.361166
0.359922
0.358674