/*--------------------------------*- C++ -*----------------------------------*\
| =========                 |                                                 |
| \\      /  F ield         | OpenFOAM: The Open Source CFD Toolbox           |
|  \\    /   O peration     | Version:  1.6.x                                 |
|   \\  /    A nd           | Web:      www.OpenFOAM.org                      |
|    \\/     M anipulation  |                                                 |
\*---------------------------------------------------------------------------*/
FoamFile
{
    version     2.0;
    format      ascii;
    class       volScalarField;
    location    "7000";
    object      k;
}
// * * * * * * * * * * * * * * * * * * * * * * * * * * * * * * * * * * * * * //

dimensions      [0 2 -2 0 0 0 0];

internalField   nonuniform List<scalar> 
4608
(
22.1998
23.0779
11.1637
20.3715
23.1933
10.3693
4.57105
11.4276
17.0487
20.8093
23.302
9.87718
4.32118
3.01107
4.7692
11.3781
14.4604
27.0264
24.708
23.4331
9.42092
4.18965
2.99609
3.02374
4.96443
11.0201
13.1935
24.9805
50.4576
1.17721
5.87741
23.5759
9.00471
4.09252
3.02179
3.06077
5.10901
10.4783
13.2119
21.9625
49.3436
26.1161
1.95236
0.912208
3.51338
23.7278
8.61619
4.02338
3.06951
3.10627
5.20926
9.96733
12.2839
22.1983
45.7868
43.0532
9.5558
3.46426
2.04474
0.914349
2.10844
23.8817
8.26093
3.98264
3.14438
3.15557
5.26776
9.51751
10.1513
19.9474
44.2113
52.7749
22.6322
4.22619
1.28128
3.42343
2.06751
0.907177
0.945082
24.0275
7.94003
3.96902
3.24018
3.20605
5.31447
8.82176
8.69973
15.3194
40.727
58.0477
36.8919
9.30103
2.26772
1.23934
3.39308
2.06576
0.901766
0.408732
24.1506
7.65446
3.98319
3.33984
3.25829
5.31299
7.88406
8.03918
13.0632
33.9679
61.1242
46.693
17.9297
4.90588
1.24894
1.24224
3.41188
2.07479
0.890391
0.0631904
24.2308
7.40453
4.02462
3.45903
3.30586
5.21912
6.99065
7.74387
13.0028
30.4222
60.5615
53.6629
26.5407
10.18
2.6207
0.344345
1.2547
3.44573
2.07195
0.87287
0.0063139
24.2404
7.1923
4.09319
3.59501
3.33891
5.06323
6.19396
8.08963
13.7629
29.9371
60.2154
59.6864
34.6423
16.5773
5.83208
0.879799
0.0490235
1.26263
3.47311
2.05947
0.847458
0.00290672
24.1374
7.01854
4.18927
3.7494
3.35413
4.85523
5.67662
8.31017
15.7983
30.9619
60.1619
64.9061
44.6838
23.3039
10.5454
2.31484
0.162791
0.00538082
1.26787
3.4951
2.0322
0.812898
0.00280863
23.865
6.88308
4.31319
3.92325
3.34605
4.63103
5.01518
7.75203
17.3056
33.7202
60.6704
68.8907
53.543
32.6643
16.0624
4.95663
0.561447
0.0153123
0.00294173
1.26935
3.50671
1.98552
0.768574
0.00279925
23.3451
6.78555
4.4679
4.11863
3.31871
4.40081
4.30152
7.56081
16.8416
36.4437
62.2352
71.4264
60.0281
41.7609
24.3603
8.60075
1.67084
0.0644178
0.00319839
0.00282878
1.26503
3.5058
1.91345
0.715505
0.00277137
22.4485
6.72249
4.66332
4.3382
3.27496
4.13071
3.8415
7.98667
17.2376
37.4116
63.569
73.2489
64.7099
49.0178
33.0681
14.7297
3.67245
0.307183
0.00512936
0.00281505
0.00279662
1.2525
3.48803
1.81034
0.657216
0.00274162
20.9103
6.68493
4.89847
4.58377
3.21185
3.82136
3.6405
9.29232
18.7341
38.8405
64.5195
74.0109
67.9982
54.8393
40.5483
21.8612
7.50988
0.975559
0.025055
0.00282139
0.00279127
0.00276851
1.22726
3.42162
1.67884
0.598356
0.00272059
18.4257
6.66479
5.18817
4.85689
3.12677
3.49895
3.63553
11.119
21.4923
41.0265
66.3382
75.1695
70.117
59.2942
47.0105
28.6266
12.5473
2.95762
0.121382
0.0032576
0.00278368
0.0027718
0.00274125
1.1787
3.26377
1.52935
0.543335
0.00270732
15.8587
6.67325
5.54911
5.16129
3.00845
3.22674
3.73225
12.8185
24.5797
44.1188
68.6554
77.2135
72.4371
62.4554
52.2438
35.0805
17.8505
5.97062
0.691627
0.00739399
0.00278445
0.00277909
0.00275011
0.00272023
1.10003
3.02497
1.3702
0.496612
0.00270041
12.7373
6.75312
5.91585
5.4998
2.87725
2.91416
3.81101
15.1126
27.0774
47.3374
71.1431
79.4972
75.0144
65.6577
56.1175
40.7669
23.4239
9.53954
2.07352
0.0728145
0.0028508
0.00278987
0.00276491
0.00272974
0.00270644
0.99695
2.74646
1.20638
0.462918
0.00269695
9.40427
6.91842
6.33207
5.87802
2.73199
2.51976
4.05395
18.0309
29.9536
50.0468
73.3217
81.7194
77.6269
68.876
59.9072
45.3513
28.7784
13.6945
4.11105
0.402692
0.00486149
0.00280433
0.00278473
0.0027459
0.00271331
0.00269861
0.876293
2.37997
1.05345
0.445092
0.00269519
7.44349
6.82201
6.31308
2.57446
2.21153
4.57708
21.5761
33.2417
52.9792
75.1596
83.5686
80.1178
71.967
63.6457
49.8993
33.4946
18.0705
6.7422
1.15511
0.0334689
0.0028438
0.0028132
0.00276796
0.00272668
0.00270203
0.00269436
0.739991
1.9583
0.921609
0.444875
0.00269421
7.41007
6.81905
2.38207
2.06483
5.49755
25.8793
36.9031
56.0351
77.1404
85.099
82.1568
74.8231
67.1426
54.3489
38.3618
22.2813
9.81691
2.54163
0.160424
0.00344946
0.0028203
0.00279746
0.00274604
0.0027108
0.00269497
0.00269188
0.611678
1.5252
0.81993
0.480296
0.00269361
7.40824
2.14245
2.01657
7.00701
30.9147
41.0303
59.1702
79.1547
86.7247
83.9859
77.2064
70.2846
58.4384
43.1502
26.8426
13.0665
4.37491
0.561218
0.0096956
0.00283321
0.00281343
0.00277178
0.00272486
0.00269935
0.00269055
0.00269024
0.515125
1.14889
0.754851
0.567385
0.0026932
1.89335
2.06253
9.33825
36.3962
45.5697
62.4533
81.1647
88.3088
85.8159
79.3652
72.9324
62.0282
47.5862
31.4527
16.7956
6.50489
1.34126
0.053689
0.0029354
0.00282252
0.00279128
0.00274428
0.00270782
0.00269162
0.00268757
0.00268907
0.461723
0.886536
0.725848
0.686739
0.00269291
1.67512
2.28341
12.6725
42.0172
50.3114
65.8457
83.201
89.8366
87.5459
81.4792
75.3538
65.0954
51.5602
35.8241
20.7463
9.13562
2.52202
0.210734
0.00404629
0.00283626
0.00280716
0.00276248
0.00272048
0.00269553
0.00268639
0.00268541
0.00268818
0.453464
0.761805
0.743355
0.0026927
1.5041
2.80191
17.6571
47.7349
55.0486
69.2431
85.2126
91.3521
89.1812
83.4786
77.7073
67.9492
55.0525
39.8807
24.6369
12.1117
4.10161
0.583468
0.0134558
0.00286655
0.0028282
0.00278044
0.00273439
0.00270246
0.00268706
0.0026827
0.00268379
0.0026875
0.546295
0.74816
0.00269254
1.39477
3.98304
24.0321
53.4407
59.7222
72.571
87.1313
92.7838
90.7319
85.3464
79.9323
70.714
58.3622
43.5828
28.3946
15.2068
6.02667
1.28129
0.0584713
0.0030276
0.00284883
0.002804
0.00275006
0.00271136
0.0026898
0.0026812
0.00268001
0.00268255
0.00268699
0.679284
0.00269242
1.45185
6.27666
31.3245
58.9637
64.2579
75.7545
88.9182
94.0638
92.1223
87.0763
81.9941
73.3127
61.5712
47.1597
31.9671
18.3404
8.18512
2.34628
0.203946
0.00422326
0.00286925
0.00283032
0.00277101
0.00272261
0.00269434
0.00268107
0.00267704
0.00267802
0.00268162
0.00268659
0.00269232
1.69692
10.1254
38.8798
64.1209
68.562
78.7124
90.5288
95.1596
93.3042
88.6134
83.8759
75.6936
64.5783
50.6342
35.5008
21.4536
10.5059
3.64268
0.543944
0.0129096
0.00290548
0.00285588
0.00279649
0.0027382
0.00270105
0.00268237
0.002675
0.00267403
0.00267654
0.00268091
0.00268629
0.00269225
2.37091
16.2822
46.3233
68.7596
72.5219
81.3986
91.9248
96.0586
94.2551
89.9248
85.539
77.8436
67.3234
53.925
38.9692
24.6242
12.9314
5.13038
1.11716
0.053525
0.0030549
0.00287926
0.00282391
0.00275833
0.00271099
0.00268534
0.00267399
0.00267068
0.00267183
0.00267543
0.00268037
0.00268607
0.0026922
3.91136
24.8817
53.3767
72.735
76.0209
83.7747
93.0875
96.7664
95.008
90.9975
86.9635
79.7458
69.8071
56.988
42.3049
27.8002
15.4931
6.78906
1.93884
0.170194
0.00406104
0.0028997
0.00285176
0.00278187
0.00272455
0.00269059
0.00267422
0.00266808
0.00266757
0.0026702
0.00267459
0.00267996
0.00268589
0.00269215
8.70499
34.5639
59.7536
75.9503
78.9448
85.7708
94.0095
97.278
95.5957
91.8617
88.1515
81.3952
72.0255
59.8074
45.488
30.9161
18.139
8.62781
2.92803
0.423109
0.0103629
0.00293241
0.00287641
0.00280796
0.00274145
0.00269842
0.00267598
0.00266634
0.00266384
0.0026653
0.002669
0.00267397
0.00267965
0.00268576
0.00269212
18.4884
44.2817
65.2762
78.3777
81.2059
87.3156
94.6396
97.5802
96.0004
92.5507
89.1327
82.8127
73.9814
62.3679
48.4926
33.9627
20.8061
10.607
4.07345
0.831602
0.0373759
0.00304312
0.00289704
0.00283411
0.00276141
0.00270886
0.0026795
0.00266564
0.00266072
0.00266078
0.00266364
0.00266811
0.00267349
0.00267941
0.00268566
0.0026921
31.5984
53.2752
69.8287
80.027
82.7701
88.3364
94.9668
97.6073
96.2004
93.0506
89.9293
84.0262
75.7109
64.6709
51.2859
36.9167
23.4817
12.6756
5.37295
1.43939
0.110315
0.00360515
0.0029148
0.00285897
0.0027834
0.0027219
0.00268488
0.00266613
0.00265832
0.00265669
0.00265855
0.00266242
0.00266744
0.00267314
0.00267924
0.00268558
0.00269208
44.5137
60.8859
73.3125
80.9257
83.6484
88.7874
94.9348
97.4505
96.1665
93.3408
90.5281
85.039
77.2325
66.7562
53.8589
39.7376
26.1475
14.8157
6.80107
2.1944
0.274263
0.00659802
0.00294229
0.00288249
0.00280661
0.00273725
0.00269217
0.00266789
0.00265671
0.00265309
0.00265377
0.00265693
0.00266152
0.00266694
0.00267287
0.0026791
0.00268553
0.00269206
55.0439
66.7408
75.6967
81.1269
83.8798
88.6708
94.4927
97.0056
95.9306
93.4006
90.9107
85.8354
78.5294
68.6299
56.2283
42.4044
28.7662
17.0119
8.33864
3.05643
0.55194
0.0199461
0.00300471
0.00290429
0.00283078
0.00275464
0.00270134
0.00267097
0.00265596
0.00265004
0.00264934
0.00265166
0.00265574
0.00266085
0.00266658
0.00267268
0.00267901
0.00268545
0.00269168
62.7571
70.8385
77.0503
80.7137
83.5242
88.0309
93.6175
96.2445
95.4523
93.2521
91.0624
86.4044
79.5887
70.2587
58.3957
44.9087
31.3105
19.2345
9.97288
4.02501
0.963199
0.0590049
0.0032356
0.00292254
0.00285508
0.00277405
0.00271236
0.00267543
0.00265614
0.00264758
0.00264529
0.00264664
0.00265013
0.00265487
0.00266036
0.0026663
0.00267253
0.00267882
0.00268328
0.00267519
68.0198
73.4046
77.5133
79.7889
82.6592
86.9351
92.3226
95.1458
94.715
92.8823
91.002
86.7409
80.4102
71.6372
60.3371
47.2398
33.7564
21.4578
11.6836
5.10292
1.50076
0.148322
0.00429552
0.00294235
0.00287834
0.00279518
0.00272532
0.0026813
0.00265727
0.00264576
0.00264165
0.0026419
0.0026447
0.00264901
0.00265423
0.00266
0.00266609
0.00267215
0.00267415
0.00263286
71.3457
74.7308
77.2521
78.4582
81.3737
85.4584
90.6533
93.7017
93.7007
92.2764
90.7292
86.8625
80.9982
72.7742
62.0451
49.3857
36.0798
23.6537
13.4505
6.27947
2.13393
0.313412
0.00904014
0.00297553
0.00289973
0.0028174
0.00274018
0.00268864
0.00265941
0.0026446
0.00263846
0.00263745
0.00263947
0.00264329
0.0026482
0.00265377
0.00265971
0.00266546
0.00266493
0.00259065
73.1881
75.0939
76.4265
76.8191
79.7566
83.6761
88.6735
91.9296
92.3948
91.4183
90.2345
86.779
81.3702
73.679
63.5235
51.34
38.2711
25.7911
15.2499
7.54064
2.845
0.561721
0.0250297
0.00306307
0.00291877
0.00283987
0.00275682
0.00269752
0.0026626
0.00264415
0.00263574
0.00263332
0.00263445
0.00263772
0.00264228
0.00264762
0.00265338
0.00265874
0.00265556
0.0025494
73.9136
74.7272
75.1746
74.9556
77.8901
81.6588
86.4524
89.8701
90.7977
90.2932
89.5039
86.488
81.541
74.3679
64.7791
53.099
40.3253
27.8557
17.0522
8.87127
3.63696
0.914645
0.0634338
0.00335519
0.00293415
0.00286176
0.00277494
0.00270794
0.00266689
0.00264444
0.00263352
0.00262952
0.00262967
0.00263232
0.00263648
0.00264155
0.00264711
0.002652
0.00264605
0.00250952
73.8076
73.818
73.6111
72.9378
75.8453
79.4705
84.0557
87.5777
88.9287
88.8955
88.5224
85.9793
81.5144
74.8573
65.8244
54.6624
42.2351
29.8414
18.8392
10.2498
4.50966
1.35677
0.143333
0.00448147
0.00295401
0.00288236
0.00279416
0.00271987
0.00267234
0.00264551
0.00263182
0.00262608
0.00262514
0.00262709
0.0026308
0.00263558
0.00264089
0.00264523
0.00263617
0.00246984
73.0895
72.5142
71.828
70.8221
73.6822
77.1667
81.5414
85.1109
86.8238
87.2358
87.2818
85.2393
81.2845
75.1553
66.6742
56.0354
43.9934
31.7399
20.602
11.659
5.45191
1.86906
0.280573
0.00879916
0.00298718
0.00290156
0.00281408
0.00273324
0.00267895
0.00264739
0.00263067
0.00262302
0.00262086
0.00262204
0.00262525
0.0026297
0.00263474
0.00263845
0.00262596
0.00242926
71.9289
70.9308
69.8979
68.6529
71.4492
74.7939
78.9589
82.5258
84.5287
85.3394
85.7864
84.2572
80.8399
75.2603
67.3383
57.2278
45.5978
33.5406
22.3319
13.0884
6.4504
2.4374
0.479993
0.0217333
0.00306759
0.00291904
0.00283425
0.00274796
0.00268674
0.00265011
0.00263009
0.00262034
0.00261686
0.00261718
0.00261985
0.00262393
0.00262864
0.00263146
0.00261544
0.00239028
70.4545
69.1563
67.877
66.4645
69.1846
72.3903
76.3485
79.8719
82.0926
83.2435
84.055
83.0315
80.1692
75.164
67.8186
58.2478
47.0507
35.2353
24.018
14.5292
7.49633
3.06069
0.754524
0.0510368
0.00329785
0.00293368
0.00285409
0.00276391
0.00269574
0.00265369
0.0026301
0.00261808
0.00261314
0.00261253
0.00261459
0.00261827
0.0026226
0.00262427
0.00260465
0.00235323
68.764
67.2581
65.8082
64.2822
66.918
69.9859
73.742
77.1905
79.5627
80.9908
82.118
81.5725
79.2665
74.8558
68.11
59.0983
48.3561
36.8197
25.6492
15.9714
8.58311
3.7393
1.09769
0.108985
0.00406043
0.00295053
0.00287295
0.00278085
0.00270593
0.00265816
0.00263073
0.00261624
0.00260971
0.00260809
0.00260949
0.00261272
0.00261661
0.00261706
0.0025936
0.00231782
66.9318
65.2873
63.7233
62.1243
64.671
67.604
71.1643
74.5149
76.9813
78.625
80.0135
79.9021
78.1354
74.3275
68.2034
59.7762
49.5152
38.2924
27.2172
17.4043
9.70304
4.47198
1.49489
0.207387
0.00669026
0.00297691
0.00289067
0.00279846
0.0027173
0.00266355
0.00263199
0.00261483
0.0026066
0.00260388
0.00260456
0.00260729
0.00261069
0.00260988
0.00258233
0.00228375
65.0132
63.2816
61.6459
60.0056
62.4593
65.2611
68.6337
71.8704
74.3837
76.187
77.782
78.0509
76.7895
73.5773
68.0897
60.2739
50.5253
39.6515
28.7159
18.8184
10.8473
5.25233
1.93531
0.352335
0.0143353
0.00303189
0.00290708
0.00281641
0.00272977
0.00266988
0.00263392
0.00261389
0.00260381
0.00259989
0.00259979
0.00260198
0.00260484
0.0026029
0.00257086
0.00225087
63.0496
61.2689
59.5937
57.9378
60.2955
62.969
66.1628
69.2763
71.7986
73.7125
75.4629
76.054
75.2515
72.6117
67.7635
60.5822
51.3799
40.8932
30.1399
20.2056
12.0075
6.07414
2.41575
0.545535
0.0321042
0.00316439
0.00292191
0.00283432
0.00274328
0.00267715
0.00263652
0.00261341
0.00260134
0.00259614
0.00259519
0.00259679
0.00259907
0.00259602
0.00255922
0.00221898
61.0711
59.27
57.581
55.9292
58.19
60.7378
63.76
66.7451
69.248
71.2315
73.092
73.9477
73.5502
71.4457
67.2252
60.693
52.0695
42.0108
31.4837
21.5584
13.1759
6.93242
2.93822
0.797787
0.0663001
0.00353015
0.00293467
0.00285171
0.0027577
0.00268537
0.00263981
0.00261342
0.00259922
0.00259264
0.00259078
0.00259174
0.00259337
0.00258914
0.00254742
0.00218823
59.1004
57.3013
55.6183
53.9856
56.15
58.576
61.4336
64.2857
66.7471
68.768
70.6998
71.7664
71.7172
70.1011
66.4828
60.6021
52.5846
42.9952
32.7401
22.8696
14.3448
7.82198
3.50346
1.0958
0.126947
0.00463512
0.00295332
0.0028681
0.00277282
0.00269452
0.00264382
0.00261393
0.00259745
0.00258939
0.00258655
0.00258682
0.00258776
0.00258226
0.00253546
0.00215777
57.1548
55.3749
53.713
52.1106
54.1798
56.4885
59.1909
61.9085
64.3083
66.3389
68.3117
69.5409
69.7846
68.6041
65.5509
60.3111
52.9177
43.836
33.9001
24.1315
15.5065
8.73664
4.1096
1.4319
0.220531
0.00791067
0.00298398
0.00288354
0.00278838
0.00270457
0.00264855
0.00261495
0.00259605
0.0025864
0.00258252
0.00258204
0.00258222
0.00257536
0.00252336
0.00212804
55.2475
53.5
51.8704
50.3067
52.2823
54.4782
57.0342
59.621
61.9463
63.9602
65.9459
67.2975
67.7822
66.9827
64.4493
59.8274
53.0648
44.5235
34.9532
25.3352
16.6537
9.66993
4.75185
1.80055
0.349557
0.0160946
0.00304737
0.00289776
0.00280409
0.00271548
0.00265402
0.0026165
0.00259502
0.00258368
0.00257868
0.0025774
0.00257678
0.00256845
0.00251114
0.00209907
53.3884
51.6828
50.0938
48.5763
50.4593
52.5466
54.9639
57.4239
59.6699
61.6494
63.621
65.0568
65.7369
65.265
63.2011
59.164
53.0271
45.05
35.8887
26.4708
17.7785
10.6156
5.42576
2.19999
0.518034
0.033008
0.0031907
0.00291043
0.00281964
0.00272716
0.0026602
0.00261859
0.00259437
0.00258124
0.00257504
0.0025729
0.00257141
0.00256154
0.0024988
0.0020708
51.5846
49.9277
48.3863
46.9209
48.7127
50.6945
52.9805
55.3169
57.4787
59.4156
61.3564
62.8406
63.6707
63.4773
61.8312
58.338
52.8105
45.4111
36.6965
27.5276
18.8717
11.5671
6.12767
2.63156
0.731048
0.0638009
0.00355191
0.00292188
0.00283457
0.00273949
0.0026671
0.00262121
0.0025941
0.00257908
0.00257161
0.00256855
0.00256613
0.00255461
0.00248635
0.00204322
49.8407
48.2382
46.7502
45.3426
47.0437
48.9234
51.0837
53.3006
55.3741
57.2586
59.1614
60.6709
61.6095
61.6427
60.3638
57.3694
52.4254
45.6067
37.3688
28.4949
19.9236
12.5171
6.85353
3.0958
0.979183
0.11558
0.00455191
0.0029385
0.00284856
0.00275229
0.00267468
0.00262437
0.00259423
0.0025772
0.00256839
0.00256435
0.00256094
0.00254768
0.0024738
0.00201628
48.1606
46.6172
45.188
43.8447
45.4541
47.2337
49.2744
51.3744
53.3578
55.182
57.0359
58.5564
59.5764
59.7899
58.8225
56.2792
51.8859
45.6407
37.9004
29.3627
20.9237
13.4573
7.59824
3.59154
1.25715
0.193014
0.00726407
0.00296587
0.0028617
0.00276536
0.00268292
0.00262807
0.00259476
0.00257562
0.00256538
0.0025603
0.00255583
0.00254074
0.00246116
0.00198997
46.5474
45.0675
43.7032
42.4327
43.9467
45.6267
47.5521
49.5394
51.43
53.1883
54.9856
56.4982
57.5789
57.9417
57.2349
55.0895
51.2082
45.5205
38.2896
30.123
21.862
14.3791
8.3557
4.11504
1.5608
0.298358
0.0136546
0.0030196
0.00287382
0.00277852
0.00269177
0.0026323
0.00259568
0.00257432
0.00256259
0.0025564
0.00255082
0.0025338
0.00244844
0.00196425
45.0042
43.5928
42.3016
41.1219
42.5271
44.1049
45.9172
47.7939
49.5921
51.2787
53.0135
54.5051
55.6205
56.105
55.6234
53.8248
50.4108
45.2564
38.5378
30.77
22.7295
15.2736
9.11939
4.66231
1.88763
0.432687
0.0265207
0.00313208
0.00288484
0.00279153
0.00270119
0.00263706
0.00259701
0.00257333
0.00256002
0.00255266
0.00254589
0.00252686
0.00243565
0.0019391
43.5349
42.1993
40.9992
39.9293
41.2093
42.6734
44.3713
46.1378
47.8414
49.4547
51.1215
52.581
53.7136
54.2867
53.9979
52.506
49.514
44.8619
38.6492
31.3
23.5178
16.1318
9.88248
5.22952
2.23831
0.603847
0.0492256
0.00338654
0.00289389
0.00280409
0.0027111
0.00264234
0.00259874
0.00257263
0.00255767
0.00254908
0.00254105
0.00251992
0.00242278
0.0019145
42.1455
40.9028
39.8206
38.8288
40.0046
41.3444
42.918
44.5712
46.177
47.7127
49.311
50.7284
51.8626
52.5009
52.3686
51.1464
48.5356
44.3521
38.6315
31.7122
24.2206
16.9453
10.6378
5.81276
2.61282
0.803706
0.0873071
0.00401899
0.00290683
0.00281591
0.0027214
0.00264814
0.00260086
0.00257224
0.00255554
0.00254565
0.0025363
0.00251297
0.00240985
0.00189043
40.852
39.7334
38.7457
37.7635
38.8842
40.1198
41.5616
43.093
44.5956
46.0508
47.5779
48.9485
50.07
50.7547
50.7497
49.7591
47.4904
43.7408
38.4939
32.0086
24.8329
17.7062
11.378
6.40736
3.01065
1.02794
0.144685
0.00565716
0.00292663
0.00282706
0.00273194
0.00265442
0.0026034
0.00257215
0.00255363
0.00254238
0.00253164
0.00250603
0.00239687
0.00186686
39.6868
38.6768
37.7108
36.6943
37.7964
38.9675
40.2906
41.6976
43.0912
44.4654
45.92
47.2375
48.3389
49.0522
49.1504
48.358
46.3934
43.0413
38.2454
32.1928
25.3523
18.4078
12.0955
7.00785
3.42883
1.27247
0.223858
0.00950827
0.00296279
0.00283751
0.00274263
0.00266116
0.00260633
0.00257236
0.00255196
0.00253927
0.00252708
0.00249909
0.00238383
0.00184378
38.6394
37.6655
36.6692
35.6064
36.7072
37.8444
39.0751
40.3699
41.6575
42.9516
44.334
45.5944
46.6675
47.3979
47.5777
46.9541
45.2586
42.2687
37.8962
32.269
25.7779
19.0449
12.7835
7.60837
3.86357
1.5347
0.324647
0.0174459
0.00303304
0.00284721
0.00275333
0.00266836
0.00260966
0.00257287
0.00255051
0.00253632
0.0025226
0.00249216
0.00237075
0.00182118
37.6402
36.6454
35.6031
34.4994
35.6033
36.7238
37.8872
39.0895
40.2833
41.5041
42.8158
44.0172
45.0562
45.7924
46.037
45.5565
44.0973
41.4365
37.459
32.2428
26.1093
19.6133
13.4357
8.20306
4.31106
1.81351
0.452077
0.0316611
0.00317573
0.00285594
0.00276387
0.00267597
0.00261339
0.0025737
0.00254928
0.00253353
0.00251821
0.00248523
0.00235762
0.00179903
36.6315
35.5964
34.5124
33.3802
34.4846
35.5952
36.7103
37.8389
38.9539
40.1131
41.3608
42.5029
43.5039
44.2373
44.5314
44.1721
42.9203
40.556
36.9459
32.1231
26.348
20.1096
14.0464
8.78634
4.76759
2.10862
0.605567
0.0555382
0.00348721
0.00286469
0.00277403
0.00268397
0.00261751
0.00257483
0.00254828
0.00253089
0.00251392
0.0024783
0.00234445
0.00177733
35.5915
34.5186
33.4049
32.2573
33.3569
34.458
35.5369
36.6081
37.6577
38.7664
39.9604
41.0477
42.0086
42.7326
43.0641
42.8063
41.736
39.6384
36.367
31.9191
26.4982
20.5315
14.6105
9.35277
5.22945
2.41927
0.779637
0.0928103
0.00423234
0.00287743
0.00278366
0.00269226
0.00262202
0.00257627
0.00254751
0.00252842
0.00250971
0.00247138
0.00233124
0.00175605
34.5204
33.4203
32.2902
31.1394
32.2282
33.317
34.3665
35.3924
36.3886
37.4545
38.6038
39.6441
40.5674
41.2776
41.6364
41.4638
40.5515
38.6928
35.7329
31.6391
26.5653
20.8793
15.1236
9.89695
5.69255
2.74407
0.970717
0.146013
0.00600055
0.00289816
0.00279286
0.00270078
0.00262692
0.00257802
0.00254698
0.00252611
0.0025056
0.00246447
0.002318
0.00173518
33.4271
32.3121
31.1777
30.0341
31.1065
32.1792
33.2021
34.1909
35.1437
36.1729
37.2831
38.2833
39.1743
39.8702
40.2487
40.1474
39.373
37.7275
35.0526
31.2918
26.5548
21.1545
15.5829
10.4138
6.15242
3.08008
1.17584
0.216393
0.00981522
0.00293558
0.00280165
0.00270948
0.00263219
0.00258008
0.00254667
0.00252395
0.00250157
0.00245756
0.00230473
0.0017147
32.3224
31.2041
30.0758
28.9476
29.9989
31.0516
32.0487
33.0055
33.9221
34.9194
35.9946
36.9592
37.8221
38.5059
38.9001
38.859
38.205
36.75
34.3347
30.885
26.4728
21.3593
15.9869
10.899
6.60446
3.42396
1.39248
0.303523
0.0171336
0.00300514
0.00280997
0.00271826
0.00263784
0.00258246
0.0025466
0.00252196
0.00249764
0.00245066
0.00229144
0.00169462
31.2168
30.1051
28.9913
27.885
28.9112
29.9404
30.9114
31.839
32.7247
33.6934
34.7368
35.6692
36.5062
37.1793
37.588
37.5991
37.0506
35.7659
33.5871
30.4267
26.3251
21.4968
16.335
11.3492
7.04442
3.77238
1.61941
0.411843
0.0295974
0.00313856
0.00281759
0.002727
0.00264386
0.00258516
0.00254676
0.00252013
0.0024938
0.00244377
0.00227812
0.00167491
30.1194
29.0223
27.9294
26.8499
27.8482
28.8509
29.7951
30.6949
31.5529
32.4952
33.5092
34.4125
35.2254
35.8874
36.3085
36.3667
35.9121
34.7798
32.8162
29.9242
26.118
21.5704
16.6273
11.7619
7.46854
4.12225
1.85589
0.539585
0.049834
0.00341067
0.00282553
0.00273552
0.00265022
0.00258819
0.00254717
0.00251846
0.00249005
0.00243689
0.00226477
0.00165556
29.0376
27.9613
26.8943
25.8452
26.8133
27.7874
28.7039
29.5766
30.4087
31.3258
32.3119
33.1888
33.9792
34.6297
35.0602
35.1599
34.79
33.7953
32.0277
29.3842
25.8576
21.584
16.8646
12.135
7.87349
4.47071
2.10097
0.682237
0.0805102
0.00401721
0.00283686
0.00274374
0.00265688
0.00259153
0.00254782
0.00251696
0.00248639
0.00243002
0.00225141
0.00163655
27.9771
26.9264
25.8891
24.8729
25.8094
26.7531
27.6412
28.4869
29.2944
30.1865
31.1455
31.9981
32.7679
33.4067
33.8435
33.9786
33.6843
32.8146
31.2261
28.8126
25.5497
21.5417
17.0485
12.4673
8.25634
4.81489
2.3534
0.836802
0.123412
0.00537349
0.00285466
0.00275175
0.00266381
0.0025952
0.00254871
0.00251563
0.00248283
0.00242316
0.00223802
0.00161789
26.9424
25.9209
24.9157
23.934
24.838
25.7503
26.6095
27.4283
28.2115
29.0788
30.0108
30.8405
31.5912
32.219
32.6597
32.8243
32.5964
31.8393
30.415
28.2145
25.1998
21.4478
17.1808
12.758
8.61451
5.15185
2.61093
1.00063
0.17937
0.00818605
0.00288527
0.00275958
0.00267096
0.00259919
0.00254985
0.00251446
0.00247935
0.00241632
0.00222462
0.00159956
25.9368
24.9469
23.9755
23.0293
23.9003
24.7806
25.6105
26.4024
27.1617
28.0039
28.9089
29.7164
30.4493
31.0665
31.5099
31.6991
31.5287
30.8722
29.5974
27.5942
24.8129
21.3068
17.2639
13.0072
8.94591
5.47876
2.87099
1.17177
0.248039
0.0134572
0.00293917
0.00276717
0.00267829
0.0026035
0.00255125
0.00251346
0.00247598
0.00240948
0.0022112
0.00158154
24.9626
24.0058
23.0693
22.159
22.997
23.8449
24.6454
25.4106
26.146
26.9628
27.8406
28.6264
29.342
29.9492
30.3943
30.6045
30.484
29.9167
28.7773
26.9559
24.3935
21.1227
17.3005
13.2152
9.24896
5.79303
3.13115
1.34839
0.330976
0.0223446
0.00303574
0.00277443
0.00268571
0.00260815
0.0025529
0.00251263
0.00247269
0.00240266
0.00219777
0.00156384
24.0212
23.0986
22.1973
21.3228
22.128
22.9437
23.715
24.4534
25.1651
25.9564
26.8067
27.5708
28.2696
28.8669
29.3132
29.5416
29.4648
28.9763
27.9586
26.3039
23.9461
20.8995
17.2934
13.383
9.52261
6.09241
3.38921
1.52976
0.429584
0.0364036
0.00321504
0.00278117
0.00269313
0.00261313
0.00255482
0.00251198
0.00246948
0.0023958
0.00218434
0.00154643
23.1135
22.2255
21.3595
20.5204
21.2933
22.0771
22.8194
23.5313
24.2194
24.9849
25.8077
26.55
27.2319
27.8194
28.2662
28.5106
28.4726
28.0542
27.1458
25.6431
23.4753
20.6415
17.2455
13.5117
9.76627
6.37512
3.64323
1.71507
0.539659
0.0576981
0.00357498
0.00279038
0.00270042
0.00261841
0.00255699
0.0025115
0.00246636
0.00238894
0.00217083
0.00152932
22.2399
21.3865
20.5553
19.7508
20.4922
21.2447
21.9584
22.6443
23.3089
24.0487
24.8438
25.5643
26.2291
26.8064
27.2531
27.5117
27.5084
27.1527
26.3427
24.9782
22.986
20.3529
17.1601
13.6029
9.97967
6.63967
3.89151
1.90358
0.658456
0.0876641
0.00433381
0.00280343
0.00270761
0.00262397
0.00255943
0.0025112
0.00246332
0.00238207
0.00215728
0.00151249
21.4003
20.5811
19.784
19.0133
19.7241
20.446
21.1318
21.7919
22.4334
23.1475
23.9151
24.6135
25.2611
25.8278
26.2734
26.5445
26.5724
26.2733
25.5521
24.3135
22.4832
20.0383
17.0406
13.6585
10.163
6.88482
4.1324
2.09403
0.783603
0.127146
0.00588098
0.00282401
0.00271476
0.00262978
0.00256214
0.00251108
0.00246036
0.0023752
0.00214375
0.00149594
20.5943
19.8086
19.0448
18.307
18.988
19.6802
20.3388
20.9738
21.5923
22.281
23.0212
23.6977
24.3276
24.8833
25.3268
25.6086
25.6646
25.4169
24.7764
23.6524
21.9711
19.7023
16.8908
13.6808
10.3167
7.10967
4.36428
2.28478
0.913627
0.176085
0.00880532
0.0028581
0.00272188
0.00263583
0.00256511
0.00251114
0.00245749
0.00236832
0.00213023
0.00147965
19.8213
19.0683
18.3369
17.6309
18.2831
18.9464
19.5786
20.1891
20.7851
21.4487
22.1619
22.8163
23.4285
23.9724
24.413
24.7036
24.7849
24.5839
24.0169
22.9979
21.4538
19.3491
16.7146
13.6724
10.4419
7.31367
4.58571
2.47418
1.04681
0.234039
0.0138472
0.00291509
0.00272888
0.00264207
0.00256836
0.00251138
0.0024547
0.00236143
0.00211673
0.00146362
19.0804
18.3592
17.6592
16.9837
17.6082
18.2437
18.8502
19.4369
20.011
20.6499
21.3364
21.9689
22.5632
23.0949
23.5313
23.8293
23.933
23.7744
23.2747
22.3519
20.9345
18.9826
16.5156
13.6362
10.5399
7.49667
4.79551
2.66076
1.182
0.303102
0.021819
0.00301172
0.00273568
0.00264843
0.00257189
0.0025118
0.002452
0.00235454
0.00210325
0.00144784
18.3707
17.6803
17.0105
16.3645
16.9623
17.571
18.1527
18.7162
19.2688
19.8837
20.5442
21.1549
21.7311
22.2501
22.6815
22.985
23.1086
22.9885
22.5503
21.7161
20.4157
18.6063
16.2975
13.5749
10.6122
7.65887
4.99282
2.84329
1.31867
0.382414
0.0339558
0.003181
0.00274242
0.00265485
0.00257568
0.00251241
0.00244938
0.00234765
0.0020898
0.00143231
17.6912
17.0306
16.3898
15.7721
16.3443
16.9272
17.485
18.0261
18.5578
19.1492
19.7843
20.3736
20.9316
21.4375
21.8629
22.1703
22.3113
22.2259
21.8441
21.0914
19.8994
18.2229
16.0634
13.4914
10.6607
7.80077
5.17709
3.02081
1.4563
0.469079
0.0515626
0.00350024
0.0027513
0.0026612
0.00257973
0.0025132
0.00244684
0.00234075
0.00207637
0.00141702
17.0409
16.4088
15.796
15.2053
15.753
16.3111
16.8459
17.3654
17.8769
18.4453
19.0556
19.624
20.164
20.6564
21.075
21.3848
21.5407
21.4866
21.1563
20.4788
19.3872
17.8348
15.816
13.3882
10.6872
7.92307
5.34801
3.19256
1.59453
0.561106
0.0755262
0.00412596
0.00276345
0.0026675
0.00258399
0.00251417
0.00244439
0.00233384
0.00206297
0.00140196
16.4187
15.814
15.2279
14.6631
15.1873
15.7217
16.2344
16.7331
17.2248
17.7711
18.3574
18.9051
19.4273
19.9061
20.3171
20.6279
20.7965
20.7703
20.487
19.8786
18.8803
17.4438
15.5576
13.2679
10.6935
8.0266
5.50544
3.35787
1.73264
0.6568
0.106335
0.00532322
0.00278166
0.0026738
0.00258846
0.00251531
0.00244201
0.00232694
0.00204959
0.00138713
15.8233
15.2449
14.6844
14.1443
14.6461
15.1578
15.6493
16.1279
16.6007
17.1254
17.6884
18.216
18.7206
19.1856
19.5885
19.899
20.0782
20.0768
19.8362
19.2915
18.3796
17.0514
15.2904
13.1324
10.6814
8.1123
5.6494
3.51614
1.86976
0.75517
0.143854
0.00748088
0.00281025
0.00268011
0.00259312
0.00251663
0.00243972
0.00232002
0.00203624
0.00137252
15.2538
14.7006
14.1645
13.648
14.1284
14.6183
15.0895
15.5488
16.0032
16.5072
17.0477
17.5557
18.0429
18.4941
18.8884
19.1976
19.3854
19.406
19.2039
18.7177
17.8859
16.659
15.0161
12.9838
10.6525
8.18116
5.78003
3.66685
2.00499
0.855147
0.187793
0.011081
0.00285561
0.00268638
0.00259794
0.00251812
0.00243751
0.0023131
0.00202292
0.00135812
14.7089
14.1797
13.667
13.1731
13.633
14.1021
14.5539
14.9947
15.4314
15.9154
16.4342
16.9231
17.3933
17.8307
18.2159
18.5228
18.7176
18.7574
18.5902
18.1576
17.4
16.2676
14.736
12.8235
10.6084
8.23417
5.8976
3.80958
2.13758
0.955696
0.23884
0.0166642
0.00292807
0.00269256
0.00260287
0.00251979
0.00243537
0.00230618
0.00200963
0.00134394
14.1877
13.6815
13.191
12.7187
13.1589
13.6082
14.0414
14.4645
14.8841
15.3489
15.8468
16.3171
16.7707
17.1944
17.5702
17.874
18.0742
18.1308
17.995
17.6113
16.9223
15.8782
14.4514
12.6532
10.5503
8.27229
6.00244
3.94406
2.26691
1.05649
0.297777
0.0249336
0.00304596
0.00269848
0.00260786
0.00252163
0.00243331
0.00229925
0.00199637
0.00132996
13.689
13.2047
12.7356
12.2837
12.7053
13.1356
13.551
13.957
14.3603
14.8065
15.2843
15.7368
16.1742
16.5843
16.9505
17.2503
17.4546
17.5258
17.4182
17.0791
16.4534
15.4916
14.1635
12.474
10.4795
8.29644
6.09494
4.07013
2.39251
1.1573
0.36225
0.036833
0.00324732
0.00270525
0.00261281
0.00252361
0.00243131
0.00229231
0.00198314
0.00131618
13.2119
12.7485
12.2997
11.8674
12.2711
12.6833
13.0816
13.4714
13.8589
14.2873
14.7458
15.181
15.6026
15.9994
16.3558
16.6511
16.8582
16.9419
16.8596
16.5611
15.9937
15.1085
13.8732
12.2872
10.3973
8.30749
6.17551
4.18773
2.51404
1.258
0.43073
0.0530421
0.00361121
0.0027141
0.00261765
0.00252572
0.00242938
0.00228536
0.00196995
0.00130259
12.7553
12.3119
11.8824
11.4689
11.8555
12.2504
12.6324
13.0065
13.3789
13.7903
14.2302
14.6487
15.055
15.4387
15.7853
16.0756
16.2842
16.3788
16.3189
16.0575
15.5436
14.7296
13.5815
12.0938
10.3045
8.30626
6.24458
4.29684
2.63124
1.35831
0.501948
0.0739982
0.00427524
0.00272645
0.0026224
0.00252794
0.00242751
0.00227839
0.00195678
0.00128919
12.3183
11.894
11.4831
11.0873