/*--------------------------------*- C++ -*----------------------------------*\
| =========                 |                                                 |
| \\      /  F ield         | OpenFOAM: The Open Source CFD Toolbox           |
|  \\    /   O peration     | Version:  1.6.x                                 |
|   \\  /    A nd           | Web:      www.OpenFOAM.org                      |
|    \\/     M anipulation  |                                                 |
\*---------------------------------------------------------------------------*/
FoamFile
{
    version     2.0;
    format      ascii;
    class       volScalarField;
    location    "7000";
    object      mDotStar;
}
// * * * * * * * * * * * * * * * * * * * * * * * * * * * * * * * * * * * * * //

dimensions      [0 0 0 0 0 0 0];

internalField   nonuniform List<scalar> 
4608
(
185032
191342
95357.1
132462
192876
89427.5
42609.2
93592.2
94789.8
30593.4
194389
87690.1
40861.5
26488.5
43913.6
88682
71722.3
47734.7
25351.1
196059
85825
39772.9
26144.3
26806.9
44973.1
81873
58101.9
45098.9
41972.9
3558.26
8840.38
197821
84050.4
38857.8
26042.2
27249.1
45372
74442.2
50500.2
40149.4
43179.1
23909.7
3968.54
2941.61
6425.09
199658
82340.5
38074.2
26033.7
27683
45232.8
67320.8
46673.4
37033.4
40865.6
32601.7
12687.9
5644.96
3691.87
2937.8
5715.39
201528
80713
37434
26125
28055.1
44642.4
61630.1
31509.2
35139.4
38773.9
36839.2
20290.9
9029.07
3956.83
5548.96
3769.44
2918.59
2866.97
203367
79170.8
36933.2
26304.6
28341.3
43853.7
54278.3
23822.5
28929.3
36621.3
38151.2
27360.7
13971.6
7325.83
3845.06
5519
3754.57
2903.92
3046.32
205081
77707.7
36571.2
26567.7
28548.1
42671.5
46514.6
20075.6
23941.8
33416.7
38258.1
30997.3
19078.4
11240.4
5812.34
3844.48
5543.57
3763.76
2876.14
1620.7
206542
76305.1
36344.3
26925
28633.3
40889.5
39640.1
18108.1
21662.3
30735.6
38020.5
32884.7
22349.4
15793.6
8639.9
3793.51
3867.62
5579.12
3758.11
2834.26
417.451
207567
74947.4
36248.2
27378.5
28542.1
38757.3
34008.1
17191.6
20859.6
29161.8
37788.5
34844.9
24136.9
19159.7
12630.9
5772.86
1636.76
3882.32
5605.24
3742.04
2773.61
95.1073
207880
73598.1
36281
27941.1
28283.4
36412.3
29609.8
16879.1
21240.5
28461.8
37377.4
36240.2
27314
21218.2
16099.2
8926.42
3015.03
418.596
3892.46
5625.88
3708.74
2690.43
38.8387
207100
72194.4
36439.2
28639
27844.4
34002.4
26384.8
15996.4
21538
28613.5
36926.7
36732.5
30217
23783.2
18532.9
12259.1
5339.31
917.678
108.333
3895.41
5637.45
3651.5
2582.19
26.5348
204688
70652.6
36719.8
29504.6
27243.5
31790.6
19803.6
15191.4
20969.3
28869.5
36568.3
36866
31873.5
26049.1
21258.2
14914.8
8301.84
2105.69
213.269
44.5493
3886.25
5638.87
3561.4
2450.15
23.1854
199730
68848.1
37124.6
30494.9
26535.1
29179.9
15731.9
14864.7
20859.8
28812.4
36094.3
36753.5
32731.4
27874.7
23517.9
17949.5
11019.6
4407.31
465.007
68.813
28.6468
3859.2
5597.35
3433.56
2301.93
22.1289
190306
66565.9
37652.7
31581.7
25656.6
26353.1
13413.3
15215.9
21244.2
29024.4
35755.3
36393.7
33073.1
29005.4
25146.7
20425.5
14291.9
6932.09
1294.65
111.816
36.3967
23.9024
3803.46
5503.26
3266.25
2148.64
21.7676
173941
63561.4
38311.9
32856.1
24686.3
23566.7
12048.8
15924.2
22120.6
29448.8
35809.1
36178.5
33089.6
29724.2
26222.9
22197.8
16971.6
10326.9
2918.74
253.908
46.4648
26.8066
22.3456
3693.44
5333.25
3063.86
2001.82
21.6347
156209
59952.6
39124.8
34351.2
23479.6
21041.2
11427.4
16591.2
22964
30052.5
36014.7
36243.2
33254.9
30105.7
27173.9
23498.2
18941.4
13190.9
6170.8
611.972
71.354
30.2456
23.4365
21.8106
3510.81
5082.85
2831.61
1874.4
21.585
133202
56404.5
40138.5
36126.6
22168.3
18883.5
11066.2
17518.6
23544.1
30568.4
36188.2
36381.5
33540.7
30529
27814.8
24472.3
20525
15316
9128.06
2210.34
122.022
36.5204
24.8619
22.1966
21.6262
3265.09
4741.59
2577.51
1781.28
21.565
106642
53012.3
41577.5
38259.2
20846.4
14911.3
10893.3
18723.2
24365.2
30917.1
36200.4
36431.6
33811.2
30959.2
28405.1
25060
21732.5
17131.9
11411
4891.39
411.909
45.9394
27.0587
22.8082
21.7444
21.5607
2968.02
4283.51
2322.51
1732.71
21.5552
50645.7
44290.9
40840.4
19326.1
12231.2
11015.3
20094.5
25257.3
31357.1
36155.2
36382.5
33995.3
31376.2
28938.3
25559.3
22520.2
18591.5
13420.1
7264.17
1401.76
87.7635
29.7755
23.7161
21.9887
21.5841
21.5343
2618.37
3725.77
2088.49
1735.3
21.5498
47640.9
43936.1
17673.7
10501.9
11533.7
21684.1
26175.1
31820
36155.9
36308.5
34057.1
31707
29480
26020.7
23200.3
19643
15089.3
9468.42
3104.76
243.365
37.6831
24.8112
22.3801
21.6693
21.5245
21.5206
2273.36
3110.08
1897.97
1841.42
21.5464
47523.2
15299.9
9345.49
12481
23398.4
27172.1
32265.4
36155.1
36236.5
34095.5
31899.4
29926.7
26713.7
23790.2
20591.5
16383.2
11341.3
5342.11
650.351
62.1605
26.8341
22.8953
21.8292
21.5442
21.4973
21.5117
2001.72
2523.63
1734.6
2090.58
21.5442
12663.4
8631.16
13848.3
25064.2
28208
32697.9
36147.6
36145.5
34125.5
32045.7
30218.1
27296.2
24369.4
21402.9
17585.8
12839.8
7361.98
1696.74
117.934
31.996
23.5733
22.0659
21.601
21.489
21.4808
21.5052
1847.01
2069.54
1656.45
2417.15
21.5426
10345.1
8373.03
15526.5
26549.1
29192.6
33098.9
36127.5
36038
34121.5
32170.3
30444.6
27698.9
24853.6
22081
18630.8
14249.1
9077.56
3330.38
289.971
42.0274
24.9681
22.3548
21.7002
21.4999
21.4584
21.469
21.5003
1825.27
1809.52
1608.77
21.5414
8580.86
8614.98
17593.8
27837.4
30058
33440.7
36070.9
35914.3
34091.4
32263.8
30643.1
28017.2
25198.1
22634.7
19482.2
15500.7
10695.7
5139.67
740.579
66.4308
27.4361
22.8089
21.8287
21.5333
21.447
21.4381
21.4601
21.4966
2102.56
1694.51
21.5405
7356.96
9530.79
20053.4
28928.3
30779.2
33709
35964.1
35758
34032.2
32326.9
30815.5
28309.3
25476.8
23053.9
20178.8
16533.5
12117.4
6905.38
1657.15
125.751
32.3122
23.5778
22.0094
21.5853
21.4483
21.414
21.4233
21.4533
21.4938
2480.27
21.5399
6793.3
11189.5
22472.2
29804.9
31349.5
33885.5
35802
35556.1
33926
32348.7
30953.3
28597.1
25788.2
23406.9
20734.9
17391.9
13309.1
8522.56
3083.92
279.693
42.1922
24.8997
22.2951
21.6621
21.4617
21.3978
21.3911
21.4123
21.4482
21.4917
21.5394
6708.83
13429
24549.8
30435.8
31764.7
33954.3
35578.5
35302.6
33764
32313.1
31039.7
28843.8
26176.5
23741.7
21218.3
18102.8
14322.3
9904.72
4748.61
672.382
63.1944
27.1782
22.7357
21.7832
21.49
21.3899
21.3641
21.3745
21.4042
21.4443
21.4901
21.539
7291.84
16052.5
26200.2
30795.2
32006.6
33913.5
35291.6
34992.8
33545.6
32214.8
31061.1
29024.4
26517.5
24075.5
21651.7
18733.4
15183.2
11064.8
6265.4
1484.71
112.428
31.2539
23.4296
21.963
21.5415
21.392
21.3431
21.3404
21.3624
21.3982
21.4414
21.4889
21.5387
8611.45
19178.8
27401.2
30860.3
32052.2
33755.3
34944.2
34634.6
33274.7
32055.5
31014.3
29128.9
26779.8
24371.8
22040.4
19294.5
15955
12056.1
7616.69
2660.85
243.024
39.1938
24.5185
22.2207
21.6213
21.4078
21.3289
21.3104
21.3233
21.3536
21.3936
21.4392
21.4879
21.5385
11437.2
21907.4
28126.5
30632
31878.7
33466.8
34514.3
34230.2
32959
31845.4
30903.6
29159
26959.7
24611.1
22382.7
19785.4
16645.8
12951.5
8785.49
4029.51
545.794
56.5827
26.2892
22.5855
21.7337
21.4398
21.3236
21.2854
21.2871
21.3108
21.347
21.3903
21.4376
21.4872
21.5383
15622.6
23923.3
28421.2
30154.6
31476.5
33035.6
33999.6
33768.5
32602
31593
30743.4
29122.2
27063
24787.1
22672
20218.1
17252
13760.9
9813.85
5300.42
1143.5
93.1487
29.516
23.1153
21.8856
21.4893
21.3284
21.2662
21.2545
21.2703
21.3018
21.3422
21.3878
21.4364
21.4867
21.5382
19558.4
25288.6
28384.6
29495
30866.7
32448.7
33406.9
33242.5
32199
31299.2
30542.5
29041.5
27099.9
24903.2
22902
20595.5
17789.6
14478.4
10727.7
6491.75
2009.61
179.599
35.4245
23.9397
22.086
21.5581
21.344
21.2538
21.2258
21.2323
21.2581
21.2951
21.3387
21.3859
21.4355
21.4864
21.538
22505.4
26116.6
28104.1
28712.7
30095.5
31704.7
32726
32656
31743.6
30959.6
30299.6
28922.9
27108.4
24968.9
23075.2
20913.1
18268.2
15119.4
11540.6
7556.87
3116.67
367.06
47.223
25.2456
22.3564
21.6477
21.3711
21.2484
21.2018
21.197
21.2162
21.2493
21.2903
21.336
21.3846
21.4348
21.4861
21.5322
24383.7
26488.6
27635.6
27848.7
29213.5
30823.4
31946.4
32006.7
31236.2
30568.8
30009.8
28759.8
27082.7
25054.7
23198.9
21172.9
18686.3
15697.4
12272.6
8500.94
4231.86
751.152
69.6781
27.4633
22.7394
21.762
21.4101
21.2507
21.1825
21.165
21.1764
21.2047
21.2428
21.2868
21.3341
21.3836
21.4348
21.4931
22.017
25385.4
26482.5
27018.6
26931.2
28261.4
29840
31066.8
31289.1
30676.7
30127.9
29668.9
28546.6
27008.4
25116.3
23302.9
21379.6
19045.7
16214.2
12939.4
9327.71
5278.91
1358.73
117.093
31.2051
23.3162
21.9096
21.4619
21.2607
21.1685
21.1363
21.1388
21.1616
21.1964
21.2382
21.2842
21.3328
21.3845
21.4659
22.4607
56.7994
25750.4
26183.7
26289
25982
27269.1
28793.1
30098.7
30497.7
30062.8
29637.8
29278.4
28281.2
26880.1
25126.2
23378.4
21545.7
19348.7
16672.2
13544.9
10074.1
6239.89
2170.31
219.811
38.0347
24.1745
22.1048
21.5285
21.2788
21.1598
21.1112
21.1036
21.1201
21.151
21.1904
21.2348
21.2825
21.3352
21.4454
22.8549
56.1183
25677.2
25672.5
25480.5
25018.8
26258.3
27715.5
29064.2
29633.1
29390.7
29097.7
28840.5
27966.4
26698
25079.9
23412.7
21673.8
19600
17073.1
14092.8
10754.3
7109.4
3099.42
427.91
50.8392
25.5144
22.3625
21.6128
21.3058
21.1567
21.0899
21.0709
21.0804
21.1068
21.1434
21.1861
21.2327
21.2871
21.4298
23.2091
55.4363
25309.8
25015.8
24622.9
24056.5
25245.5
26631.2
27989.3
28703.9
28657.5
28504.8
28355.2
27605.5
26466.1
24979.8
23401.6
21761.9
19805
17417.2
14584.6
11376.3
7889.33
4006.03
794.146
74.594
27.7024
22.7267
21.718
21.3424
21.1596
21.0725
21.0409
21.0425
21.0639
21.0974
21.138
21.1835
21.2406
21.4185
23.5287
54.7671
24747.9
24266.2
23740
23106.5
24243.6
25557
26898.1
27725.3
27864.8
27856.1
27820.5
27199.9
26189
24830.6
23345.9
21808.2
19967.5
17709.7
15018.7
11944.4
8587.97
4873.81
1316.05
121.412
31.3447
23.2505
21.8501
21.3893
21.1687
21.0593
21.0138
21.0065
21.0224
21.0523
21.0907
21.1348
21.1919
21.411
23.8179
54.1175
24064.7
23461.1
22850.3
22177.6
23262.1
24504.6
25810.4
26716
27020
27151.4
27233.6
26748.6
25869.1
24637.4
23248.7
21812.8
20088.5
17956.6
15398.5
12457
9225.12
5680.59
1992.99
213.94
37.7116
24.0156
22.0183
21.4477
21.1843
21.0505
20.9896
20.9726
20.9823
21.0083
21.0441
21.0868
21.1439
21.4066
24.0797
53.4688
23305.5
22628.8
21967.8
21276.2
22308
23481.9
24740.8
25694.1
26134.9
26395.1
26593.4
26249.3
25506.6
24403.4
23114.1
21778.1
20168.5
18161.4
15730.7
12916.2
9805.27
6420.27
2757.88
389.965
48.8578
25.1791
22.234
21.519
21.2068
21.0461
20.9685
20.9409
20.9438
20.9653
20.9984
21.0396
21.0987
21.4049
24.3174
52.8028
22506.3
21789.2
21102.4
20406.4
21386.4
22494.4
23699.6
24675.4
25223.5
25595.7
25902.2
25700.1
25099.7
24129.8
22945.1
21707.6
20209.2
18325.3
16020
13328
10331.9
7090.74
3515.34
682.917
68.4606
26.9928
22.5338
21.6055
21.2365
21.0464
20.9506
20.9114
20.9068
20.9235
20.9535
20.9932
21.056
21.4056
24.5336
52.1604
21691.3
20956.4
20260.9
19570.8
20500.3
21545.5
22693.6
23672.5
24300
24764.3
25166.3
25101.8
24646.6
23815.8
22742.8
21604.3
20213.6
18449.7
16268.9
13697.2
10811.4
7689.69
4246.94
1093.63
104.302
29.8888
22.9509
21.7118
21.274
21.0516
20.9361
20.8842
20.8715
20.883
20.9095
20.9477
21.0154
21.4082
24.7307
51.5474
20876.9
20140
19447.9
18770.8
19651.5
20637
21727.1
22694.8
23377.3
23913.5
24395.2
24458.2
24146.9
23459.6
22506.9
21470.2
20184.7
18537
16478.7
14026.4
11248.6
8234.41
4935.37
1621.8
171.617
34.6876
23.5395
21.8438
21.3199
21.0618
20.9249
20.8594
20.8379
20.8436
20.8665
20.9033
20.9765
21.4126
24.9106
50.9591
20074.6
19346.6
18665.9
18006.4
18840.5
19769.8
20802.4
21748.9
22466.1
23055.4
23599.7
23776.1
23602.4
23060.2
22235.8
21305.4
20124.9
18590
16651.2
14317.2
11647
8734.05
5568.68
2232.93
294.593
42.7861
24.3964
22.0086
21.3753
21.0773
20.9174
20.8372
20.8061
20.8056
20.8245
20.8598
20.9397
21.4185
25.0748
50.3908
19292.1
18580.2
17916.2
17277.6
18067.2
18943.6
19920.4
20838.9
21574.6
22200.4
22791.3
23064.4
23017.7
22618.3
21927.9
21109.1
20035.1
18611
16788.8
14571.4
12009.1
9193.73
6159.2
2865.05
497.564
56.3527
25.6829
22.2246
21.4414
21.0983
20.9135
20.8174
20.7761
20.7689
20.7836
20.8175
20.905
21.4257
25.2249
49.8403
18534.3
17843.1
17199.4
16583.6
17330.8
18157.6
19080.9
19967.2
20708.9
21357.3
21980.1
22333
22399.7
22136.3
21582.7
20880
19915.2
18601.7
16893.8
14791.1
12336.6
9616.74
6690
3481.26
791.425
79.1611
27.6556
22.5188
21.5204
21.125
20.9133
20.8004
20.748
20.7336
20.7437
20.7762
20.8717
21.4339
25.362
49.3045
17804.1
17136.5
16515.3
15923.8
16630.7
17410.5
18282.9
19134.7
19873.1
20533
21175.3
21591.4
21756.2
21619
21200.8
20616.9
19764.3
18562.5
16967.8
14978.2
12631.3
10006.1
7174.16
4077.56
1170.02
119.532
30.7346
22.9207
21.6159
21.1579
20.9171
20.786
20.7219
20.6998
20.705
20.736
20.8397
21.4431
25.4871
48.7859
17103
16460.6
15863.4
15296.9
15965.8
16701.6
17525.3
18341.2
19069.7
19732.2
20383.8
20848.5
21095.9
21072.4
20784.8
20319.6
19581.4
18493
17011.7
15134.2
12894.2
10363.7
7621.72
4639.44
1633.2
190.737
35.7211
23.4791
21.7324
21.1974
20.9249
20.7745
20.6978
20.6674
20.6675
20.697
20.809
21.4531
25.6012
48.2704
16431.6
15815.5
15243.1
14701.9
15334.8
16029.5
16807.6
17586.8
18299.5
18958.3
19611.3
20111.5
20426.9
20503.6
20338.5
19989.3
19365.9
18392.5
17025.8
15260.3
13126.7
10691
8036.64
5165.19
2147.77
311.479
43.7898
24.2803
21.8746
21.2441
20.9368
20.7658
20.6757
20.6366
20.6311
20.6591
20.7795
21.4636
25.705
47.7657
15790.1
15200.7
14653.4
14137.4
14736.4
15392.6
16128.1
16871.7
17564.9
18213.1
18861.4
19386.7
19756.4
19919.5
19867
19628.3
19118
18260.3
17009.5
15356.8
13329.8
10989.4
8421.04
5655.78
2670.4
496.177
56.7292
25.4559
22.061
21.2989
20.9529
20.76
20.6557
20.6073
20.596
20.6225
20.7514
21.4747
25.7994
47.272
15178.3
14615.4
14093.2
13602.5
14169.3
14789.4
15485.2
16194.9
16867.3
17500.5
18136.7
18678.1
19090.7
19327.1
19375.9
19240.2
18839
18096.2
16962.3
15423.7
13504.2
11260
8776.55
6102.59
3185.68
748.473
77.6492
27.2121
22.3086
21.3633
20.9734
20.7572
20.6379
20.5796
20.5622
20.5871
20.7246
21.4862
25.8851
46.7888
14595.4
14058.8
13561.6
13096.2
13632.4
14218.5
14877.5
15554.3
16205.6
16822.6
17442.4
17989.5
18434.5
18732.2
18870.7
18829.3
18531.3
17900.7
16883.6
15460.7
13650.2
11503.7
9104.92
6513.78
3687.33
1067.92
112.932
29.8855
22.6395
21.4396
20.9984
20.7574
20.6222
20.5535
20.5297
20.553
20.699
21.4979
25.9625
46.3156
14040.7
13529.9
13057.7
12618.1
13124.9
13678.9
14303.4
14949.4
15578.6
16178.4
16781
17328.2
17792.4
18140.1
18356.9
18400.1
18198.1
17675.3
16773.7
15467.1
13767.4
11720.6
9407.29
6895.87
4164.15
1451.97
173.06
34.0795
23.0905
21.5304
21.0281
20.7606
20.6088
20.5291
20.4985
20.5203
20.6748
21.51
26.0323
45.852
13513.4
13028.1
12580.9
12168.4
12646.2
13169.7
13762.1
14378.8
14986.7
15566.8
16151.4
16697
17174.9
17555.6
17839.3
17957.5
17843.1
17422.3
16633.1
15442.8
13855.4
11910.5
9684.3
7251.57
4614.62
1878.02
271.243
40.7134
23.7231
21.6392
21.0628
20.7668
20.5976
20.5064
20.4687
20.4877
20.6518
21.5221
26.095
45.3976
13012.7
12552.7
12131.4
11748.4
12196.7
12690.5
13253.2
13842.3
14428.7
14990
15552.9
16094
16584.5
16995.4
17322.9
17506
17470.5
17144.4
16463.4
15387.9
13913.7
12073.2
9936.15
7582.19
5039.48
2317.6
417.739
51.0483
24.6324
21.7767
21.1029
20.7761
20.5886
20.4854
20.4403
20.4561
20.6301
21.5344
26.1511
44.952
12538
12103.7
11710.3
11363.3
11778.1
12241.9
12776.3
13340.1
13906.2
14446.2
14988.9
15519.8
16017.8
16458.7
16817.8
17050.3
17084.4
16845.2
16266.7
15303.3
13942.4
12208.1
10162.8
7888.22
5428.69
2753.85
616.938
67.0619
25.9616
21.9576
21.1493
20.7885
20.5818
20.4661
20.4134
20.4261
20.6097
21.5467
26.2008
44.5148
12089.4
11682
11322
11026.6
11396.1
11826
12333
12872.1
13419.5
13938.9
14457.1
14980.3
15477.1
15940.1
16326.8
16597
16689.3
16528.3
16045.5
15190.2
13941.6
12314.9
10364
8170.12
5787.3
3184.2
867.229
92.8136
27.931
22.1956
21.2035
20.8041
20.5772
20.4484
20.3875
20.3978
20.5905
21.559
26.2447
44.0859
11667.6
11291.6
10978.7
10756.2
11064.9
11449.3
11926.3
12441.9
12969.4
13468.5
13962.9
14471
14972.5
15440.1
15848.5
16149.8
16289.6
16197.7
15803.1
15050.7
13912.1
12393.6
10539.6
8428.18
6119.97
3597.86
1172.34
135.092
30.931
22.5138
21.2669
20.8229
20.5749
20.4323
20.3626
20.3711
20.5725
21.5713
26.2831
43.6648
11276.2
10944
10704.9
10529.5
10795.7
11126.9
11564.7
12053.1
12562.3
13035.9
13506.2
14001.8
14494
14965
15383.5
15710.1
15889.2
15856.9
15542.7
14887.1
13855.2
12444.3
10689.1
8662.47
6429.11
3989.12
1517.67
203.863
35.5706
22.9504
21.3421
20.8452
20.5748
20.4179
20.3389
20.3459
20.5557
21.5835
26.3163
43.2513
10926.5
10666.5
10481
10325.5
10566.4
10859
11256.1
11711.9
12194.7
12640.9
13086.1
13564.6
14045.5
14511.3
14935.5
15279
15490.9
15509.4
15267.4
14702.2
13772.5
12467.7
10812.6
8872.85
6715.6
4364.08
1885.27
307.411
42.7256
23.5633
21.4316
20.871
20.577
20.4053
20.3183
20.3221
20.5401
21.5955
26.3445
42.8452
10646.9
10444.4
10282.3
10131.1
10358.3
10625.6
10987.1
11408.7
11861.6
12279.2
12698.7
13157.1
13623.3
14080.5
14504.3
14858.9
15096.6
15158.5
14979.9
14498.3
13666
12464.7
10910.1
9059.17
6979.46
4709.6
2255.39
451.294
53.4884
24.4419
21.5487
20.9009
20.5815
20.3946
20.2996
20.2999
20.5257
21.6075
26.3681
42.4461
10425.5
10249.5
10093.5
9939.66
10159.8
10411.1
10744.1
11134
11556.9
11947.1
12340.6
12777.2
13226
13671.4
14090.6
14451
14708.2
14806.6
14683.8
14277.8
13537.7
12436.9
10982.1
9221.42
7220.63
5026.54
2623.12
635.135
69.8633
25.7134
21.7017
20.9356
20.5882
20.3858
20.2824
20.2792
20.5124
21.6192
26.3873
42.0539
10232.6
10065
9907.12
9747.95
9964.51
10205.9
10516.9
10879.1
11274.1
11639.8
12008.9
12422.3
12851.9
13283
13694.4
14056.3
14327.5
14456
14381.9
14044
13389.5
12385.5
11029.5
9359.8
7439.23
5318.31
2982.45
861.664
95.526
27.584
21.9028
20.9761
20.5974
20.3788
20.2668
20.2599
20.5003
21.6308
26.4023
41.6684
10050.2
9882.44
9719.83
9554.9
9769.44
10004.4
10298.7
10637.7
11007.5
11351.8
11699.5
12090.2
12499.3
12914.2
13315.3
13675
13955.6
14108.5
14076.5
13799.7
13224
12312
11052.9
9474.67
7635.48
5587.41
3326.01
1127.63
136.743
30.398
22.172
21.0236
20.6091
20.3737
20.2526
20.2421
20.4893
21.6422
26.4134
41.2893
9869.67
9698.49
9530.56
9360.45
9573.51
9803.99
10085.2
10405.2
10752.8
11078.5
11407.7
11777.6
12166.5
12563.9
12952.8
13307.5
13593.5
13765.6
13769.5
13547.1
13043.8
12218.4
11053.3
9566.42
7809.68
5835.19
3652.18
1421.52
200.596
34.6992
22.5409
21.08
20.6234
20.3705
20.24
20.2257
20.4795
21.6533
26.4206
40.9164
9687.44
9512.06
9339.3
9165.04
9376.62
9603.46
9874.17
10178.4
10507
10816.6
11129.8
11480.8
11850.9
12230.9
12606.1
12953.7
13241.8
13428.5
13462.9
13288.7
12851.3
12106.8
11032
9635.53
7962.05
6062.21
3961.61
1729.78
292.554
41.1641
23.0569
21.1473
20.6405
20.3692
20.229
20.2108
20.4707
21.6642
26.4244
40.5495
9502.48
9323.23
9146.61
8969.35
9179.15
9402.66
9664.5
9955.51
10267.8
10563.6
10862.8
11196.8
11549.5
11913
12274.3
12613.2
12900.8
13098.3
13158
13026.2
12648.6
11979.4
10990.6
9682.84
8092.83
6268.55
4245.15
2038.7
415.773
50.6309
23.7885
21.2358
20.6607
20.3699
20.2196
20.1973
20.463
21.6749
26.4247
40.1885
9314.89
9132.58
8953.21
8774.1
8981.71
9201.87
9455.87
9735.49
10033.7
10317.7
10604.6
10923.2
11259.8
11608
11955.9
12285.3
12570.3
12775.5
12856.2
12761.3
12437.7
11838.2
10931
9709.43
8202.44
6454.25
4503.9
2345.24
569.584
64.5962
24.832
21.3514
20.6847
20.3726
20.2117
20.1852
20.4564
21.6853
26.4218
39.8332
9125.29
8940.91
8759.9
8579.97
8784.96
9001.62
9248.42
9517.98
9803.94
10077.6
10353.9
10658.5
10980.2
11313.8
11648.9
11969
12250.2
12460.5
12558.4
12495.6
12220.4
11685.2
10854.8
9716.54
8291.58
6619.59
4740.21
2644.1
756.652
85.7262
26.3399
21.5031
20.713
20.3774
20.2056
20.1746
20.4509
21.6955
26.4158
39.4834
8934.51
8749.06
8567.43
8387.6
8589.57
8802.48
9042.5
9302.92
9577.97
9842.43
10109.4
10401.6
10709.5
11029.3
11352
11662.7
11939.7
12153.2
12265.3
12230.2
11998.3
11522
10763.7
9705.51
8361.09
6765.07
4955.92
2929.16
974.124
118.651
28.5619
21.7045
20.7465
20.3843
20.2011
20.1654
20.4464
21.7055
26.4069
39.1389
8743.42
8557.84
8376.47
8197.55
8396.12
8605.05
8838.54
9090.5
9355.66
9611.78
9870.36
10151.4
10446.8
10753.5
11064.1
11365.5
11637.8
11853.4
11977
11966
11772.8
11350.4
10659.5
9677.67
8411.91
6891.39
5152.35
3199.15
1213.51
168.548
31.8985
21.9775
20.7863
20.3935
20.1983
20.1577
20.4429
21.7151
26.3952
38.7996
8552.84
8367.96
8187.63
8010.27
8205.13
8409.87
8636.99
8880.99
9137.01
9385.42
9636.33
9907.28
10191.3
10485.8
10784.8
11076.8
11343.8
11560.5
11693.9
11703.8
11545.1
11171.8
10543.5
9634.39
8445.04
6999.21
5330.33
3454.91
1465.63
239.362
36.8483
22.3544
20.8341
20.405
20.1973
20.1515
20.4405
21.7246
26.3808
38.4653
8363.51
8180.03
8001.4
7826.16
8017.06
8217.39
8438.27
8674.68
8922.17
9163.3
9407.05
9668.82
9942.39
10225.7
10513.6
10796.2
11057.5
11274.2
11415.5
11443.8
11316.1
10987.5
10417.4
9577.03
8461.52
7089.22
5490.3
3688.76
1719.2
333.469
43.9642
22.8803
20.8948
20.4191
20.198
20.1468
20.4391
21.7337
26.3638
38.136
8176.06
7994.59
7818.19
7645.52
7832.26
8028.03
8242.77
8471.89
8711.3
8945.48
9182.42
9435.7
9699.74
9972.72
10250.2
10523.5
10778.6
10994.2
11142
11186.4
11086.4
10798.6
10282.4
9506.94
8462.46
7162.17
5632.62
3900.81
1970.11
450.84
54.0948
23.6169
20.9744
20.4362
20.2005
20.1437
20.4387
21.7427
26.3444
37.8114
7991.03
7812.07
7638.34
7468.61
7651.02
7842.12
8050.79
8272.87
8504.58
8732.05
8962.44
9207.77
9462.98
9726.41
9994.13
10258.6
10507.2
10720.9
10873.5
10931.7
10856.6
10606.1
10139.8
9425.36
8448.98
7218.89
5757.81
4092.9
2215.85
592.037
68.752
24.6551
21.0779
20.4565
20.2048
20.142
20.4393
21.7514
26.3227
37.4914
7808.86
7632.81
7462.11
7295.6
7473.59
7659.92
7862.62
8077.86
8302.17
8523.13
8747.16
8984.95
9231.91
9486.48
9745.11
10001.1
10243.2
10454.3
10610.3
10680.3
10627.3
10410.7
9990.6
9333.51
8422.18
7260.27
5866.47
4266.74
2451.45
757.527
90.5947
26.1405
21.213
20.4807
20.211
20.142
20.441
21.7598
26.2987
37.176
7629.91
7457.11
7289.7
7126.58
7300.11
7481.65
7678.44
7887.04
8104.24
8318.84
8536.65
8767.24
9006.4
9252.68
9502.83
9750.81
9986.51
10194.5
10352.8
10432.6
10399.1
10213.3
9835.82
9232.48
8383.15
7287.23
5959.41
4423.55
2673.36
942.173
123.345
28.3086
21.3919
20.5093
20.2191
20.1435
20.4436
21.7685
26.2727
36.8649
7454.48
7285.15
7121.21
6961.66
7130.69
7307.44
7498.45
7700.57
7910.88
8119.26
8330.98
8554.64
8786.37
9024.83
9267.02
9507.44
9736.95
9941.52
10101.1
10189.1
10172.7
10014.6
9676.42
9123.35
8332.92
7300.71
6037.47
4564.62
2885.22
1139.39
170.218
31.4971
21.6328
20.543
20.2292
20.1466
20.4473
21.7775
26.2441
36.558
7282.75
7117.06
6956.76
6800.89
6965.42
7137.37
7322.73
7518.57
7722.2
7924.48
8130.22
8347.17
8571.79
8802.81
9037.48
9270.76
9494.31
9695.35
9855.53
9950.26
9948.8
9815.65
9513.39
9007.17
8272.52
7301.6
6101.41
4690.76
3080.55
1342.46
233.385
36.0753
21.9615
20.5849
20.2415
20.1513
20.4521
21.7868
26.213
36.2553
7114.88
6952.97
6796.39
6644.26
6804.33
6971.53
7151.33
7341.08
7538.25
7734.56
7934.42
8144.85
8362.62
8586.54
8814.05
9040.54
9258.37
9455.83
9616.07
9716.35
9727.93
9617.12
9347.71
8884.99
8203.01
7290.83
6152
4802.51
3257.73
1544.13
313.681
42.4587
22.4128
20.6381
20.2562
20.1577
20.4578
21.7965
26.1797
35.9566
6950.97
6792.92
6640.13
6491.77
6647.42
6809.93
6984.31
7168.12
7359.06
7549.53
7743.6
7947.69
8158.84
8375.93
8596.59
8816.59
9028.92
9222.8
9382.71
9487.58
9510.56
9419.76
9180.29
8757.87
8125.43
7269.38
6190.01
4900.42
3417.56
1742.84
410.602
51.2825
23.0323
20.705
20.2736
20.1657
20.4646
21.8064
26.1442
35.6619
6791.08
6636.94
6487.97
6343.38
6494.68
6652.57
6821.67
6999.72
7184.6
7369.38
7557.78
7755.7
7960.43
8170.92
8385
8598.77
8805.77
8996.09
9155.37
9264.06
9297.04
9224.17
9011.98
8626.8
8040.83
7238.23
6216.25
4985.11
3561.51
1936.03
525.293
63.6344
23.887
20.7896
20.294
20.1755
20.4725
21.8166
26.1066
35.3709
6635.25
6485.03
6339.87
6199.05
6346.07
6499.44
6663.38
6835.85
7014.86
7194.08
7376.95
7568.86
7767.34
7971.44
8179.17
8386.92
8588.76
8775.52
8933.94
9045.79
9087.58
9030.83
8843.5
8492.7
7950.22
7198.36
6231.6
5057.24
3690.93
2120.42
656.992
81.4597
25.081
20.8972
20.3178
20.1869
20.4814
21.827
26.0671
35.0837
6483.47
6337.16
6195.8
6058.7
6201.53
6350.47
6509.42
6676.47
6849.81
7023.59
7201.03
7387.13
7579.55
7777.44
7979.01
8180.93
8377.73
8560.96
8718.28
8832.76
8882.34
8840.12
8675.46
8356.38
7854.55
7150.73
6236.96
5117.67
3806.83
2293.83
802.012
107.264
26.7835
21.0359
20.3454
20.2001
20.4914
21.8376
26.0256
34.8001
6335.71
6193.28
6055.69
5922.26
6061
6205.61
6359.71
6521.53
6689.37
6857.87
7030.01
7210.42
7396.97
7588.87
7784.44
7980.69
8172.56
8352.24
8508.29
8624.89
8681.38
8652.29
8508.35
8218.57
7754.67
7096.27
6233.2
5167.25
3910.48
2459.64
955.876
143.209
29.2317
21.2181
20.3775
20.2149
20.5024
21.8483
25.9823
34.5201
6191.95
6053.35
5919.46
5789.67
5924.41
6064.8
6214.19
6370.94
6533.48
6696.84
6863.81
7038.7
7219.53
7405.61
7595.38
7786.09
7973.12
8149.23
8303.82
8422.13
8484.72
8467.53
8342.57
8079.86
7651.36
7035.81
6221.17
5206.78
4002.76
2612.14
1114.4
190.731
32.6872
21.4608
20.4152
20.2314
20.5145
21.8592
25.9372
34.2435
6052.11
5917.29
5787.06
5660.84
5791.67
5927.95
6072.78
6224.63
6382.04
6540.41
6702.35
6871.87
7047.16
7227.57
7411.72
7597.04
7779.29
7951.83
8104.78
8224.38
8292.37
8285.96
8178.42
7940.75
7545.31
6970.15
6201.66
5237
4084.35
2750.77
1272.21
250.393
37.4225
21.7862
20.4596
20.2494
20.5276
21.8702
25.8905
33.9703
5916.14
5785.04
5658.4
5535.68
5662.71
5794.98
5935.39
6082.51
6234.96
6388.5
6545.54
6709.85
6879.75
7054.67
7233.33
7413.41
7590.98
7759.9
7911.06
8031.57
8104.3
8107.66
8016.12
7801.66
7437.08
6900
6175.44
5258.63
4155.82
2875.99
1427.62
322.012
43.7927
22.2224
20.5131
20.2683
20.5418
21.8813
25.8422
33.7004
5783.96
5656.51
5533.4
5414.11
5537.43
5665.81
5801.94
5944.48
6092.15
6240.99
6393.28
6552.54
6717.22
6886.79
7060.12
7235.07
7408.05
7573.36
7722.54
7843.63
7920.49
7932.69
7855.85
7662.92
7327.2
6825.99
6143.2
5272.34
4217.75
2988.86
1579.63
405.804
52.3763
22.8075
20.578
20.2909
20.5569
21.8924
25.7923
33.4338
5655.51
5531.63
5411.97
5296.04
5415.75
5540.34
5672.32
5810.44
5953.49
6097.78
6245.46
6399.83
6559.44
6723.84
6891.99
7061.93
7230.37
7392.07
7539.16
7660.47
7740.89
7761.08
7697.75
7524.8
7216.07
6748.68
6105.6
5278.78
4270.72
3090.52
1725.86
502.295
64.1811
23.5985
20.6572
20.3166
20.5731
21.9035
25.741
33.1703
5530.69
5410.32
5294.04
5181.39
5297.58
5418.48
5546.45
5680.29
5818.88
5958.77
6101.97
6251.6
6406.31
6565.7
6728.81
6893.87
7057.85
7215.92
7360.8
7482.05
7565.49
7592.87
7541.93
7387.52
7104.05
6668.54
6063.21
5278.57
4315.36
3181.84
1864.43
609.545
80.7635
24.6851
20.755
20.3449
20.5902
21.9147
25.6882
32.9098
5409.43
5292.48
5179.5
5070.06
5182.83
5300.15
5424.23
5553.94
5688.22
5823.84
5962.7
6107.75
6257.71
6412.24
6570.46
6730.76
6890.36
7044.8
7187.34
7308.27
7394.27
7428.06
7388.48
7251.27
6991.44
6586.01
6016.56
5272.3
4352.32
3263.78
1996.98
724.785
103.742
26.2057
20.8777
20.3761
20.6083
21.9258
25.634
32.6523
5291.65
5178.04
5068.29
4961.98
5071.43
5185.26
5305.56
5431.27
5561.39
5692.88
5827.54
5968.14
6113.52
6263.33
6416.82
6572.48
6727.78
6878.6
7018.71
7139.05
7227.16
7266.69
7237.48
7116.22
6878.52
6501.45
5966.09
5260.51
4382.2
3337.22
2121.22
845.168
134.384
28.3367
21.0342
20.415
20.6274
21.9369
25.5785
32.3977
5177.26
5066.92
4960.32
4857.05
4963.26
5073.71
5190.35
5312.2
5438.29
5565.78
5696.37
5832.68
5973.61
6118.87
6267.75
6418.9
6569.99
6717.22
6854.8
6974.33
7064.12
7108.75
7089.02
6982.51
6765.51
6415.19
5912.23
5243.65
4405.54
3402.81
2235.57
967.798
173.39
31.2658
21.2363
20.4582
20.6478
21.9478
25.5217
32.1459
5066.18
4959.02
4855.48
4755.18
4858.26
4965.41
5078.51
5196.62
5318.82
5442.44
5569.08
5701.23
5837.86
5978.71
6123.13
6269.9
6416.86
6560.52
6695.52
6814.03
6905.11
6954.23
6943.13
6850.29
6652.61
6327.52
5855.33
5222.17
4422.82
3461.03
2339.96
1089.58
221.021
35.1853
21.4991
20.5058
20.6693
21.9585
25.4636
31.897
4958.32
4854.25
4753.7
4656.28
4756.32
4860.28
4969.94
5084.43
5202.88
5322.75
5445.56
5573.69
5706.16
5842.74
5982.84
6125.34
6268.26
6408.39
6540.76
6658.07
6750.1
6803.14
6799.87
6719.64
6540.03
6238.69
5795.72
5196.46
4434.44
3512.27
2434.77
1209.78
277.105
40.3417
21.8414
20.5593
20.6921
21.9688
25.4043
31.6507
4853.59
4752.54
4654.88
4560.27
4657.35
4758.22
4864.55
4975.55
5090.36
5206.59
5325.7
5449.94
5578.38
5710.82
5846.74
5985.1
6124.08
6260.71
6390.41
6506.37
6599.02
6655.48
6659.28
6590.67
6427.93
6148.97
5733.73
5166.87
4440.79
3556.91
2520.69
1327.43
342.088
47.1167
22.2883
20.6208
20.7161
21.9788
25.3439
31.4072
4751.92
4653.79
4558.95
4467.04
4561.28
4659.14
4762.26
4869.86
4981.16
5093.88
5209.4
5329.86
5454.41
5582.85
5714.71
5849.05
5984.18
6117.37
6244.36
6358.84
6451.83
6511.22
6521.4
6463.49
6316.45
6058.55
5669.63
5133.75
4442.23
3595.31
2598.49
1440.94
416.087
56.1755
22.876
20.6924
20.7412
21.9884
25.2822
31.1662
4653.19
4557.91
4465.79
4376.5
4467.99
4562.96
4662.95
4767.28
4875.18
4984.51
5096.55
5213.36
5334.13
5458.7
5586.63
5717.06
5848.44
5978.24
6102.51
6215.38
6308.47
6370.36
6386.27
6338.18
6205.74
5967.64
5603.67
5097.4
4439.12
3627.85
2668.74
1549.03
497.856
68.5065
23.6613
20.7767
20.7677
21.9976
25.2195
30.9277
4557.34
4464.81
4375.32
4288.55
4377.39
4469.57
4566.56
4667.72
4772.34
4878.37
4987.04
5100.32
5217.44
5338.26
5462.38
5589.01
5716.73
5843.2
5964.75
6075.92
6168.87
6232.86
6253.9
6214.81
6095.95
5876.42
5536.1
5058.1
4431.77
3654.93
2732.12
1653.26
585.643
85.1898
24.7318
20.8763
20.7954
22.0063
25.1556
30.6918
4464.27
4374.38
4287.44
4203.13
4289.4
4378.88
4472.97
4571.08
4672.53
4775.37
4880.78
4990.64
5104.22
5221.41
5341.84
5464.79
5588.94
5712.13
5830.97
5940.36
6032.96
6098.69
6124.31
6093.46
5987.19
5785.09
5467.13
5016.11
4420.5
3676.94
2789.24
1751.37
677.629
107.146
26.2055
20.9948
20.8235
22.0145
25.0907
30.4582
4373.87
4286.55
4202.07
4120.12
4203.93
4290.8
4382.09
4477.27
4575.66
4675.42
4777.67
4884.21
4994.37
5108.04
5224.9
5344.27
5464.94
5584.93
5701.06
5808.6
5900.68
5967.83
5997.52
5974.18
5879.58
5693.8
5397
4971.69
4405.59
3694.2
2840.57
1842.34
771.934
134.946
28.2161
21.137
20.8542
22.0223
25.0248
30.2271
4286.06
4201.22
4119.12
4039.47
4120.88
4205.24
4293.84
4386.18
4481.63