/*--------------------------------*- C++ -*----------------------------------*\
| =========                 |                                                 |
| \\      /  F ield         | OpenFOAM: The Open Source CFD Toolbox           |
|  \\    /   O peration     | Version:  1.6.x                                 |
|   \\  /    A nd           | Web:      www.OpenFOAM.org                      |
|    \\/     M anipulation  |                                                 |
\*---------------------------------------------------------------------------*/
FoamFile
{
    version     2.0;
    format      ascii;
    class       volScalarField;
    location    "7000";
    object      N2;
}
// * * * * * * * * * * * * * * * * * * * * * * * * * * * * * * * * * * * * * //

dimensions      [0 0 0 0 0 0 0];

internalField   nonuniform List<scalar> 
4608
(
0.647306
0.6473
0.647301
0.650251
0.6473
0.6473
0.6473
0.647459
0.651362
0.663694
0.6473
0.6473
0.6473
0.6473
0.64731
0.647662
0.651922
0.661908
0.695965
0.6473
0.6473
0.6473
0.6473
0.647301
0.647331
0.647877
0.652252
0.660469
0.685767
0.741248
0.733368
0.6473
0.6473
0.6473
0.6473
0.647304
0.647362
0.648096
0.652581
0.659498
0.68087
0.715996
0.741884
0.741994
0.742628
0.6473
0.6473
0.6473
0.6473
0.647309
0.647403
0.648321
0.652721
0.659538
0.677622
0.706297
0.736098
0.742014
0.741999
0.742
0.750476
0.6473
0.6473
0.6473
0.6473
0.647317
0.647456
0.648541
0.652545
0.658201
0.676067
0.70027
0.727988
0.748715
0.742108
0.742
0.742
0.742
0.760317
0.6473
0.6473
0.6473
0.6473
0.647329
0.647518
0.648703
0.652277
0.656465
0.67314
0.697362
0.721214
0.744568
0.757028
0.742001
0.742
0.742
0.742
0.765355
0.6473
0.6473
0.6473
0.6473
0.647346
0.647585
0.648817
0.652147
0.655977
0.669471
0.693439
0.717281
0.739465
0.753308
0.762012
0.742
0.742
0.742
0.742
0.768745
0.6473
0.6473
0.6473
0.6473
0.647367
0.647651
0.648909
0.652157
0.656113
0.667821
0.688037
0.712624
0.735447
0.74875
0.758697
0.766447
0.742
0.742
0.742
0.742
0.769852
0.6473
0.6473
0.6473
0.6473
0.647393
0.647715
0.648989
0.652412
0.6564
0.667318
0.685026
0.706441
0.730567
0.744894
0.754733
0.764066
0.769045
0.742
0.742
0.742
0.742
0.769988
0.6473
0.6473
0.6473
0.6473
0.647423
0.647776
0.649077
0.65248
0.657081
0.667238
0.683697
0.702449
0.723888
0.740218
0.751037
0.761059
0.767782
0.769888
0.742
0.742
0.742
0.742
0.769998
0.6473
0.6473
0.6473
0.6473
0.647455
0.647836
0.649161
0.652285
0.657162
0.667639
0.682992
0.700226
0.71908
0.733698
0.746713
0.757901
0.765845
0.769598
0.76999
0.742
0.742
0.742
0.742
0.769999
0.6473
0.6473
0.6473
0.6473
0.647491
0.647895
0.649213
0.652349
0.656551
0.667681
0.682877
0.698715
0.715967
0.728779
0.740749
0.754238
0.763401
0.768886
0.769964
0.769998
0.742
0.742
0.742
0.742
0.77
0.6473
0.6473
0.6473
0.6473
0.647528
0.647947
0.649254
0.652664
0.656576
0.667004
0.682502
0.697855
0.713599
0.725323
0.735878
0.74899
0.760414
0.76745
0.769881
0.769995
0.769999
0.742
0.742
0.742
0.742
0.77
0.6473
0.6473
0.6473
0.6473
0.647566
0.647993
0.649316
0.653259
0.657037
0.666705
0.681436
0.696949
0.711975
0.722488
0.732188
0.744495
0.756153
0.765288
0.769541
0.769989
0.769998
0.77
0.742
0.742
0.742
0.742
0.77
0.6473
0.6473
0.6473
0.6473
0.647604
0.648038
0.649438
0.653893
0.657856
0.666817
0.68072
0.695521
0.710517
0.720421
0.729078
0.740886
0.752226
0.762048
0.768626
0.769966
0.769998
0.769999
0.77
0.742
0.742
0.742
0.742
0.77
0.6473
0.6473
0.6473
0.6473
0.647642
0.648084
0.649561
0.65437
0.658605
0.667291
0.6804
0.694388
0.708679
0.718586
0.726682
0.737675
0.74892
0.758828
0.766493
0.769852
0.769996
0.769999
0.77
0.77
0.742
0.742
0.742
0.742
0.77
0.6473
0.6473
0.6473
0.6473
0.647679
0.648132
0.649682
0.654972
0.659066
0.667799
0.680422
0.693622
0.707124
0.716424
0.724574
0.735031
0.745794
0.755923
0.763992
0.769183
0.769989
0.769999
0.77
0.77
0.77
0.742
0.742
0.742
0.742
0.77
0.6473
0.6473
0.6473
0.6473
0.647716
0.64818
0.649916
0.655705
0.659689
0.668124
0.680508
0.693173
0.70594
0.714602
0.722236
0.732648
0.743102
0.753109
0.761568
0.767721
0.769936
0.769998
0.77
0.77
0.77
0.77
0.742
0.742
0.742
0.742
0.77
0.6473
0.6473
0.6473
0.647752
0.648231
0.65026
0.656567
0.660422
0.668531
0.680459
0.692826
0.705062
0.713175
0.720208
0.730088
0.740614
0.750538
0.759185
0.765911
0.769615
0.769995
0.769999
0.77
0.77
0.77
0.77
0.742
0.742
0.742
0.742
0.77
0.6473
0.6473
0.647786
0.648294
0.650736
0.65759
0.661259
0.669011
0.680515
0.692405
0.704317
0.712053
0.718577
0.727835
0.737964
0.748078
0.756896
0.763973
0.768819
0.769978
0.769999
0.77
0.77
0.77
0.77
0.77
0.742
0.742
0.742
0.742
0.77
0.6473
0.647819
0.648383
0.651399
0.658785
0.662239
0.66957
0.680663
0.692095
0.703545
0.711072
0.717251
0.725959
0.735598
0.745442
0.754663
0.762045
0.767522
0.769884
0.769997
0.769999
0.77
0.77
0.77
0.77
0.77
0.742
0.742
0.742
0.742
0.77
0.647855
0.648528
0.652298
0.660122
0.66336
0.670244
0.680894
0.691898
0.702888
0.710082
0.716086
0.724378
0.733554
0.743063
0.752237
0.760139
0.766022
0.76952
0.769993
0.769999
0.77
0.77
0.77
0.77
0.77
0.77
0.742
0.742
0.742
0.742
0.77
0.647896
0.648769
0.653452
0.66157
0.664594
0.671039
0.681239
0.691798
0.70236
0.70922
0.714943
0.722973
0.73177
0.74097
0.749955
0.758072
0.764458
0.768764
0.769972
0.769999
0.77
0.77
0.77
0.77
0.77
0.77
0.77
0.742
0.742
0.742
0.77
0.647952
0.649169
0.654861
0.663134
0.665924
0.671941
0.681701
0.691817
0.701945
0.708499
0.713927
0.721615
0.730159
0.739091
0.747908
0.756048
0.76277
0.767681
0.769867
0.769998
0.77
0.77
0.77
0.77
0.77
0.77
0.77
0.77
0.742
0.742
0.77
0.648037
0.649835
0.656506
0.664809
0.667351
0.672945
0.68226
0.691952
0.701654
0.707899
0.713058
0.720397
0.728616
0.737364
0.746025
0.754155
0.761076
0.766389
0.769543
0.769994
0.77
0.77
0.77
0.77
0.77
0.77
0.77
0.77
0.77
0.742
0.77
0.648185
0.650878
0.658361
0.666594
0.668866
0.674045
0.682911
0.692186
0.701483
0.707427
0.712316
0.719336
0.727216
0.735707
0.744265
0.752366
0.759425
0.765021
0.76889
0.769975
0.769999
0.77
0.77
0.77
0.77
0.77
0.77
0.77
0.77
0.77
0.77
0.648469
0.652375
0.660389
0.668488
0.670471
0.67523
0.683651
0.692508
0.701413
0.707075
0.711702
0.718407
0.725968
0.734184
0.742563
0.75065
0.757824
0.763653
0.767955
0.769888
0.769998
0.77
0.77
0.77
0.77
0.77
0.77
0.77
0.77
0.77
0.77
0.77
0.649029
0.654362
0.662586
0.670498
0.67217
0.676497
0.684471
0.692918
0.701435
0.706828
0.711209
0.717607
0.72485
0.732794
0.740983
0.748966
0.756262
0.762304
0.766901
0.76962
0.769995
0.77
0.77
0.77
0.77
0.77
0.77
0.77
0.77
0.77
0.77
0.77
0.77
0.650128
0.656779
0.664972
0.672632
0.673964
0.677851
0.685365
0.693408
0.701546
0.706675
0.710823
0.71693
0.723862
0.731523
0.739524
0.747389
0.754718
0.760957
0.765806
0.769108
0.769981
0.769999
0.77
0.77
0.77
0.77
0.77
0.77
0.77
0.77
0.77
0.77
0.77
0.77
0.652209
0.659596
0.66756
0.674896
0.675861
0.679289
0.686333
0.693974
0.701742
0.706615
0.710535
0.716362
0.722998
0.730372
0.738166
0.745921
0.753234
0.759605
0.764692
0.768381
0.769922
0.769999
0.77
0.77
0.77
0.77
0.77
0.77
0.77
0.77
0.77
0.77
0.77
0.77
0.77
0.655428
0.662786
0.670338
0.67728
0.677867
0.680815
0.68737
0.694609
0.702015
0.706643
0.710345
0.715897
0.722246
0.729342
0.736911
0.744536
0.751818
0.75828
0.763573
0.767543
0.769745
0.769996
0.77
0.77
0.77
0.77
0.77
0.77
0.77
0.77
0.77
0.77
0.77
0.77
0.77
0.77
0.659422
0.666245
0.673256
0.679754
0.679979
0.68243
0.688477
0.695308
0.702359
0.706751
0.710247
0.715537
0.721603
0.728424
0.735764
0.743234
0.750459
0.756992
0.762452
0.76665
0.769395
0.769989
0.769999
0.77
0.77
0.77
0.77
0.77
0.77
0.77
0.77
0.77
0.77
0.77
0.77
0.77
0.77
0.663662
0.669818
0.67624
0.682274
0.682179
0.684138
0.689651
0.696065
0.702765
0.706931
0.710231
0.715272
0.721069
0.727616
0.73472
0.74202
0.749162
0.755738
0.761336
0.765734
0.768858
0.76996
0.769999
0.77
0.77
0.77
0.77
0.77
0.77
0.77
0.77
0.77
0.77
0.77
0.77
0.77
0.77
0.77
0.667825
0.673365
0.679222
0.6848
0.684438
0.685932
0.690896
0.696878
0.703225
0.707173
0.710288
0.715092
0.720635
0.726915
0.733781
0.740897
0.747934
0.754522
0.760233
0.764815
0.768201
0.769866
0.769998
0.77
0.77
0.77
0.77
0.77
0.77
0.77
0.77
0.77
0.77
0.77
0.77
0.77
0.77
0.77
0.77
0.671788
0.676804
0.682147
0.687296
0.686722
0.6878
0.692213
0.69775
0.703735
0.707469
0.71041
0.714988
0.720287
0.726312
0.732942
0.739869
0.746779
0.753351
0.759146
0.763897
0.767489
0.769657
0.769995
0.77
0.77
0.77
0.77
0.77
0.77
0.77
0.77
0.77
0.77
0.77
0.77
0.77
0.77
0.77
0.77
0.77
0.675523
0.680096
0.684982
0.689738
0.689003
0.689723
0.6936
0.698682
0.704297
0.707814
0.710586
0.71495
0.720017
0.725797
0.732192
0.738932
0.745707
0.752226
0.758081
0.762974
0.766749
0.769305
0.769984
0.769999
0.77
0.77
0.77
0.77
0.77
0.77
0.77
0.77
0.77
0.77
0.77
0.77
0.77
0.77
0.77
0.77
0.679032
0.683224
0.68771
0.692111
0.691256
0.691677
0.69505
0.699677
0.704914
0.70821
0.710813
0.714968
0.719814
0.725359
0.731525
0.738076
0.744714
0.751157
0.757043
0.762053
0.765994
0.768829
0.769947
0.769999
0.77
0.77
0.77
0.77
0.77
0.77
0.77
0.77
0.77
0.77
0.77
0.77
0.77
0.77
0.77
0.77
0.682325
0.686189
0.690324
0.694407
0.693464
0.693641
0.696552
0.700735
0.70559
0.708659
0.71109
0.715037
0.71967
0.724991
0.730933
0.737293
0.743791
0.75015
0.756038
0.76114
0.765237
0.768278
0.769849
0.769998
0.77
0.77
0.77
0.77
0.77
0.77
0.77
0.77
0.77
0.77
0.77
0.77
0.77
0.77
0.77
0.77
0.685418
0.688995
0.692822
0.696621
0.695617
0.695598
0.698093
0.70185
0.706324
0.709164
0.711419
0.715157
0.71958
0.724685
0.730411
0.736578
0.74293
0.7492
0.755075
0.760242
0.764478
0.767688
0.76966
0.769994
0.77
0.77
0.77
0.77
0.77
0.77
0.77
0.77
0.77
0.77
0.77
0.77
0.77
0.77
0.77
0.77
0.688326
0.691652
0.695208
0.698753
0.697708
0.697531
0.699659
0.703016
0.707117
0.709727
0.711803
0.715328
0.71954
0.724433
0.729951
0.735928
0.742128
0.7483
0.754152
0.759364
0.763717
0.767078
0.769362
0.769984
0.769999
0.77
0.77
0.77
0.77
0.77
0.77
0.77
0.77
0.77
0.77
0.77
0.77
0.77
0.77
0.77
0.691066
0.69417
0.697486
0.700805
0.699734
0.699431
0.701238
0.704225
0.707967
0.710348
0.712244
0.715553
0.719552
0.724235
0.729547
0.735338
0.741384
0.747448
0.753266
0.75851
0.762957
0.766456
0.768971
0.769952
0.769999
0.77
0.77
0.77
0.77
0.77
0.77
0.77
0.77
0.77
0.77
0.77
0.77
0.77
0.77
0.77
0.693652
0.69656
0.699663
0.702779
0.701692
0.70129
0.702819
0.705469
0.708869
0.711028
0.712743
0.715834
0.719617
0.724087
0.729196
0.734802
0.740693
0.746645
0.752416
0.757679
0.762206
0.765831
0.768522
0.769876
0.769998
0.77
0.77
0.77
0.77
0.77
0.77
0.77
0.77
0.77
0.77
0.77
0.77
0.77
0.77
0.77
0.696098
0.698831
0.701745
0.704678
0.703586
0.703104
0.704391
0.706737
0.709816
0.711762
0.713301
0.716173
0.719737
0.723993
0.728897
0.734317
0.740052
0.745888
0.751597
0.756871
0.761465
0.765207
0.76804
0.769734
0.769995
0.77
0.77
0.77
0.77
0.77
0.77
0.77
0.77
0.77
0.77
0.77
0.77
0.77
0.77
0.77
0.698416
0.700993
0.703738
0.706507
0.705414
0.704871
0.705948
0.708021
0.710803
0.712547
0.713916
0.716571
0.719915
0.723953
0.728648
0.733881
0.739458
0.745174
0.750809
0.756084
0.760733
0.764581
0.76754
0.76951
0.769989
0.769999
0.77
0.77
0.77
0.77
0.77
0.77
0.77
0.77
0.77
0.77
0.77
0.77
0.77
0.77
0.700618
0.703055
0.705649
0.70827
0.707181
0.706589
0.707485
0.709314
0.711823
0.713377
0.714583
0.717026
0.720151
0.723969
0.728453
0.733494
0.73891
0.744501
0.750055
0.755319
0.760011
0.763951
0.767029
0.76921
0.76997
0.769999
0.77
0.77
0.77
0.77
0.77
0.77
0.77
0.77
0.77
0.77
0.77
0.77
0.77
0.77
0.702715
0.705026
0.707483
0.70997
0.708889
0.708258
0.708998
0.710609
0.712868
0.714246
0.7153
0.717537
0.720445
0.724044
0.728313
0.733158
0.738407
0.743869
0.749334
0.754576
0.759302
0.763322
0.766511
0.768855
0.769924
0.769998
0.77
0.77
0.77
0.77
0.77
0.77
0.77
0.77
0.77
0.77
0.77
0.77
0.77
0.77
0.704716
0.706912
0.709246
0.711613
0.710541
0.709879
0.710483
0.7119
0.713931
0.715147
0.716059
0.718101
0.720797
0.724177
0.72823
0.732873
0.73795
0.743277
0.748649
0.753854
0.758605
0.762696
0.765991
0.768467
0.769834
0.769997
0.77
0.77
0.77
0.77
0.77
0.77
0.77
0.77
0.77
0.77
0.77
0.77
0.77
0.77
0.706628
0.708721
0.710945
0.713203
0.712141
0.711454
0.711939
0.713184
0.715008
0.716076
0.716857
0.718712
0.721204
0.724368
0.728204
0.732642
0.737541
0.742726
0.747999
0.753153
0.75792
0.762073
0.765469
0.768059
0.769687
0.769994
0.77
0.77
0.77
0.77
0.77
0.77
0.77
0.77
0.77
0.77
0.77
0.77
0.77
0.77
0.70846
0.71046
0.712584
0.714745
0.713692
0.712985
0.713365
0.714457
0.716094
0.717025
0.717686
0.719367
0.721663
0.724616
0.728236
0.732466
0.737181
0.742217
0.747382
0.752474
0.757249
0.761454
0.764941
0.767637
0.769476
0.769985
0.769999
0.77
0.77
0.77
0.77
0.77
0.77
0.77
0.77
0.77
0.77
0.77
0.77
0.77
0.710219
0.712136
0.714171
0.716245
0.715199
0.714475
0.714762
0.715716
0.717183
0.717991
0.718542
0.72006
0.72217
0.724919
0.728325
0.732346
0.736872
0.741752
0.746802
0.751821
0.756591
0.76084
0.764409
0.767206
0.769211
0.769964
0.769999
0.77
0.77
0.77
0.77
0.77
0.77
0.77
0.77
0.77
0.77
0.77
0.77
0.77
0.711912
0.713754
0.71571
0.717709
0.716668
0.715927
0.716131
0.71696
0.718272
0.718968
0.71942
0.720786
0.722719
0.725272
0.728469
0.732282
0.736615
0.741332
0.746259
0.7512
0.755949
0.760233
0.763874
0.766768
0.768907
0.769919
0.769998
0.77
0.77
0.77
0.77
0.77
0.77
0.77
0.77
0.77
0.77
0.77
0.77
0.77
0.713546
0.715322
0.71721
0.719145
0.718103
0.717345
0.717473
0.71819
0.719361
0.719953
0.720314
0.721541
0.723308
0.725674
0.728667
0.732272
0.736412
0.74096
0.745755
0.750609
0.755321
0.759633
0.763339
0.766326
0.768578
0.769838
0.769997
0.77
0.77
0.77
0.77
0.77
0.77
0.77
0.77
0.77
0.77
0.77
0.77
0.77
0.715128
0.716848
0.718679
0.720562
0.719513
0.718734
0.71879
0.719404
0.720446
0.720945
0.721222
0.722318
0.723931
0.726118
0.728916
0.732317
0.736261
0.740636
0.745293
0.75005
0.754711
0.759041
0.762805
0.765881
0.768231
0.769711
0.769994
0.77
0.77
0.77
0.77
0.77
0.77
0.77
0.77
0.77
0.77
0.77
0.77
0.77
0.716667
0.71834
0.720126
0.721969
0.720905
0.720099
0.720086
0.720605
0.721528
0.721939
0.722141
0.723117
0.724584
0.726602
0.729211
0.732413
0.736162
0.740361
0.744873
0.749525
0.754124
0.758459
0.762273
0.76543
0.767873
0.769534
0.769987
0.769999
0.77
0.77
0.77
0.77
0.77
0.77
0.77
0.77
0.77
0.77
0.77
0.77
0.71817
0.719808
0.721561
0.723377
0.722289
0.721449
0.721365
0.721792
0.722605
0.722936
0.723069
0.723932
0.725263
0.727122
0.72955
0.732559
0.736114
0.740135
0.744496
0.749036
0.753566
0.757889
0.761743
0.764974
0.767506
0.769314
0.76997
0.769999
0.77
0.77
0.77
0.77
0.77
0.77
0.77
0.77
0.77
0.77
0.77
0.77
0.719649
0.721263
0.722996
0.724787
0.723673
0.722791
0.722633
0.722971
0.723678
0.723934
0.724002
0.724762
0.725965
0.727673
0.72993
0.732751
0.736116
0.739958
0.744164
0.748583
0.753037
0.757331
0.761218
0.764515
0.767131
0.769059
0.769936
0.769999
0.77
0.77
0.77
0.77
0.77
0.77
0.77
0.77
0.77
0.77
0.77
0.77
0.721114
0.722718
0.724435
0.726184
0.725059
0.724131
0.723894
0.724143
0.724749
0.724933
0.72494
0.725602
0.726687
0.728253
0.730345
0.732987
0.736166
0.739829
0.743877
0.748169
0.752536
0.75679
0.760699
0.764054
0.766753
0.768783
0.769875
0.769998
0.77
0.77
0.77
0.77
0.77
0.77
0.77
0.77
0.77
0.77
0.77
0.77
0.722577
0.724176
0.725862
0.727484
0.726431
0.725471
0.725154
0.725313
0.72582
0.725934
0.725883
0.726453
0.727425
0.728857
0.730794
0.733263
0.736261
0.739747
0.743634
0.747795
0.752067
0.756269
0.760189
0.763595
0.766371
0.768489
0.769779
0.769996
0.77
0.77
0.77
0.77
0.77
0.77
0.77
0.77
0.77
0.77
0.77
0.77
0.724045
0.725624
0.727195
0.728703
0.727709
0.726796
0.72641
0.72648
0.726891
0.726938
0.72683
0.727312
0.728178
0.729482
0.731271
0.733577
0.7364
0.739711
0.743436
0.74746
0.751631
0.755772
0.759689
0.763137
0.765985
0.768185
0.769643
0.769991
0.77
0.77
0.77
0.77
0.77
0.77
0.77
0.77
0.77
0.77
0.77
0.77
0.725504
0.726983
0.728431
0.72987
0.728915
0.72805
0.727651
0.727642
0.727961
0.727944
0.727782
0.728179
0.728943
0.730127
0.731775
0.733923
0.736579
0.739718
0.743281
0.747166
0.751229
0.755302
0.7592
0.762682
0.765594
0.767872
0.769469
0.769981
0.769999
0.77
0.77
0.77
0.77
0.77
0.77
0.77
0.77
0.77
0.77
0.77
0.726876
0.72823
0.729612
0.730993
0.730071
0.729242
0.728847
0.728792
0.729026
0.728949
0.728738
0.729053
0.72972
0.730788
0.732303
0.7343
0.736794
0.739768
0.74317
0.746911
0.750861
0.754859
0.758725
0.762232
0.765201
0.767552
0.769264
0.76996
0.769999
0.77
0.77
0.77
0.77
0.77
0.77
0.77
0.77
0.77
0.77
0.77
0.728129
0.729422
0.73075
0.732074
0.731183
0.730384
0.729994
0.729911
0.730082
0.729952
0.729694
0.729933
0.730506
0.731464
0.732852
0.734706
0.737043
0.739855
0.7431
0.746698
0.750529
0.754443
0.758267
0.761788
0.764807
0.767228
0.769036
0.769921
0.769998
0.77
0.77
0.77
0.77
0.77
0.77
0.77
0.77
0.77
0.77
0.77
0.729326
0.730571
0.731846
0.733114
0.732254
0.731482
0.731096
0.730993
0.731116
0.730948
0.730649
0.730817
0.731302
0.732154
0.73342
0.735137
0.737324
0.73998
0.74307
0.746523
0.750233
0.754057
0.757829
0.761354
0.764414
0.766902
0.768792
0.769859
0.769997
0.77
0.77
0.77
0.77
0.77
0.77
0.77
0.77
0.77
0.77
0.77
0.73048
0.731676
0.732899
0.734113
0.733283
0.732537
0.732155
0.732036
0.732122
0.731926
0.731599
0.731702
0.732104
0.732856
0.734006
0.735591
0.737635
0.740138
0.743076
0.746387
0.749973
0.753702
0.757414
0.76093
0.764024
0.766573
0.768536
0.769766
0.769995
0.77
0.77
0.77
0.77
0.77
0.77
0.77
0.77
0.77
0.77
0.77
0.731591
0.73274
0.733911
0.735072
0.734272
0.733551
0.733172
0.733039
0.733094
0.73288
0.732535
0.732585
0.732911
0.733569
0.734608
0.736067
0.737972
0.740329
0.743118
0.746287
0.749748
0.753377
0.757024
0.760519
0.763638
0.766242
0.768272
0.769641
0.76999
0.77
0.77
0.77
0.77
0.77
0.77
0.77
0.77
0.77
0.77
0.77
0.732659
0.733761
0.734883
0.735994
0.735222
0.734525
0.73415
0.734005
0.734033
0.733805
0.73345
0.733459
0.73372
0.734291
0.735224
0.736563
0.738335
0.74055
0.743194
0.746223
0.749557
0.753084
0.756659
0.760122
0.763258
0.765909
0.768003
0.769486
0.76998
0.769999
0.77
0.77
0.77
0.77
0.77
0.77
0.77
0.77
0.77
0.77
0.733685
0.734742
0.735816
0.736879
0.736134
0.735461
0.735089
0.734933
0.734938
0.7347
0.73434
0.734317
0.734524
0.735017
0.735853
0.737077
0.738721
0.740799
0.743302
0.746192
0.7494
0.752821
0.75632
0.759741
0.762885
0.765576
0.767728
0.769307
0.769961
0.769999
0.77
0.77
0.77
0.77
0.77
0.77
0.77
0.77
0.77
0.77
0.734671
0.735684
0.736712
0.73773
0.737011
0.73636
0.735992
0.735826
0.73581
0.735564
0.735202
0.735154
0.735317
0.735744
0.73649
0.737607
0.739128
0.741074
0.74344
0.746194
0.749276
0.752588
0.756006
0.759378
0.76252
0.765245
0.767451
0.76911
0.769926
0.769998
0.77
0.77
0.77
0.77
0.77
0.77
0.77
0.77
0.77
0.77
0.735617
0.736588
0.737573
0.738547
0.737854
0.737224
0.73686
0.736685
0.73665
0.736398
0.736036
0.735968
0.736095
0.736465
0.737133
0.738149
0.739555
0.741374
0.743606
0.746227
0.749183
0.752386
0.755718
0.759036
0.762167
0.764917
0.767173
0.768901
0.769873
0.769998
0.77
0.77
0.77
0.77
0.77
0.77
0.77
0.77
0.77
0.77
0.736525
0.737456
0.738399
0.739332
0.738663
0.738054
0.737695
0.737513
0.73746
0.737203
0.736843
0.736757
0.736853
0.737176
0.737775
0.738701
0.739998
0.741695
0.743799
0.74629
0.749121
0.752213
0.755456
0.758714
0.761826
0.764593
0.766895
0.768682
0.769796
0.769996
0.77
0.77
0.77
0.77
0.77
0.77
0.77
0.77
0.77
0.77
0.737397
0.73829
0.739194
0.740088
0.739442
0.738852
0.738497
0.738309
0.738242
0.73798
0.737622
0.737522
0.737592
0.737873
0.738412
0.739258
0.740455
0.742037
0.744016
0.74638
0.749088
0.752069
0.755221
0.758414
0.761499
0.764276
0.766618
0.768458
0.769692
0.769992
0.77
0.77
0.77
0.77
0.77
0.77
0.77
0.77
0.77
0.77
0.738234
0.73909
0.739957
0.740814
0.740191
0.73962
0.73927
0.739076
0.738996
0.738731
0.738375
0.738263
0.738309
0.738554
0.73904
0.739815
0.740921
0.742395
0.744255
0.746496
0.749083
0.751954
0.755012
0.758137
0.761186
0.763966
0.76634
0.76823
0.769564
0.769984
0.77
0.77
0.77
0.77
0.77
0.77
0.77
0.77
0.77
0.77
0.739037
0.73986
0.740692
0.741514
0.740912
0.740359
0.740014
0.739816
0.739723
0.739457
0.739103
0.73898
0.739006
0.739218
0.739658
0.740368
0.741392
0.742767
0.744514
0.746636
0.749105
0.751865
0.754828
0.757881
0.760888
0.763665
0.766064
0.767998
0.769416
0.76997
0.769999
0.77
0.77
0.77
0.77
0.77
0.77
0.77
0.77
0.77
0.73981
0.7406
0.741398
0.742187
0.741605
0.74107
0.74073
0.740529
0.740426
0.740158
0.739808
0.739674
0.739682
0.739865
0.740262
0.740915
0.741864
0.743148
0.74479
0.746798
0.749151
0.751802
0.75467
0.757648
0.760606
0.763372
0.765791
0.767766
0.769253
0.769945
0.769999
0.77
0.77
0.77
0.77
0.77
0.77
0.77
0.77
0.77
0.740552
0.741311
0.742078
0.742836
0.742274
0.741755
0.74142
0.741216
0.741104
0.740836
0.740489
0.740347
0.740338
0.740494
0.740853
0.741453
0.742335
0.743534
0.745079
0.746979
0.749221
0.751763
0.754535
0.757436
0.760342
0.763091
0.765523
0.767534
0.76908
0.769907
0.769998
0.77
0.77
0.77
0.77
0.77
0.77
0.77
0.77
0.77
0.741267
0.741996
0.742733
0.743461
0.742917
0.742414
0.742085
0.741879
0.741759
0.741491
0.741149
0.740999
0.740975
0.741107
0.74143
0.741983
0.742802
0.743924
0.745378
0.747176
0.74931
0.751748
0.754424
0.757245
0.760095
0.762821
0.76526
0.767304
0.768898
0.769851
0.769997
0.77
0.77
0.77
0.77
0.77
0.77
0.77
0.77
0.77
0.741954
0.742655
0.743363
0.744063
0.743538
0.74305
0.742727
0.74252
0.742393
0.742125
0.741787
0.74163
0.741593
0.741703
0.741994
0.742502
0.743264
0.744315
0.745684
0.747386
0.749418
0.751753
0.754334
0.757075
0.759866
0.762563
0.765004
0.767075
0.768712
0.769775
0.769995
0.77
0.77
0.77
0.77
0.77
0.77
0.77
0.77
0.77
0.742615
0.74329
0.743971
0.744643
0.744136
0.743663
0.743346
0.743138
0.743005
0.742738
0.742405
0.742243
0.742193
0.742282
0.742544
0.743011
0.74372
0.744705
0.745994
0.747607
0.749542
0.751778
0.754266
0.756926
0.759655
0.762317
0.764755
0.766848
0.768522
0.769679
0.76999
0.77
0.77
0.77
0.77
0.77
0.77
0.77
0.77
0.77
0.743252
0.743901
0.744556
0.745203
0.744712
0.744254
0.743943
0.743735
0.743597
0.743332
0.743003
0.742836
0.742775
0.742846
0.74308
0.743509
0.744169
0.745092
0.746308
0.747836
0.749679
0.75182
0.754216
0.756795
0.75946
0.762085
0.764513
0.766623
0.768331
0.769565
0.769982
0.769999
0.77
0.77
0.77
0.77
0.77
0.77
0.77
0.77
0.743866
0.744491
0.745121
0.745743
0.745268
0.744825
0.744519
0.744311
0.74417
0.743907
0.743583
0.743412
0.743341
0.743395
0.743603
0.743997
0.744611
0.745477
0.746624
0.748071
0.749827
0.751877
0.754184
0.756683
0.759283
0.761866
0.76428
0.766401
0.768139
0.769437
0.769968
0.769999
0.77
0.77
0.77
0.77
0.77
0.77
0.77
0.77
0.744457
0.745058
0.745665
0.746264
0.745805
0.745375
0.745075
0.744868
0.744723
0.744463
0.744144
0.74397
0.74389
0.743929
0.744113
0.744475
0.745045
0.745857
0.746939
0.748312
0.749984
0.751947
0.754167
0.756587
0.759121
0.761661
0.764056
0.766183
0.767948
0.769299
0.769945
0.769999
0.77
0.77
0.77
0.77
0.77
0.77
0.77
0.77
0.745026
0.745606
0.74619
0.746767
0.746322
0.745906
0.745612
0.745407
0.745259
0.745001
0.744688
0.744511
0.744424
0.744448
0.744611
0.744942
0.745473
0.746234
0.747255
0.748556
0.75015
0.752029
0.754165
0.756507
0.758975
0.761468
0.763841
0.765971
0.767759
0.769153
0.769911
0.769998
0.77
0.77
0.77
0.77
0.77
0.77
0.77
0.77
0.745575
0.746134
0.746696
0.747252
0.746822
0.746418
0.746131
0.745927
0.745778
0.745523
0.745215
0.745036
0.744942
0.744953
0.745096
0.745399
0.745892
0.746606
0.747569
0.748804
0.750322
0.752121
0.754176
0.756442
0.758844
0.761288
0.763635
0.765764
0.767572
0.769001
0.769864
0.769997
0.77
0.77
0.77
0.77
0.77
0.77
0.77
0.77
0.746104
0.746643
0.747185
0.747721
0.747304
0.746913
0.746632
0.74643
0.746279
0.746028
0.745725
0.745546
0.745445
0.745445
0.745569
0.745846
0.746304
0.746973
0.747882
0.749053
0.7505
0.752222
0.754199
0.756389
0.758726
0.761119
0.763439
0.765562
0.767387
0.768847
0.7698
0.769995
0.77
0.77
0.77
0.77
0.77
0.77
0.77
0.77
0.746615
0.747134
0.747657
0.748173
0.74777
0.747391
0.747116
0.746916
0.746765
0.746517
0.74622
0.74604
0.745934
0.745923
0.746031
0.746283
0.746708
0.747335
0.748193
0.749303
0.750682
0.75233
0.754232
0.75635
0.758621
0.760963
0.763252
0.765367
0.767204
0.768692
0.769721
0.769992
0.77
0.77
0.77
0.77
0.77
0.77
0.77
0.77
0.747108
0.747609
0.748113
0.748611
0.748221
0.747853
0.747584
0.747387
0.747235
0.74699
0.7467
0.746519
0.746409
0.746388
0.74648
0.74671
0.747104
0.747692
0.748501
0.749555
0.750868
0.752446
0.754275
0.756321
0.758529
0.760817
0.763074
0.765178
0.767023
0.768535
0.769629
0.769985
0.77
0.77
0.77
0.77
0.77
0.77
0.77
0.77
0.747583
0.748067
0.748554
0.749035
0.748656
0.748299
0.748037
0.747842
0.74769
0.747449
0.747165
0.746984
0.74687
0.746841
0.746919
0.747127
0.747493
0.748044
0.748807
0.749806
0.751058
0.752568
0.754326
0.756303
0.758447
0.760683
0.762906
0.764995
0.766846
0.768379
0.769525
0.769975
0.769999
0.77
0.77
0.77
0.77
0.77
0.77
0.77
0.748043
0.74851
0.74898
0.749445
0.749078
0.748731
0.748474
0.748282
0.74813
0.747894
0.747615
0.747435
0.747318
0.747281
0.747346
0.747535
0.747874
0.748391
0.749111
0.750058
0.751251
0.752696
0.754386
0.756295
0.758376
0.760559
0.762746
0.764818
0.766671
0.768223
0.769413
0.769958
0.769999
0.77
0.77
0.77
0.77
0.77
0.77
0.77
0.748487
0.748938
0.749392
0.749841
0.749485
0.749148
0.748898
0.748708
0.748557
0.748325
0.748052
0.747872
0.747752
0.747709
0.747762
0.747933
0.748248
0.748732
0.749411
0.750309
0.751446
0.752828
0.754453
0.756296
0.758315
0.760445
0.762595
0.764648
0.766501
0.768068
0.769295
0.769934
0.769998
0.77
0.77
0.77
0.77
0.77
0.77
0.77
0.748916
0.749352
0.749792
0.750226
0.74988
0.749553
0.749307
0.749121
0.74897
0.748742
0.748475
0.748296
0.748175
0.748126
0.748168
0.748322
0.748614
0.749067
0.749708
0.75056
0.751642
0.752965
0.754526
0.756306
0.758264
0.760341
0.762452
0.764485
0.766335
0.767916
0.769172
0.7699
0.769998
0.77
0.77
0.77
0.77
0.77
0.77
0.77
0.749331
0.749754
0.750179
0.7506
0.750263
0.749945
0.749705
0.749521
0.749371
0.749147
0.748885
0.748708
0.748585
0.748531
0.748563
0.748702
0.748972
0.749396
0.750001
0.750809
0.751841
0.753106
0.754606
0.756323
0.758222
0.760246
0.762318
0.764328
0.766172
0.767765
0.769047
0.769854
0.769996
0.77
0.77
0.77
0.77
0.77
0.77
0.77
0.749733
0.750142
0.750554
0.750963
0.750635
0.750325
0.750089
0.749908
0.749759
0.749539
0.749283
0.749108
0.748984
0.748924
0.748948
0.749073
0.749323
0.74972
0.750291
0.751057
0.75204
0.753251
0.754692
0.756348
0.758189
0.760161
0.762191
0.764177
0.766015
0.767617
0.76892
0.769797
0.769994
0.77
0.77
0.77
0.77
0.77
0.77
0.77
0.750123
0.75052
0.750919
0.751316
0.750996
0.750693
0.750463
0.750284
0.750136
0.74992
0.74967
0.749496
0.749371
0.749307
0.749323
0.749435
0.749666
0.750038
0.750577
0.751304
0.75224
0.753399
0.754782
0.75638
0.758163
0.760084
0.762072
0.764033
0.765861
0.76747
0.768792
0.769728
0.769991
0.77
0.77
0.77
0.77
0.77
0.77
0.77
0.750501
0.750886
0.751274
0.75166
0.751348
0.751052
0.750825
0.750649
0.750502
0.750289
0.750044
0.749873
0.749747
0.74968
0.749688
0.749788
0.750001
0.75035
0.750859
0.751549
0.752441
0.753549
0.754878
0.756419
0.758146
0.760015
0.761961
0.763895
0.765712
0.767325
0.768664
0.769649
0.769985
0.769999
0.77
0.77
0.77
0.77
0.77
0.77
0.750868
0.751243
0.75162
0.751996
0.75169
0.7514
0.751177
0.751003
0.750857
0.750648
0.750408
0.750238
0.750112
0.750042
0.750043
0.750132
0.75033
0.750657
0.751136
0.751791
0.752641
0.753701
0.754977
0.756463
0.758136
0.759954
0.761857
0.763763
0.765567
0.767182
0.768536
0.769563
0.769975
0.769999
0.77
0.77
0.77
0.77
0.77
0.77
0.751226
0.75159
0.751958
0.752324
0.752025
0.75174
0.75152
0.751347
0.751202
0.750997
0.750762
0.750594
0.750467
0.750394
0.750389
0.750468
0.750651
0.750957
0.75141
0.752031
0.752841
0.753855
0.755081
0.756513
0.758133
0.759901
0.761761
0.763638
0.765428
0.767042
0.768409
0.76947
0.769961
0.769999
0.77
0.77
0.77
0.77
0.77
0.77
0.751574
0.751929
0.752289
0.752647
0.752352
0.752072
0.751854
0.751683
0.751538
0.751336
0.751106
0.750939
0.750813
0.750737
0.750727
0.750796
0.750965
0.751252
0.751679
0.752269
0.753041
0.754011
0.755188
0.756569
0.758136
0.759855
0.761673
0.763519
0.765292
0.766905
0.768283
0.769372
0.769941
0.769999
0.77
0.77
0.77
0.77
0.77
0.77
0.751914
0.752261
0.752613
0.752964
0.752673
0.752396
0.75218
0.75201
0.751865
0.751666
0.75144
0.751275
0.751149
0.751071
0.751055
0.751116
0.751271
0.75154
0.751944
0.752504
0.75324
0.754168
0.755298
0.756629
0.758146
0.759817
0.761592
0.763405
0.765162
0.766771
0.768159
0.769271
0.769913
0.769998
0.77
0.77
0.77
0.77
0.77
0.77
0.752246
0.752586
0.752932
0.753276
0.752988
0.752714
0.752499
0.752329
0.752184
0.751987
0.751765
0.751602
0.751475
0.751396
0.751375
0.751428
0.751571
0.751823
0.752205
0.752736
0.753438
0.754326
0.755411
0.756694
0.758161
0.759784
0.761518
0.763297
0.765036
0.76664
0.768036
0.769168
0.769876
0.769997
0.77
0.77
0.77
0.77
0.77
0.77
0.752572
0.752906
0.753246
0.753585
0.753299
0.753027
0.752812
0.752641
0.752496
0.752301
0.752083
0.751921
0.751794
0.751712
0.751687
0.751732
0.751864
0.7521
0.752461
0.752966
0.753635
0.754485
0.755527
0.756763
0.758182
0.759759
0.76145
0.763196
0.764914
0.766512
0.767915
0.769064
0.769831
0.769995
0.77
0.77
0.77
0.77
0.77
0.77
0.752893
0.753222
0.753556
0.753891
0.753607
0.753335
0.753119
0.752947
0.752801
0.752608
0.752392
0.752231
0.752104
0.75202
0.751991
0.752029
0.75215
0.752372
0.752712
0.753192
0.753831
0.754644
0.755645
0.756836
0.758208
0.759739
0.761389
0.7631
0.764798
0.766388
0.767795
0.768959
0.769777
0.769993
0.77
0.77
0.77
0.77
0.77
0.77
0.753209
0.753533
0.753864
0.754195
0.753911
0.753639
0.753422
0.753248
0.7531
0.752908
0.752695
0.752534
0.752407
0.752321
0.752288
0.752319
0.75243
0.752637
0.752959
0.753415
0.754024
0.754803
0.755764
0.756912
0.758239
0.759726
0.761334
0.763011
0.764686
0.766267
0.767677
0.768854
0.769714
0.769988
0.77
0.77
0.77
0.77
0.77
0.77
0.753521
0.753842
0.75417
0.754498
0.754214
0.753941
0.753721
0.753544
0.753394
0.753203
0.752991
0.752831
0.752702
0.752615
0.752577
0.752602
0.752704
0.752898
0.753202
0.753636
0.754217
0.754963
0.755886
0.756991
0.758275
0.759717
0.761285
0.762928
0.764579
0.766149
0.76756
0.768749
0.769646
0.769982
0.77
0.77
0.77
0.77
0.77
0.77
0.753831
0.754149
0.754474
0.754799
0.754514
0.75424
0.754016
0.753837
0.753684
0.753492
0.753282
0.753121
0.752991
0.752901
0.75286