/*--------------------------------*- C++ -*----------------------------------*\
| =========                 |                                                 |
| \\      /  F ield         | OpenFOAM: The Open Source CFD Toolbox           |
|  \\    /   O peration     | Version:  1.6.x                                 |
|   \\  /    A nd           | Web:      www.OpenFOAM.org                      |
|    \\/     M anipulation  |                                                 |
\*---------------------------------------------------------------------------*/
FoamFile
{
    version     2.0;
    format      ascii;
    class       volScalarField;
    location    "7000";
    object      O2;
}
// * * * * * * * * * * * * * * * * * * * * * * * * * * * * * * * * * * * * * //

dimensions      [0 0 0 0 0 0 0];

internalField   nonuniform List<scalar> 
4608
(
0.196582
0.1966
0.196597
0.187107
0.1966
0.1966
0.1966
0.196086
0.179981
0.143884
0.1966
0.1966
0.1966
0.1966
0.196568
0.195243
0.173982
0.117757
0.0581079
0.1966
0.1966
0.1966
0.1966
0.196597
0.196488
0.194157
0.168798
0.104583
0.0374284
0.0528515
0.0345337
0.1966
0.1966
0.1966
0.1966
0.196587
0.196356
0.192852
0.163412
0.100212
0.0278332
0.0150956
0.0537079
0.0539823
0.0615282
0.1966
0.1966
0.1966
0.1966
0.196567
0.196156
0.191318
0.159525
0.094713
0.0244106
0.0080358
0.038908
0.0541552
0.0539952
0.0539998
0.107792
0.1966
0.1966
0.1966
0.1966
0.196531
0.195879
0.189638
0.126993
0.101234
0.0217682
0.00574028
0.0133761
0.101206
0.0546935
0.0540017
0.0539999
0.054
0.169396
0.1966
0.1966
0.1966
0.1966
0.196474
0.195515
0.1866
0.10783
0.0935054
0.0261152
0.00450768
0.0076095
0.0822285
0.150738
0.0540074
0.054
0.054
0.054
0.200929
0.1966
0.1966
0.1966
0.1966
0.196389
0.195001
0.183164
0.0955105
0.0805241
0.0300072
0.00522087
0.00553588
0.0596041
0.131123
0.180908
0.054
0.054
0.054
0.054
0.22215
0.1966
0.1966
0.1966
0.1966
0.196264
0.194342
0.179582
0.087613
0.0689452
0.0270681
0.00695585
0.00368416
0.0415895
0.107995
0.162242
0.208096
0.054
0.054
0.054
0.054
0.229078
0.1966
0.1966
0.1966
0.1966
0.196088
0.193551
0.176042
0.0809273
0.060781
0.0226487
0.00665745
0.00282461
0.0204614
0.0887205
0.140878
0.194143
0.224112
0.054
0.054
0.054
0.054
0.229923
0.1966
0.1966
0.1966
0.1966
0.195855
0.192652
0.172456
0.0810626
0.0535088
0.0191498
0.0056335
0.00237191
0.00920674
0.065718
0.121424
0.177214
0.216534
0.229309
0.054
0.054
0.054
0.054
0.229986
0.1966
0.1966
0.1966
0.1966
0.195559
0.191648
0.169171
0.0819393
0.0528733
0.0160464
0.00482141
0.0020841
0.00537119
0.039702
0.0989699
0.159909
0.20529
0.227551
0.229935
0.054
0.054
0.054
0.054
0.229995
0.1966
0.1966
0.1966
0.1966
0.195199
0.190566
0.151233
0.0771125
0.0558326
0.0153481
0.00412912
0.0018635
0.00419935
0.0216371
0.0699594
0.140188
0.191485
0.223342
0.229785
0.229987
0.054
0.054
0.054
0.054
0.229998
0.1966
0.1966
0.1966
0.1966
0.194771
0.18877
0.136642
0.069849
0.0532602
0.0168759
0.00403611
0.00169298
0.00336777
0.0152365
0.0469185
0.112563
0.174962
0.215044
0.229285
0.229971
0.229996
0.054
0.054
0.054
0.054
0.229999
0.1966
0.1966
0.1966
0.1966
0.194223
0.186554
0.124751
0.0614579
0.0479874
0.0168746
0.00464828
0.00168462
0.00294522
0.0105134
0.031935
0.0893348
0.151787
0.202808
0.227303
0.229935
0.229992
0.229998
0.054
0.054
0.054
0.054
0.23
0.1966
0.1966
0.1966
0.1966
0.193539
0.184053
0.114567
0.055232
0.0416525
0.0159469
0.00494809
0.00187439
0.00281141
0.00835739
0.0203162
0.0715163
0.130762
0.184806
0.222046
0.2298
0.229986
0.229997
0.229999
0.054
0.054
0.054
0.054
0.23
0.1966
0.1966
0.1966
0.1966
0.192716
0.181326
0.108699
0.0518645
0.0370786
0.0145182
0.00494204
0.00200599
0.00267126
0.00743934
0.0153875
0.0561896
0.113418
0.167198
0.209996
0.229147
0.229975
0.229995
0.229999
0.23
0.054
0.054
0.054
0.054
0.23
0.1966
0.1966
0.1966
0.1966
0.191755
0.178552
0.104583
0.0479323
0.0348472
0.0134907
0.00474279
0.00207326
0.00245604
0.00635794
0.0132237
0.0449471
0.0972708
0.151534
0.196089
0.225335
0.22994
0.229993
0.229998
0.229999
0.23
0.054
0.054
0.054
0.054
0.23
0.1966
0.1966
0.1966
0.1966
0.190673
0.168468
0.097942
0.0435312
0.0325012
0.0131567
0.00460569
0.00209924
0.0023729
0.00520939
0.0108017
0.0359156
0.0838499
0.136518
0.182784
0.217105
0.229639
0.229988
0.229997
0.229999
0.23
0.23
0.054
0.054
0.054
0.054
0.23
0.1966
0.1966
0.1966
0.188979
0.158049
0.0900804
0.0389557
0.0299306
0.0127915
0.0046541
0.00213341
0.00236975
0.0047439
0.00840309
0.0267645
0.0719229
0.122998
0.169836
0.207036
0.227819
0.229972
0.229996
0.229999
0.23
0.23
0.23
0.054
0.054
0.054
0.054
0.23
0.1966
0.1966
0.186781
0.148288
0.0818121
0.0348688
0.0271737
0.0123494
0.00469001
0.00220658
0.00237665
0.00452593
0.00747052
0.0190366
0.0595782
0.110269
0.157517
0.196362
0.223355
0.229878
0.229994
0.229998
0.229999
0.23
0.23
0.23
0.054
0.054
0.054
0.054
0.23
0.1966
0.181261
0.138801
0.0728599
0.0309758
0.0245588
0.0117857
0.00469973
0.00227418
0.00235827
0.00432083
0.00695338
0.0163941
0.0488249
0.096802
0.145605
0.185836
0.216141
0.229347
0.229988
0.229998
0.229999
0.23
0.23
0.23
0.23
0.054
0.054
0.054
0.054
0.23
0.173859
0.128732
0.0633253
0.027186
0.022042
0.0111346
0.00466872
0.00233985
0.00233314
0.00404302
0.00646231
0.0146027
0.0409101
0.0848267
0.132755
0.175507
0.207865
0.227314
0.229966
0.229997
0.229999
0.23
0.23
0.23
0.23
0.23
0.054
0.054
0.054
0.054
0.23
0.164944
0.1174
0.0537454
0.0235931
0.0195844
0.0104282
0.00458725
0.00240128
0.00234773
0.00379001
0.0058733
0.0129356
0.0344964
0.0747918
0.120767
0.164371
0.199294
0.223112
0.229848
0.229994
0.229999
0.229999
0.23
0.23
0.23
0.23
0.23
0.054
0.054
0.054
0.23
0.15546
0.104423
0.0448014
0.0203859
0.0172147
0.00967722
0.00446442
0.00244847
0.00239367
0.00367903
0.00535806
0.0111962
0.0289106
0.0660818
0.110209
0.153522
0.190098
0.217133
0.229262
0.229988
0.229998
0.229999
0.23
0.23
0.23
0.23
0.23
0.23
0.054
0.054
0.23
0.145475
0.089568
0.0374566
0.0174897
0.0150495
0.00888209
0.00430909
0.00247709
0.00244814
0.00364652
0.00510709
0.00980258
0.0237105
0.0582588
0.100654
0.143463
0.180916
0.210039
0.227464
0.229966
0.229997
0.229999
0.23
0.23
0.23
0.23
0.23
0.23
0.23
0.054
0.23
0.13424
0.0741757
0.0309803
0.0148418
0.0130752
0.0080813
0.00412031
0.00248616
0.00249433
0.00363497
0.00497998
0.0091124
0.0198874
0.0509046
0.0918371
0.134039
0.172011
0.202558
0.223862
0.229862
0.229995
0.229999
0.229999
0.23
0.23
0.23
0.23
0.23
0.23
0.23
0.23
0.120912
0.0590739
0.0253043
0.0124504
0.0112516
0.00729869
0.00390638
0.00247385
0.00252382
0.00361516
0.00488334
0.00865589
0.0180407
0.0445479
0.0834122
0.125061
0.163425
0.195114
0.218716
0.22938
0.22999
0.229998
0.229999
0.23
0.23
0.23
0.23
0.23
0.23
0.23
0.23
0.23
0.104378
0.0458533
0.0204504
0.01029
0.00958026
0.00653375
0.00367981
0.00244681
0.0025354
0.00357634
0.00477882
0.00825356
0.0166264
0.0394386
0.0757752
0.116315
0.155094
0.187805
0.212944
0.227906
0.229973
0.229997
0.229999
0.23
0.23
0.23
0.23
0.23
0.23
0.23
0.23
0.23
0.23
0.0843574
0.0352439
0.0162305
0.00834114
0.00805103
0.00579134
0.00344546
0.00241391
0.0025497
0.00352182
0.00465542
0.00785504
0.0153519
0.0350525
0.069024
0.108214
0.146892
0.180534
0.206964
0.225092
0.229897
0.229996
0.229999
0.229999
0.23
0.23
0.23
0.23
0.23
0.23
0.23
0.23
0.23
0.23
0.0618045
0.0263749
0.0125626
0.00661391
0.0066544
0.00507657
0.003208
0.00237889
0.00257889
0.00349952
0.00452106
0.00745213
0.0141606
0.0311985
0.0629317
0.100808
0.139053
0.173267
0.200909
0.221103
0.229573
0.229992
0.229999
0.229999
0.23
0.23
0.23
0.23
0.23
0.23
0.23
0.23
0.23
0.23
0.23
0.0417721
0.0190753
0.00946166
0.00513757
0.00539771
0.00439318
0.0029704
0.00234311
0.00262143
0.00352027
0.0044516
0.00706327
0.0130454
0.0277988
0.0574184
0.0939239
0.131636
0.166167
0.194841
0.216519
0.228598
0.229981
0.229998
0.229999
0.23
0.23
0.23
0.23
0.23
0.23
0.23
0.23
0.23
0.23
0.23
0.23
0.0269688
0.013374
0.0069629
0.00393363
0.004303
0.00374901
0.00273462
0.002306
0.0026715
0.00357008
0.00445233
0.00684234
0.0120349
0.0248035
0.0524469
0.0875326
0.124576
0.159298
0.188785
0.211649
0.226678
0.229941
0.229997
0.229999
0.23
0.23
0.23
0.23
0.23
0.23
0.23
0.23
0.23
0.23
0.23
0.23
0.23
0.0171482
0.00920074
0.00505218
0.00299749
0.00339079
0.00315889
0.00250351
0.00226773
0.00272373
0.00363393
0.00449567
0.0067584
0.0114568
0.022217
0.0479805
0.081634
0.117882
0.152644
0.182778
0.206668
0.223739
0.229783
0.229995
0.229999
0.23
0.23
0.23
0.23
0.23
0.23
0.23
0.23
0.23
0.23
0.23
0.23
0.23
0.23
0.0109866
0.00629744
0.00365483
0.00230098
0.00266575
0.00264044
0.00228282
0.00222775
0.00277534
0.00370202
0.0045584
0.00674382
0.0111453
0.0207769
0.0440292
0.0762202
0.11158
0.146219
0.176856
0.201691
0.220151
0.229267
0.229989
0.229999
0.23
0.23
0.23
0.23
0.23
0.23
0.23
0.23
0.23
0.23
0.23
0.23
0.23
0.23
0.23
0.00716492
0.00433722
0.00266791
0.00180295
0.00211554
0.00220675
0.00208114
0.00218758
0.0028246
0.00376989
0.00462733
0.00675842
0.0109465
0.0198535
0.0408398
0.0713174
0.105693
0.140055
0.17104
0.196727
0.216272
0.22812
0.229972
0.229998
0.23
0.23
0.23
0.23
0.23
0.23
0.23
0.23
0.23
0.23
0.23
0.23
0.23
0.23
0.23
0.23
0.00477302
0.00303478
0.00198965
0.00146088
0.00171622
0.00186285
0.00190737
0.00215099
0.0028716
0.00383573
0.00469687
0.00678381
0.0107963
0.0191238
0.0382105
0.0670003
0.100258
0.134155
0.165357
0.191752
0.212255
0.226196
0.229913
0.229997
0.229999
0.23
0.23
0.23
0.23
0.23
0.23
0.23
0.23
0.23
0.23
0.23
0.23
0.23
0.23
0.23
0.00325795
0.00217776
0.0015354
0.00123742
0.00144004
0.00160545
0.00176844
0.00212308
0.00291834
0.00389974
0.00476524
0.00681327
0.0106708
0.0184979
0.035964
0.0631823
0.0952965
0.128567
0.159829
0.186794
0.208162
0.223602
0.229709
0.229994
0.229999
0.23
0.23
0.23
0.23
0.23
0.23
0.23
0.23
0.23
0.23
0.23
0.23
0.23
0.23
0.23
0.00229038
0.00161979
0.00124092
0.00110282
0.00126088
0.00142571
0.00166809
0.00210913
0.00296831
0.00396397
0.00483285
0.00684531
0.0105622
0.0179458
0.0340101
0.0597702
0.090752
0.123342
0.154496
0.181892
0.204066
0.220605
0.229175
0.229987
0.229999
0.23
0.23
0.23
0.23
0.23
0.23
0.23
0.23
0.23
0.23
0.23
0.23
0.23
0.23
0.23
0.00167187
0.00126314
0.00105993
0.00103481
0.00115682
0.00131243
0.00160696
0.00211366
0.00302587
0.0040319
0.00490185
0.00688093
0.0104691
0.0174559
0.0322999
0.0567036
0.0865685
0.118446
0.1494
0.177079
0.199967
0.217402
0.228145
0.22997
0.229998
0.23
0.23
0.23
0.23
0.23
0.23
0.23
0.23
0.23
0.23
0.23
0.23
0.23
0.23
0.23
0.00128037
0.0010433
0.000960122
0.00101738
0.00111077
0.00125446
0.00158355
0.00213999
0.00309563
0.00410805
0.00497583
0.00692284
0.0103925
0.0170225
0.0307995
0.0539438
0.082709
0.113841
0.144536
0.172388
0.195862
0.214093
0.226522
0.229914
0.229997
0.229999
0.23
0.23
0.23
0.23
0.23
0.23
0.23
0.23
0.23
0.23
0.23
0.23
0.23
0.23
0.00103941
0.000917872
0.000919433
0.00103946
0.00111017
0.00124211
0.00159527
0.00219035
0.00318199
0.00419745
0.00505952
0.0069752
0.0103357
0.0166442
0.0294829
0.0514571
0.0791548
0.109505
0.139888
0.167831
0.191776
0.210721
0.224397
0.229743
0.229995
0.229999
0.23
0.23
0.23
0.23
0.23
0.23
0.23
0.23
0.23
0.23
0.23
0.23
0.23
0.23
0.00090039
0.000859082
0.000923097
0.00109368
0.00114615
0.00126773
0.00163933
0.00226612
0.00328895
0.00430522
0.00515832
0.0070434
0.0103034
0.0163223
0.0283329
0.0492141
0.0758799
0.105444
0.135441
0.16341
0.187739
0.207344
0.221955
0.229329
0.229989
0.229999
0.23
0.23
0.23
0.23
0.23
0.23
0.23
0.23
0.23
0.23
0.23
0.23
0.23
0.23
0.000832198
0.000848849
0.000961461
0.00117537
0.00121277
0.00132569
0.00171329
0.00236823
0.00341998
0.00443623
0.00527789
0.00713361
0.0103017
0.0160604
0.0273402
0.0471937
0.0728581
0.101633
0.13117
0.15912
0.183763
0.203972
0.21934
0.228553
0.229976
0.229998
0.23
0.23
0.23
0.23
0.23
0.23
0.23
0.23
0.23
0.23
0.23
0.23
0.23
0.23
0.000814877
0.000875549
0.00102842
0.00128181
0.00130627
0.00141215
0.00181535
0.00249741
0.0035781
0.00459489
0.00542374
0.00725242
0.0103376
0.0158642
0.0264998
0.0453845
0.0700715
0.0980516
0.127079
0.154953
0.179846
0.200599
0.216631
0.227334
0.22994
0.229998
0.23
0.23
0.23
0.23
0.23
0.23
0.23
0.23
0.23
0.23
0.23
0.23
0.23
0.23
0.000835717
0.000931884
0.00112037
0.00141196
0.00142454
0.00152474
0.00194439
0.00265442
0.00376597
0.00478513
0.00560095
0.00740624
0.0104187
0.0157405
0.0258113
0.0437788
0.0675121
0.0946891
0.123169
0.15091
0.175991
0.197212
0.213868
0.225704
0.229837
0.229996
0.229999
0.23
0.23
0.23
0.23
0.23
0.23
0.23
0.23
0.23
0.23
0.23
0.23
0.23
0.00088677
0.00101349
0.0012356
0.00156697
0.00156701
0.00166227
0.00209993
0.00284007
0.00398587
0.00501032
0.00581405
0.00760097
0.010552
0.0156968
0.0252764
0.0423746
0.0651719
0.0915451
0.119445
0.146993
0.172205
0.19383
0.211069
0.223778
0.229587
0.229992
0.229999
0.23
0.23
0.23
0.23
0.23
0.23
0.23
0.23
0.23
0.23
0.23
0.23
0.23
0.000963275
0.00111815
0.00137447
0.00174998
0.00173547
0.00182488
0.00228213
0.0030553
0.00423981
0.00527327
0.00606685
0.00784172
0.0107439
0.0157397
0.0248981
0.0411728
0.063049
0.0886105
0.115921
0.143196
0.168491
0.190468
0.208262
0.221677
0.229096
0.229985
0.229999
0.23
0.23
0.23
0.23
0.23
0.23
0.23
0.23
0.23
0.23
0.23
0.23
0.23
0.00106274
0.00124569
0.00153933
0.00196524
0.00193376
0.00201545
0.00249239
0.00330131
0.00452952
0.00557629
0.00636248
0.00813267
0.0109997
0.0158749
0.0246784
0.0401759
0.061146
0.0858839
0.112576
0.139509
0.16485
0.187129
0.205444
0.219465
0.228299
0.229967
0.229998
0.23
0.23
0.23
0.23
0.23
0.23
0.23
0.23
0.23
0.23
0.23
0.23
0.23
0.00118472
0.00139787
0.00173383
0.00221817
0.00216655
0.00223893
0.0027364
0.00358094
0.00485678
0.0059212
0.00670337
0.00847697
0.0113232
0.0161061
0.0246179
0.0393855
0.0594663
0.0833709
0.109413
0.13595
0.161283
0.183815
0.202603
0.217185
0.227157
0.229922
0.229997
0.23
0.23
0.23
0.23
0.23
0.23
0.23
0.23
0.23
0.23
0.23
0.23
0.23
0.0013307
0.00157788
0.00196284
0.00251689
0.00243967
0.00250067
0.00302178
0.00390502
0.00522604
0.00630982
0.0070913
0.0088768
0.0117169
0.0164355
0.024715
0.0388017
0.0580131
0.0810759
0.106444
0.132534
0.157795
0.180531
0.199738
0.214856
0.22572
0.229808
0.229995
0.229999
0.23
0.23
0.23
0.23
0.23
0.23
0.23
0.23
0.23
0.23
0.23
0.23
0.00150365
0.00179022
0.00223353
0.00287163
0.00276213
0.00280717
0.003355
0.00428503
0.0056578
0.00674771
0.00752803
0.00933352
0.0121821
0.0168632
0.0249659
0.0384224
0.0567885
0.0790035
0.10367
0.129288
0.154392
0.177284
0.196866
0.212491
0.224074
0.229562
0.229992
0.229999
0.23
0.23
0.23
0.23
0.23
0.23
0.23
0.23
0.23
0.23
0.23
0.23
0.00170785
0.00204138
0.0025552
0.0032981
0.00314484
0.00316891
0.0037439
0.00472769
0.00616786
0.00726703
0.00802001
0.00984836
0.0127187
0.0173875
0.0253644
0.0382428
0.0557926
0.0771589
0.101097
0.126202
0.151065
0.17408
0.193995
0.210111
0.222291
0.229122
0.229984
0.229999
0.23
0.23
0.23
0.23
0.23
0.23
0.23
0.23
0.23
0.23
0.23
0.23
0.00194948
0.00233999
0.00294172
0.00381765
0.0036052
0.00359794
0.00420322
0.00524257
0.00676015
0.00788515
0.00861011
0.0104291
0.0133267
0.018006
0.0259028
0.0382556
0.0550227
0.0755452
0.0987347
0.123284
0.147842
0.170922
0.19113
0.20771
0.220417
0.228436
0.229968
0.229998
0.23
0.23
0.23
0.23
0.23
0.23
0.23
0.23
0.23
0.23
0.23
0.23
0.00223683
0.00269869
0.00341225
0.00445975
0.00416636
0.00411446
0.00474707
0.00585266
0.0074466
0.00860003
0.00931601
0.0111435
0.0140152
0.0187156
0.0265723
0.0384512
0.0544734
0.0741626
0.0965875
0.120548
0.144741
0.167821
0.188275
0.205283
0.218482
0.227478
0.22993
0.229997
0.23
0.23
0.23
0.23
0.23
0.23
0.23
0.23
0.23
0.23
0.23
0.23
0.00258195
0.0031351
0.00399349
0.00527367
0.00486007
0.0047446
0.00540369
0.00657301
0.00826576
0.00942638
0.0101297
0.0120049
0.0148979
0.019525
0.0273642
0.038819
0.0541369
0.0730092
0.0946587
0.117999
0.141798
0.16479
0.185438
0.202828
0.216499
0.226281
0.22984
0.229996
0.23
0.23
0.23
0.23
0.23
0.23
0.23
0.23
0.23
0.23
0.23
0.23
0.00300169
0.00367391
0.00472892
0.00633507
0.00574069
0.00552388
0.00620611
0.00744724
0.00922749
0.0104213
0.0110688
0.0129903
0.015971
0.020639
0.0282801
0.0393478
0.0540039
0.072081
0.09295
0.115643
0.139004
0.16182
0.182629
0.20036
0.214478
0.224907
0.229653
0.229993
0.229999
0.23
0.23
0.23
0.23
0.23
0.23
0.23
0.23
0.23
0.23
0.23
0.00351978
0.00435472
0.0056867
0.00779217
0.00689007
0.00651524
0.00719859
0.00851725
0.0104048
0.0115805
0.0122072
0.0141248
0.0171829
0.0220007
0.0294119
0.0400343
0.0540642
0.0713718
0.0914616
0.113484
0.136365
0.158941
0.179853
0.197888
0.212439
0.223409
0.229321
0.229987
0.229999
0.23
0.23
0.23
0.23
0.23
0.23
0.23
0.23
0.23
0.23
0.23
0.00417391
0.00524029
0.00699833
0.00997572
0.00847078
0.00781057
0.00846759
0.00983928
0.0118461
0.0130136
0.0135255
0.0155207
0.0185755
0.0235061
0.0307478
0.0409138
0.0543123
0.0708742
0.0901913
0.111526
0.133891
0.156171
0.177123
0.19542
0.210381
0.221825
0.228805
0.229977
0.229999
0.23
0.23
0.23
0.23
0.23
0.23
0.23
0.23
0.23
0.23
0.23
0.0050242
0.00645064
0.00895576
0.013401
0.0108458
0.00959636
0.0101276
0.0115419
0.0136211
0.014765
0.0151676
0.017114
0.0203305
0.025157
0.032234
0.0419829
0.0547582
0.0705837
0.0891354
0.109772
0.131591
0.153532
0.174451
0.192962
0.208304
0.220182
0.22807
0.229952
0.229998
0.23
0.23
0.23
0.23
0.23
0.23
0.23
0.23
0.23
0.23
0.23
0.00618506
0.0082528
0.0122052
0.0176196
0.0143701
0.0122754
0.0124278
0.0137666
0.0159297
0.0169129
0.0171708
0.0191321
0.0222718
0.027042
0.0338595
0.0432131
0.0553964
0.0705008
0.0882918
0.10822
0.129468
0.151035
0.171841
0.190522
0.206203
0.218495
0.227129
0.229898
0.229997
0.23
0.23
0.23
0.23
0.23
0.23
0.23
0.23
0.23
0.23
0.23
0.00791191
0.0113447
0.0163758
0.0222892
0.0186143
0.0159456
0.015627
0.0167183
0.0187501
0.0195003
0.0195659
0.0214379
0.0244924
0.0290904
0.0356604
0.0445919
0.0562094
0.0706179
0.0876591
0.106872
0.127524
0.14868
0.169304
0.188109
0.204087
0.21677
0.226019
0.229784
0.229995
0.23
0.23
0.23
0.23
0.23
0.23
0.23
0.23
0.23
0.23
0.23
0.0109164
0.0154688
0.0210563
0.0271847
0.0232703
0.0202259
0.0194939
0.0202485
0.0220279
0.0224835
0.0223147
0.0240302
0.0269351
0.031337
0.0376093
0.0461284
0.0571857
0.0709221
0.0872306
0.105727
0.125763
0.146471
0.16686
0.185732
0.20197
0.215024
0.224788
0.229574
0.229991
0.229999
0.23
0.23
0.23
0.23
0.23
0.23
0.23
0.23
0.23
0.23
0.0150131
0.0201522
0.0259915
0.0321607
0.028132
0.0248578
0.0237952
0.0242127
0.0256804
0.0258221
0.0253842
0.0268878
0.0295911
0.0337582
0.0397167
0.0478097
0.0583226
0.0714036
0.086996
0.104783
0.124189
0.144417
0.164521
0.183405
0.199859
0.213265
0.22347
0.229235
0.229985
0.229999
0.23
0.23
0.23
0.23
0.23
0.23
0.23
0.23
0.23
0.23
0.019696
0.0251136
0.0310208
0.037124
0.0330644
0.0296644
0.0283499
0.0284659
0.0296166
0.0294552
0.028743
0.0299885
0.0324477
0.0363456
0.0419714
0.0496358
0.0596102
0.072055
0.0869472
0.104031
0.1228
0.142524
0.162306
0.181137
0.197764
0.211495
0.222089
0.228735
0.229973
0.229999
0.23
0.23
0.23
0.23
0.23
0.23
0.23
0.23
0.23
0.23
0.0246695
0.0301803
0.0360433
0.0420156
0.0379802
0.0345268
0.0330266
0.0328866
0.0337422
0.0333119
0.0323441
0.03331
0.0354903
0.039091
0.0443663
0.0515988
0.061044
0.0728673
0.0870764
0.103466
0.121594
0.140794
0.160224
0.178935
0.195691
0.209714
0.220666
0.228058
0.229947
0.229998
0.23
0.23
0.23
0.23
0.23
0.23
0.23
0.23
0.23
0.23
0.0297544
0.0352449
0.0409954
0.0467987
0.0428235
0.0393664
0.0377331
0.0373817
0.0379746
0.0373173
0.0361297
0.0368184
0.0387027
0.0419838
0.0468951
0.0536922
0.062616
0.0738334
0.087375
0.10308
0.120566
0.139226
0.158274
0.176806
0.193649
0.207922
0.219211
0.22722
0.229893
0.229997
0.23
0.23
0.23
0.23
0.23
0.23
0.23
0.23
0.23
0.23
0.0348397
0.0402405
0.0458379
0.0514512
0.0475593
0.0441323
0.0424064
0.0418833
0.0422477
0.0414046
0.040038
0.0404698
0.0420603
0.0450121
0.0495491
0.0559096
0.0643191
0.0749451
0.0878357
0.102868
0.119711
0.13782
0.156459
0.174766
0.191645
0.20613
0.21773
0.226254
0.229787
0.229995
0.23
0.23
0.23
0.23
0.23
0.23
0.23
0.23
0.23
0.23
0.0398567
0.0451259
0.0505474
0.0559606
0.0521664
0.0487922
0.0470048
0.0463432
0.0465117
0.0455192
0.0440124
0.0442157
0.0455296
0.048157
0.0523185
0.0582431
0.0661466
0.0761943
0.0884499
0.102822
0.119026
0.136572
0.154779
0.172825
0.189691
0.204348
0.216238
0.225193
0.229601
0.229992
0.229999
0.23
0.23
0.23
0.23
0.23
0.23
0.23
0.23
0.23
0.0447634
0.0498768
0.055111
0.0603211
0.0566328
0.0533265
0.0515011
0.0507286
0.0507302
0.0496195
0.048006
0.0480107
0.0490724
0.0513925
0.055188
0.0606835
0.0680903
0.0775738
0.0892096
0.102934
0.118505
0.135483
0.153236
0.170989
0.187796
0.202584
0.214743
0.224063
0.229313
0.229986
0.229999
0.23
0.23
0.23
0.23
0.23
0.23
0.23
0.23
0.23
0.0495349
0.0544796
0.0595224
0.064531
0.0609529
0.0577239
0.0558784
0.0550178
0.0548777
0.0536747
0.0519825
0.0518169
0.0526527
0.0546882
0.0581364
0.0632175
0.0701408
0.079075
0.090107
0.103198
0.118142
0.134548
0.151835
0.169263
0.185967
0.200847
0.213247
0.222885
0.228895
0.229976
0.229999
0.23
0.23
0.23
0.23
0.23
0.23
0.23
0.23
0.23
0.0541573
0.058928
0.0637799
0.0685915
0.065125
0.0619792
0.0601271
0.0591967
0.0589367
0.0576626
0.0559145
0.0556041
0.0562393
0.0580149
0.061139
0.065827
0.0722859
0.0806883
0.0911334
0.103605
0.117932
0.133766
0.150572
0.167657
0.18421
0.199143
0.211751
0.221676
0.228336
0.229956
0.229998
0.23
0.23
0.23
0.23
0.23
0.23
0.23
0.23
0.23
0.0586241
0.0632201
0.0678848
0.0725054
0.0691502
0.0660905
0.0642422
0.0632573
0.0628959
0.061568
0.0597825
0.0593493
0.0598075
0.0613471
0.0641716
0.0684911
0.0745095
0.0824018
0.0922792
0.104147
0.117866
0.133129
0.149447
0.166169
0.182527
0.197477
0.210257
0.220445
0.227645
0.229915
0.229997
0.23
0.23
0.23
0.23
0.23
0.23
0.23
0.23
0.23
0.0629336
0.0673573
0.07184
0.0762768
0.0730312
0.070059
0.0682224
0.0671951
0.0667482
0.0653806
0.0635726
0.0630358
0.063338
0.0646642
0.0672128
0.0711891
0.0767931
0.0842009
0.0935329
0.104815
0.117938
0.132634
0.148457
0.164798
0.180927
0.195855
0.208772
0.219198
0.226847
0.229838
0.229996
0.23
0.23
0.23
0.23
0.23
0.23
0.23
0.23
0.23
0.067087
0.0713427
0.07565
0.0799105
0.0767721
0.0738873
0.0720682
0.0710088
0.0704898
0.0690942
0.0672753
0.0666514
0.0668166
0.0679502
0.0702453
0.0739026
0.0791186
0.0860689
0.0948811
0.105598
0.11814
0.132274
0.147597
0.163543
0.179415
0.194284
0.207304
0.217946
0.225969
0.229705
0.229993
0.229999
0.23
0.23
0.23
0.23
0.23
0.23
0.23
0.23
0.0710875
0.0751807
0.0793194
0.0834115
0.0803774
0.077579
0.075782
0.0746989
0.0741192
0.072705
0.0708847
0.0701878
0.0702328
0.0711926
0.0732552
0.0766165
0.0814697
0.0879896
0.0963087
0.106484
0.118462
0.132043
0.146865
0.162402
0.177995
0.19277
0.205861
0.216697
0.225032
0.229497
0.22999
0.229999
0.23
0.23
0.23
0.23
0.23
0.23
0.23
0.23
0.0749395
0.0788763
0.0828537
0.0867845
0.0838519
0.0811384
0.079367
0.078267
0.0776365
0.0762115
0.0743973
0.0736396
0.0735791
0.0743824
0.0762317
0.0793186
0.0838327
0.089948
0.0978007
0.10746
0.118892
0.131932
0.146254
0.161375
0.176669
0.191318
0.204448
0.215456
0.224053
0.229195
0.229983
0.229999
0.23
0.23
0.23
0.23
0.23
0.23
0.23
0.23
0.0786483
0.0824349
0.0862577
0.0900357
0.0872003
0.0845703
0.082827
0.081716
0.0810431
0.0796135
0.0778113
0.0770032
0.0768505
0.077513
0.0791669
0.0819992
0.0861965
0.0919316
0.0993436
0.108511
0.11942
0.131932
0.14576
0.160457
0.175437
0.189931
0.203069
0.214224
0.223048
0.228784
0.229971
0.229999
0.23
0.23
0.23
0.23
0.23
0.23
0.23
0.23
0.0822191
0.0858616
0.0895377
0.0931698
0.0904285
0.0878791
0.0861662
0.0850489
0.0843409
0.0829121
0.0811266
0.0802771
0.0800437
0.0805795
0.0820546
0.084651
0.0885521
0.0939297
0.100925
0.109626
0.120033
0.132034
0.145374
0.159646
0.174298
0.188612
0.201728
0.213
0.222029
0.228265
0.229948
0.229998
0.23
0.23
0.23
0.23
0.23
0.23
0.23
0.23
0.0856571
0.0891628
0.0926987
0.0961917
0.0935413
0.0910703
0.0893884
0.0882694
0.0875326
0.0861087
0.0843437
0.0834605
0.0831567
0.0835787
0.0848903
0.0872683
0.0908925
0.0959339
0.102536
0.110793
0.12072
0.132227
0.145089
0.158936
0.173252
0.187363
0.200428
0.211789
0.220999
0.22765
0.229904
0.229997
0.23
0.23
0.23
0.23
0.23
0.23
0.23
0.23
0.0889689
0.0923435
0.0957457
0.0991063
0.0965433
0.0941486
0.0924991
0.0913809
0.090621
0.0892058
0.0874641
0.0865538
0.0861887
0.0865085
0.0876707
0.0898465
0.0932122
0.0979373
0.104167
0.112002
0.12147
0.132501
0.144898
0.158322
0.172294
0.186185
0.199174
0.210595
0.219965
0.226961
0.229827
0.229996
0.23
0.23
0.23
0.23
0.23
0.23
0.23
0.23
0.0921596
0.0954089
0.0986838
0.101918
0.0994394
0.0971185
0.0955021
0.0943879
0.093609
0.0922056
0.0904897
0.089558
0.0891397
0.0893677
0.0903934
0.0923824
0.0955067
0.0999344
0.105813
0.113246
0.122276
0.132847
0.144791
0.157797
0.171421
0.185077
0.197967
0.209424
0.218935
0.226215
0.229704
0.229993
0.229999
0.23
0.23
0.23
0.23
0.23
0.23
0.23
0.0952343
0.0983641
0.101518
0.104632
0.102234
0.0999845
0.0984016
0.097294
0.0965004
0.0951106
0.0934226
0.0924746
0.0920101
0.0921559
0.093057
0.0948732
0.0977725
0.101921
0.107466
0.114518
0.123128
0.133258
0.144761
0.157356
0.17063
0.184038
0.19681
0.208279
0.217915
0.225428
0.229521
0.22999
0.229999
0.23
0.23
0.23
0.23
0.23
0.23
0.23
0.0981981
0.101214
0.104252
0.107252
0.104932
0.102751
0.101202
0.100103
0.0992984
0.0979244
0.0962648
0.0953053
0.0948009
0.0948731
0.0956605
0.0973173
0.100007
0.103892
0.109122
0.115812
0.124021
0.133726
0.144801
0.156993
0.169918
0.183066
0.195702
0.207164
0.216906
0.224614
0.229263
0.229984
0.229999
0.23
0.23
0.23
0.23
0.23
0.23
0.23
0.101056
0.103963
0.106891
0.109783
0.107537
0.105423
0.103907
0.102818
0.102006
0.10065
0.0990199
0.0980517
0.0975135
0.0975198
0.0982035
0.0997131
0.102207
0.105846
0.110779
0.117123
0.124948
0.134244
0.144904
0.156701
0.169278
0.182157
0.194645
0.206079
0.21591
0.223784
0.228921
0.229973
0.229999
0.23
0.23
0.23
0.23
0.23
0.23
0.23
0.103813
0.106617
0.10944
0.112228
0.110053
0.108003
0.106521
0.105444
0.104627
0.103289
0.10169
0.100717
0.100149
0.100097
0.100686
0.10206
0.104372
0.107779
0.112431
0.118448
0.125905
0.134808
0.145066
0.156475
0.168707
0.18131
0.193637
0.205027
0.214925
0.222945
0.228497
0.229954
0.229998
0.23
0.23
0.23
0.23
0.23
0.23
0.23
0.106474
0.109178
0.111902
0.114592
0.112485
0.110496
0.109047
0.107983
0.107163
0.105846
0.104278
0.103302
0.10271
0.102605
0.103108
0.104357
0.106499
0.10969
0.114076
0.119782
0.126888
0.135412
0.14528
0.15631
0.1682
0.180524
0.192679
0.204007
0.213952
0.222102
0.227998
0.229921
0.229997
0.23
0.23
0.23
0.23
0.23
0.23
0.23
0.109042
0.111653
0.114281
0.116878
0.114836
0.112906
0.11149
0.110439
0.109619
0.108322
0.106786
0.105811
0.105198
0.105045
0.10547
0.106603
0.108589
0.111576
0.115712
0.121122
0.127893
0.136052
0.145543
0.156203
0.167754
0.179796
0.191769
0.203021
0.212995
0.221257
0.22744
0.229864
0.229996
0.23
0.23
0.23
0.23
0.23
0.23
0.23
0.111523
0.114044
0.116582
0.11909
0.11711
0.115237
0.113852
0.112816
0.111997
0.110722
0.109217
0.108244
0.107614
0.10742
0.107773
0.1088
0.110639
0.113437
0.117336
0.122465
0.128916
0.136725
0.14585
0.156148
0.167365
0.179124
0.190907
0.202069
0.212056
0.220417
0.226837
0.229775
0.229994
0.23
0.23
0.23
0.23
0.23
0.23
0.23
0.113919
0.116356
0.118808
0.121233
0.119312
0.117492
0.116138
0.115117
0.1143
0.113047
0.111573
0.110605
0.109961
0.10973
0.110018
0.110947
0.11265
0.115269
0.118946
0.123809
0.129954
0.137427
0.146198
0.156144
0.16703
0.178506
0.190091
0.201153
0.211137
0.219585
0.226199
0.229643
0.229992
0.229999
0.23
0.23
0.23
0.23
0.23
0.23
0.116237
0.118592
0.120964
0.12331
0.121444
0.119675
0.118351
0.117345
0.116532
0.1153
0.113858
0.112896
0.11224
0.111977
0.112206
0.113044
0.114621
0.117073
0.120541
0.125151
0.131005
0.138154
0.146584
0.156187
0.166748
0.177941
0.189321
0.200271
0.210241
0.218763
0.225537
0.229459
0.229988
0.229999
0.23
0.23
0.23
0.23
0.23
0.23
0.118479
0.120758
0.123054
0.125325
0.123511
0.12179
0.120495
0.119503
0.118695
0.117485
0.116074
0.115119
0.114455
0.114162
0.114338
0.115093
0.116551
0.118848
0.122118
0.12649
0.132066
0.138905
0.147005
0.156273
0.166516
0.177428
0.188594
0.199424
0.209367
0.217952
0.224861
0.229213
0.229981
0.229999
0.23
0.23
0.23
0.23
0.23
0.23
0.12065
0.122857
0.125081
0.127282
0.125516
0.123841
0.122572
0.121595
0.120791
0.119604
0.118223
0.117276
0.116605
0.116287
0.116414
0.117092
0.118442
0.120592
0.123677
0.127822
0.133134
0.139677
0.147457
0.1564
0.16633
0.176963
0.187908
0.198612
0.208515
0.217151
0.224177
0.228903
0.22997
0.229999
0.23
0.23
0.23
0.23
0.23
0.23
0.122753
0.124892
0.127049
0.129186
0.127465
0.125831
0.124587
0.123623
0.122825
0.121659
0.120308
0.11937
0.118695
0.118354
0.118437
0.119044
0.120292
0.122306
0.125217
0.129148
0.134207
0.140466
0.147939
0.156565
0.166188
0.176544
0.187264
0.197833
0.207688
0.216359
0.223489
0.228532
0.22995
0.229998
0.23
0.23
0.23
0.23
0.23
0.23
0.124793
0.126869
0.128964
0.131041
0.12936
0.127764
0.126542
0.125592
0.124799
0.123654
0.122331
0.121404
0.120724
0.120364
0.120407
0.120949
0.122103
0.123989
0.126735
0.130464
0.135284
0.14127
0.148448
0.156767
0.166089
0.17617
0.186662
0.197089
0.206884
0.215578
0.222798
0.228109
0.229918
0.229997
0.23
0.23
0.23
0.23
0.23
0.23
0.126774
0.128792
0.130829
0.132852
0.131207
0.129644
0.128443
0.127503
0.126715
0.12559
0.124296
0.123378
0.122697
0.122319
0.122325
0.122808
0.123874
0.125641
0.128232
0.13177
0.136362
0.142088
0.14898
0.157002
0.166029
0.175838
0.186101
0.196378
0.206104
0.214809
0.222108
0.227642
0.229866
0.229996
0.23
0.23
0.23
0.23
0.23
0.23
0.1287
0.130665
0.13265
0.134623
0.133009
0.131476
0.130292
0.129362
0.128578
0.127472
0.126204
0.125296
0.124614
0.124221
0.124194
0.124621
0.125606
0.127261
0.129707
0.133064
0.13744
0.142917
0.149535
0.157268
0.166008
0.175549
0.185582
0.195701
0.205349
0.214055
0.221422
0.227141
0.229789
0.229994
0.23
0.23
0.23
0.23
0.23
0.23
0.130577
0.132492
0.13443
0.136359
0.134772
0.133264
0.132093
0.13117
0.13039
0.129302
0.128059
0.127161
0.126478
0.126072
0.126014
0.12639
0.127299
0.12885
0.131159
0.134345
0.138515
0.143755
0.150109
0.157563
0.166022
0.175299
0.185104
0.195056
0.204619
0.213315
0.220744
0.226615
0.229679
0.229992
0.229999
0.23
0.23
0.23
0.23
0.23
0.132409
0.13428
0.136176
0.138065
0.1365
0.135012
0.133851
0.132933
0.132155
0.131082
0.129863
0.128974
0.128291
0.127873