/*--------------------------------*- C++ -*----------------------------------*\
| =========                 |                                                 |
| \\      /  F ield         | OpenFOAM: The Open Source CFD Toolbox           |
|  \\    /   O peration     | Version:  1.6.x                                 |
|   \\  /    A nd           | Web:      www.OpenFOAM.org                      |
|    \\/     M anipulation  |                                                 |
\*---------------------------------------------------------------------------*/
FoamFile
{
    version     2.0;
    format      ascii;
    class       surfaceScalarField;
    location    "7000";
    object      phi;
}
// * * * * * * * * * * * * * * * * * * * * * * * * * * * * * * * * * * * * * //

dimensions      [1 0 -1 0 0 0 0];

internalField   nonuniform List<scalar> 
9023
(
-1.1311e-05
5.4487e-07
1.07662e-05
-1.12403e-05
-7.07629e-08
-9.78325e-06
2.13547e-07
1.01146e-05
-1.3919e-07
8.77254e-06
2.13281e-06
-1.11666e-05
-7.37035e-08
-9.78848e-06
-6.55525e-08
-6.35872e-06
3.7204e-08
6.53508e-06
4.47738e-08
9.93062e-06
-1.738e-07
7.8368e-06
1.10956e-06
1.12096e-06
1.01184e-06
-1.11016e-05
-6.49213e-08
-9.79499e-06
-6.7206e-08
-6.39707e-06
-2.71893e-08
-2.17737e-06
2.21458e-06
2.18183e-08
6.55804e-06
3.51028e-08
9.72177e-06
-3.23894e-07
7.21266e-06
9.48034e-07
1.05266e-06
1.17786e-06
2.69263e-06
-1.53965e-06
-1.4114e-07
-1.10399e-05
-6.17531e-08
-9.79432e-06
-6.55412e-08
-6.43411e-06
-3.01747e-08
-2.20455e-06
2.23641e-06
2.06727e-08
6.5725e-06
-1.96311e-08
9.41751e-06
-3.96312e-07
6.70405e-06
9.04925e-07
1.00526e-06
9.9543e-07
3.20717e-06
6.63329e-07
-5.88741e-07
-9.50903e-07
1.77155e-06
-1.59407e-06
-3.18622e-07
-1.09838e-05
-5.60994e-08
-9.79346e-06
-6.26039e-08
-6.47079e-06
-2.88519e-08
-2.23471e-06
2.25709e-06
5.39207e-09
6.54747e-06
-4.77014e-08
9.0689e-06
-4.31272e-07
6.4256e-06
7.09735e-07
9.84897e-07
9.25287e-07
3.43871e-06
7.63879e-07
2.17599e-06
2.5889e-07
-4.44829e-07
-1.73798e-06
1.91905e-09
-9.52822e-07
1.61633e-06
-1.71973e-06
-2.15223e-07
-1.09326e-05
-5.11498e-08
-9.78983e-06
-5.97461e-08
-6.50489e-06
-2.84835e-08
-2.26356e-06
2.26249e-06
9.24992e-10
6.49885e-06
-7.91925e-08
8.71684e-06
-4.56593e-07
5.66048e-06
1.22169e-06
1.00055e-06
6.9408e-07
3.56415e-06
7.99841e-07
2.54304e-06
3.96829e-07
1.6711e-06
2.04117e-07
-2.18838e-07
-1.94572e-06
-1.66846e-08
-1.71937e-06
-1.68274e-08
-9.35994e-07
1.19351e-06
-1.1733e-06
-2.35433e-07
-1.08871e-05
-4.55014e-08
-9.7842e-06
-5.67491e-08
-6.53693e-06
-2.76898e-08
-2.29203e-06
2.26342e-06
-4.80836e-09
6.42446e-06
-7.57042e-08
8.33593e-06
-5.48372e-07
4.50291e-06
1.70595e-06
1.04123e-06
1.18101e-06
3.65572e-06
6.0251e-07
2.82381e-06
5.19073e-07
1.88414e-06
1.83793e-07
1.38043e-06
1.71916e-08
-1.39214e-06
-5.96227e-09
-1.95644e-06
-9.94068e-09
-1.72626e-06
-7.15951e-09
-9.28834e-07
3.02832e-07
-5.38265e-07
-1.08481e-05
-3.90366e-08
-9.77584e-06
-5.3855e-08
-6.5667e-06
-2.69964e-08
-2.31972e-06
2.25862e-06
-2.53609e-09
6.35132e-06
-7.74816e-08
7.86504e-06
-6.34072e-07
3.91666e-06
1.22033e-06
1.02125e-06
1.72593e-06
3.94539e-06
8.9133e-07
3.01004e-06
4.16278e-07
2.18715e-06
2.16057e-07
1.56384e-06
3.90662e-10
3.58312e-07
-3.82885e-08
-1.3981e-06
2.38962e-09
-1.96877e-06
-2.30959e-10
-1.73319e-06
-8.31518e-09
-9.2052e-07
6.8996e-07
-4.90771e-07
-1.08159e-05
-3.22111e-08
-9.76481e-06
-5.00818e-08
-6.59435e-06
-2.61905e-08
-2.34671e-06
2.25609e-06
-8.60169e-10
6.27469e-06
-1.23576e-07
7.35456e-06
-5.80807e-07
3.62932e-06
8.6815e-07
9.62944e-07
1.27864e-06
4.25219e-06
1.41913e-06
3.27222e-06
6.29158e-07
2.43394e-06
1.69485e-07
1.75056e-06
2.9333e-08
4.02503e-07
-4.37997e-08
7.73684e-07
-1.22012e-07
-1.39571e-06
9.47567e-09
-1.97847e-06
-2.05827e-10
-1.7413e-06
-8.37842e-09
-9.1214e-07
8.10243e-07
-4.17719e-07
-1.07907e-05
-2.51151e-08
-9.75132e-06
-4.56955e-08
-6.619e-06
-2.54194e-08
-2.37289e-06
2.25524e-06
-9.67657e-09
6.1608e-06
-1.31508e-07
6.90526e-06
-5.59603e-07
3.44582e-06
7.43106e-07
9.15567e-07
9.15527e-07
4.32973e-06
1.20108e-06
3.60216e-06
1.08918e-06
2.73082e-06
3.32278e-07
1.90611e-06
1.39317e-08
4.50461e-07
-1.86258e-08
8.75396e-07
-1.45512e-07
8.45389e-07
-1.57157e-07
-1.38623e-06
9.55574e-09
-1.98823e-06
-1.69751e-10
-1.74951e-06
-8.84613e-09
-9.03293e-07
9.78824e-07
-3.37259e-07
-1.0773e-05
-1.76792e-08
-9.73507e-06
-4.13377e-08
-6.64001e-06
-2.46664e-08
-2.3983e-06
2.24557e-06
-1.09508e-08
6.04025e-06
-1.47013e-07
6.4927e-06
-4.70253e-07
3.33187e-06
5.84205e-07
8.81518e-07
7.77156e-07
4.30475e-06
9.40501e-07
3.82213e-06
9.81113e-07
3.08642e-06
7.33588e-07
2.12171e-06
1.16679e-07
4.93156e-07
-2.87628e-08
9.85206e-07
-1.28436e-07
9.26534e-07
-2.26656e-07
9.90889e-07
-1.69222e-07
-1.37667e-06
9.85704e-09
-1.99826e-06
-2.02961e-10
-1.75815e-06
-9.3765e-09
-8.93918e-07
1.20619e-06
-2.71493e-07
-1.07626e-05
-1.03946e-08
-9.71579e-06
-3.69471e-08
-6.65743e-06
-2.39276e-08
-2.42296e-06
2.23464e-06
-1.46201e-08
5.90788e-06
-1.65961e-07
6.18841e-06
-7.87639e-07
3.35403e-06
7.65466e-07
8.57385e-07
6.08338e-07
4.24526e-06
8.36645e-07
3.9564e-06
8.06229e-07
3.35835e-06
7.09185e-07
2.4505e-06
4.04801e-07
5.39593e-07
7.02427e-08
1.0869e-06
-1.30452e-07
1.03731e-06
-2.39213e-07
1.02026e-06
-2.56029e-07
1.21549e-06
-1.78518e-07
-1.36682e-06
1.0237e-08
-2.0087e-06
-3.75083e-10
-1.76715e-06
-9.89412e-09
-8.84022e-07
1.4793e-06
-2.21762e-07
-1.0758e-05
-4.56667e-09
-9.69304e-06
-3.31579e-08
-6.67113e-06
-2.32292e-08
-2.44688e-06
2.22002e-06
-2.21674e-08
5.76408e-06
-1.7611e-07
5.57685e-06
-1.12015e-06
3.37977e-06
1.09442e-06
8.62435e-07
7.60416e-07
4.16553e-06
6.8807e-07
4.03902e-06
7.54028e-07
3.55649e-06
6.08085e-07
2.75323e-06
4.06453e-07
5.98298e-07
3.46095e-07
1.19202e-06
-3.48807e-08
1.15131e-06
-2.44451e-07
1.10809e-06
-3.27038e-07
1.20741e-06
-2.47948e-07
1.48611e-06
-1.85329e-07
-1.35658e-06
1.06552e-08
-2.01973e-06
-5.12261e-10
-1.77653e-06
-1.02452e-08
-8.73776e-07
1.80169e-06
-1.83304e-07
-1.07595e-05
1.50136e-09
-9.66588e-06
-3.16754e-08
-6.68172e-06
-2.25512e-08
-2.47009e-06
2.19786e-06
-2.16138e-08
5.60958e-06
-2.20154e-07
4.67687e-06
-8.97282e-07
3.29382e-06
9.83234e-07
8.80853e-07
1.076e-06
4.17005e-06
7.55895e-07
4.07442e-06
6.52672e-07
3.70806e-06
6.02449e-07
2.99917e-06
3.62142e-07
6.62489e-07
3.42263e-07
1.30788e-06
2.30236e-07
1.27483e-06
-1.58394e-07
1.22087e-06
-3.5723e-07
1.23542e-06
-3.55046e-07
1.48067e-06
-2.42502e-07
1.80287e-06
-1.86502e-07
-1.34592e-06
1.1283e-08
-2.03153e-06
-4.97427e-10
-1.78628e-06
-1.01522e-08
-8.63625e-07
2.18451e-06
-1.51397e-07
-1.07672e-05
7.646e-09
-9.63444e-06
-2.99531e-08
-6.6917e-06
-2.16977e-08
-2.49263e-06
2.17626e-06
-2.28644e-08
5.4123e-06
-2.72212e-07
4.0518e-06
-6.99541e-07
3.15116e-06
8.42195e-07
8.8121e-07
9.82878e-07
4.24881e-06
9.97229e-07
4.13557e-06
6.94749e-07
3.81338e-06
5.4735e-07
3.20117e-06
4.0045e-07
7.26197e-07
2.98434e-07
1.42427e-06
2.2587e-07
1.40196e-06
1.03105e-07
1.36095e-06
-2.98476e-07
1.31121e-06
-4.33018e-07
1.47803e-06
-3.52406e-07
1.80376e-06
-2.434e-07
2.18113e-06
-1.83125e-07
-1.33464e-06
1.25521e-08
-2.04458e-06
-3.03705e-10
-1.79613e-06
-9.4563e-09
-8.54168e-07
2.64504e-06
-1.23856e-07
-1.07791e-05
1.18718e-08
-9.59894e-06
-2.78711e-08
-6.70065e-06
-2.09972e-08
-2.51433e-06
2.1534e-06
-3.26507e-08
5.17276e-06
-2.87235e-07
3.6395e-06
-5.43193e-07
2.98971e-06
7.04655e-07
8.64642e-07
8.58763e-07
4.28936e-06
9.42328e-07
4.24063e-06
8.92158e-07
3.92593e-06
5.822e-07
3.3574e-06
3.91115e-07
7.82809e-07
3.43838e-07
1.53835e-06
1.84358e-07
1.52062e-06
1.07206e-07
1.50718e-06
-4.31248e-08
1.45604e-06
-4.4331e-07
1.48648e-06
-4.41473e-07
1.79898e-06
-3.47619e-07
2.1824e-06
-2.44669e-07
2.63949e-06
-1.77579e-07
-1.32209e-06
1.43444e-08
-2.05922e-06
-2.7416e-10
-1.80531e-06
-7.99791e-09
-8.46169e-07
3.20142e-06
-1.00492e-07
-1.07945e-05
1.54872e-08
-9.56002e-06
-2.70483e-08
-6.70797e-06
-2.05518e-08
-2.53531e-06
2.12076e-06
-3.71247e-08
4.92265e-06
-2.70028e-07
3.36634e-06
-5.92612e-07
2.87702e-06
7.05297e-07
8.3955e-07
7.29747e-07
4.29418e-06
8.53936e-07
4.32224e-06
8.60729e-07
4.06711e-06
7.50978e-07
3.50927e-06
4.30327e-07
8.32241e-07
3.41682e-07
1.65406e-06
2.28123e-07
1.63456e-06
7.04211e-08
1.63895e-06
-2.45679e-08
1.6174e-06
-2.04481e-07
1.5708e-06
-5.27629e-07
1.79227e-06
-4.34763e-07
2.17878e-06
-3.44002e-07
2.63923e-06
-2.44403e-07
3.1948e-06
-1.70956e-07
-1.30774e-06
1.55427e-08
-2.07504e-06
-5.48397e-10
-1.81275e-06
-5.90674e-09
-8.40263e-07
3.87593e-06
-8.19903e-08
-1.08144e-05
1.99168e-08
-9.51703e-06
-2.74417e-08
-6.71444e-06
-2.056e-08
-2.55587e-06
2.08364e-06
-4.39814e-08
4.6966e-06
-4.59377e-07
3.2331e-06
-7.30882e-07
2.80856e-06
7.99337e-07
8.20094e-07
7.24753e-07
4.26053e-06
7.63402e-07
4.38273e-06
7.93443e-07
4.18568e-06
7.4216e-07
3.67822e-06
5.82031e-07
8.807e-07
3.81869e-07
1.77117e-06
2.24579e-07
1.74612e-06
1.16561e-07
1.76407e-06
-5.46946e-08
1.7645e-06
-1.71665e-07
1.73815e-06
-3.71838e-07
1.78825e-06
-5.23611e-07
2.17075e-06
-4.26737e-07
2.63483e-06
-3.39604e-07
3.19265e-06
-2.42257e-07
3.86836e-06
-1.63383e-07
-1.2922e-06
1.54244e-08
-2.09101e-06
-1.44046e-09
-1.81722e-06
-3.41031e-09
-8.36852e-07
4.69242e-06
-6.82057e-08
-1.08311e-05
1.6641e-08
-9.4655e-06
-3.16365e-08
-6.72097e-06
-2.0895e-08
-2.57642e-06
2.03966e-06
-5.14939e-08
4.28871e-06
-6.29083e-07
3.13129e-06
-6.98066e-07
2.73752e-06
7.69108e-07
8.09495e-07
8.09936e-07
4.23089e-06
7.54392e-07
4.41788e-06
7.28254e-07
4.28238e-06
6.96741e-07
3.82572e-06
5.94663e-07
9.31104e-07
5.31627e-07
1.88922e-06
2.63813e-07
1.85172e-06
1.18973e-07
1.88545e-06
-4.82315e-09
1.90591e-06
-1.96114e-07
1.89705e-06
-3.3056e-07
1.87984e-06
-4.63432e-07
2.15384e-06
-5.067e-07
2.62815e-06
-4.20052e-07
3.18706e-06
-3.34011e-07
3.86446e-06
-2.38355e-07
4.68445e-06
-1.55414e-07
-1.27678e-06
1.38276e-08
-2.10628e-06
-4.02791e-09
-1.8166e-06
-7.8549e-10
-8.36065e-07
5.68168e-06
-5.83644e-08
3.30545e-08
-9.41172e-06
-3.71459e-08
-6.73041e-06
-2.22179e-08
-2.59729e-06
1.98817e-06
-6.46965e-08
3.72434e-06
-5.49848e-07
2.98308e-06
-6.6714e-07
2.6633e-06
7.41364e-07
8.00332e-07
7.78271e-07
4.21969e-06
8.2113e-07
4.45069e-06
7.21581e-07
4.3575e-06
6.53122e-07
3.94958e-06
5.72879e-07
9.76652e-07
5.49116e-07
2.00918e-06
4.11674e-07
1.95577e-06
1.59766e-07
1.99766e-06
6.76049e-09
2.04359e-06
-1.42494e-07
2.05228e-06
-3.51341e-07
2.03266e-06
-4.83371e-07
2.17889e-06
-4.8849e-07
2.61569e-06
-4.94242e-07
3.17989e-06
-4.12888e-07
3.85757e-06
-3.27122e-07
4.67922e-06
-2.33125e-07
5.67389e-06
-1.47621e-07
-1.26295e-06
8.81839e-09
-2.11912e-06
-1.02939e-08
-1.80709e-06
1.99394e-09
-8.3806e-07
6.87976e-06
-5.15343e-08
-2.9362e-08
-6.74393e-06
-2.36075e-08
-2.61952e-06
1.92349e-06
-1.10858e-07
3.28535e-06
-5.06785e-07
2.82272e-06
-6.35497e-07
2.58888e-06
7.09918e-07
7.90036e-07
7.51661e-07
4.20163e-06
7.96335e-07
4.49164e-06
7.80174e-07
4.42831e-06
6.50775e-07
4.05318e-06
5.49515e-07
1.01617e-06
5.33365e-07
2.11811e-06
4.40187e-07
2.06215e-06
3.05295e-07
2.10662e-06
5.08134e-08
2.17132e-06
-1.20972e-07
2.20798e-06
-2.982e-07
2.2025e-06
-5.21187e-07
2.23148e-06
-5.35959e-07
2.62691e-06
-4.99705e-07
3.16998e-06
-4.84332e-07
3.84965e-06
-4.04967e-07
4.67126e-06
-3.19158e-07
5.66782e-06
-2.27063e-07
6.87247e-06
-1.40328e-07
-1.25413e-06
-3.40333e-09
-2.12602e-06
-2.19857e-08
-1.78312e-06
6.65156e-09
-8.44711e-07
8.3329e-06
-4.6832e-08
-2.19856e-08
-2.64311e-06
1.81264e-06
-1.74728e-07
2.95329e-06
-4.75046e-07
2.66227e-06
-5.8843e-07
2.51739e-06
6.59917e-07
7.78373e-07
7.21581e-07
4.18272e-06
7.70561e-07
4.52067e-06
7.67305e-07
4.50437e-06
7.04111e-07
4.14986e-06
5.541e-07
1.05064e-06
5.15037e-07
2.21647e-06
4.35001e-07
2.17218e-06
3.30152e-07
2.21685e-06
1.95062e-07
2.29543e-06
-7.32918e-08
2.35576e-06
-2.6875e-07
2.37567e-06
-4.71363e-07
2.34869e-06
-6.38398e-07
2.63832e-06
-5.47373e-07
3.17828e-06
-5.07999e-07
3.84067e-06
-4.75353e-07
4.6626e-06
-3.96313e-07
5.65921e-06
-3.10549e-07
6.86594e-06
-2.20537e-07
8.32623e-06
-1.33657e-07
-1.25753e-06
-2.63162e-08
-2.12168e-06
-3.95555e-08
-1.73691e-06
1.85073e-08
-8.63218e-07
1.00964e-05
-4.35281e-08
1.63791e-06
-2.03852e-07
2.68211e-06
-4.28318e-07
2.50216e-06
-5.34498e-07
2.44658e-06
6.05311e-07
7.65704e-07
6.72586e-07
4.15812e-06
7.46184e-07
4.54375e-06
7.47489e-07
4.56879e-06
7.02889e-07
4.24791e-06
6.06067e-07
1.08295e-06
5.21795e-07
2.30405e-06
4.27461e-07
2.2874e-06
3.19788e-07
2.32176e-06
2.25242e-07
2.42065e-06
6.98402e-08
2.50075e-06
-2.18281e-07
2.54216e-06
-4.35241e-07
2.52997e-06
-6.52648e-07
2.6545e-06
-6.54572e-07
3.18784e-06
-5.56936e-07
3.84525e-06
-5.12575e-07
4.65359e-06
-4.66347e-07
5.65001e-06
-3.87111e-07
6.85711e-06
-3.01715e-07
8.31944e-06
-2.13748e-07
1.00904e-05
-1.27597e-07
-1.28385e-06
-6.09838e-08
-2.10025e-06
-5.383e-08
-1.66457e-06
3.08491e-08
-8.94068e-07
1.22367e-05
-4.10851e-08
1.43407e-06
-1.87084e-07
2.44087e-06
-3.78624e-07
2.34629e-06
-4.86747e-07
2.37627e-06
5.5705e-07
7.52077e-07
6.18939e-07
4.12519e-06
7.05504e-07
4.56014e-06
7.2979e-07
4.62414e-06
6.92128e-07
4.33492e-06
6.1587e-07
1.11476e-06
5.7426e-07
2.3858e-06
4.40037e-07
2.39262e-06
3.22238e-07
2.42446e-06
2.17085e-07
2.53594e-06
1.09954e-07
2.64787e-06
-7.72813e-08
2.70997e-06
-3.86085e-07
2.72142e-06
-6.26691e-07
2.72866e-06
-7.26806e-07
3.18479e-06
-6.51527e-07
3.85312e-06
-5.64804e-07
4.65496e-06
-5.13942e-07
5.64081e-06
-4.57141e-07
6.84761e-06
-3.77615e-07
8.31061e-06
-2.92891e-07
1.00834e-05
-2.06789e-07
1.22312e-05
-1.2204e-07
-1.34483e-06
-1.06019e-07
-2.04806e-06
-5.71055e-08
-1.57662e-06
5.26546e-08
1.48366e-05
-3.90803e-08
1.24698e-06
-1.51008e-07
2.21325e-06
-3.41819e-07
2.20135e-06
-4.39846e-07
2.30717e-06
5.08955e-07
7.37678e-07
5.7145e-07
4.08496e-06
6.59166e-07
4.56731e-06
6.98331e-07
4.67121e-06
6.82718e-07
4.41149e-06
6.15553e-07
1.14399e-06
5.86637e-07
2.46572e-06
4.94343e-07
2.49003e-06
3.4262e-07
2.52115e-06
2.25551e-07
2.64358e-06
1.0944e-07
2.78294e-06
-2.51127e-08
2.8833e-06
-2.50612e-07
2.91548e-06
-5.80139e-07
2.87641e-06
-7.74433e-07
3.1894e-06
-7.31416e-07
3.85139e-06
-6.49802e-07
4.65987e-06
-5.69719e-07
5.63926e-06
-5.12394e-07
6.83827e-06
-4.47792e-07
8.30098e-06
-3.67993e-07
1.00746e-05
-2.84107e-07
1.22241e-05
-1.99714e-07
1.48315e-05
-1.16889e-07
-1.45085e-06
-1.46907e-07
-1.95826e-06
-6.81468e-08
1.79959e-05
-3.73326e-08
1.09598e-06
-1.22214e-07
1.99365e-06
-3.12743e-07
2.07425e-06
-3.9162e-07
2.23945e-06
4.59338e-07
7.22696e-07
5.23937e-07
4.03878e-06
6.17631e-07
4.56552e-06
6.60959e-07
4.70839e-06
6.6116e-07
4.47897e-06
6.15239e-07
1.1703e-06
5.89243e-07
2.53955e-06
5.12808e-07
2.58455e-06
3.99827e-07
2.61268e-06
2.51093e-07
2.74497e-06
1.24159e-07
2.9066e-06
-1.42239e-08
3.04484e-06
-1.86654e-07
3.11568e-06
-4.50812e-07
3.08537e-06
-7.89096e-07
3.21461e-06
-7.99644e-07
3.84799e-06
-7.28009e-07
4.65844e-06
-6.48375e-07
5.64107e-06
-5.71521e-07
6.83425e-06
-5.08377e-07
8.29149e-06
-4.38303e-07
1.00649e-05
-3.58255e-07
1.22153e-05
-2.75297e-07
1.48244e-05
-1.9258e-07
1.7991e-05
-1.11933e-07
-1.59776e-06
-2.10587e-07
2.18343e-05
-3.56689e-08
9.73768e-07
-1.06014e-07
1.78692e-06
-2.82176e-07
1.9648e-06
-3.47969e-07
2.17268e-06
4.14739e-07
7.07282e-07
4.74752e-07
3.98655e-06
5.76173e-07
4.55625e-06
6.269e-07
4.73587e-06
6.33473e-07
4.53614e-06
6.03991e-07
1.19414e-06
5.91395e-07
2.60727e-06
5.21524e-07
2.67414e-06
4.23215e-07
2.70555e-06
3.06959e-07
2.84182e-06
1.54243e-07
3.02224e-06
8.52007e-09
3.1927e-06
-1.62084e-07
3.30647e-06
-3.77446e-07
3.32554e-06
-6.90979e-07
3.29694e-06
-8.71425e-07
3.84516e-06
-7.96818e-07
4.65488e-06
-7.24446e-07
5.6386e-06
-6.45906e-07
6.83304e-06
-5.70308e-07
8.28546e-06
-5.02345e-07
1.00551e-05
-4.28538e-07
1.22053e-05
-3.4831e-07
1.48154e-05
-2.66311e-07
1.79837e-05
-1.85292e-07
2.18295e-05
-1.07107e-07
2.65006e-05
-3.40046e-08
8.67755e-07
-9.8807e-08
1.60355e-06
-2.50568e-07
1.8674e-06
-3.0558e-07
2.1061e-06
3.72167e-07
6.91492e-07
4.30529e-07
3.92878e-06
5.32525e-07
4.53939e-06
5.9304e-07
4.75511e-06
6.07665e-07
4.58309e-06
5.86523e-07
1.21521e-06
5.82925e-07
2.66946e-06
5.29211e-07
2.7593e-06
4.36365e-07
2.8036e-06
3.25157e-07
2.93779e-06
2.10994e-07
3.13278e-06
4.37037e-08
3.33037e-06
-1.29146e-07
3.48436e-06
-3.39982e-07
3.55531e-06
-6.07216e-07
3.48524e-06
-8.79279e-07
3.84394e-06
-8.70203e-07
4.6509e-06
-7.92846e-07
5.63402e-06
-7.19865e-07
6.82891e-06
-6.4177e-07
8.2815e-06
-5.66353e-07
1.00474e-05
-4.94595e-07
1.21951e-05
-4.18283e-07
1.4805e-05
-3.37961e-07
1.79744e-05
-2.57e-07
2.18219e-05
-1.77755e-07
2.64956e-05
-1.02171e-07
3.21734e-05
-3.22537e-08
7.6895e-07
-9.55452e-08
1.44853e-06
-2.175e-07
1.77932e-06
-2.64825e-07
2.0393e-06
3.31621e-07
6.75242e-07
3.88417e-07
3.86671e-06
4.92582e-07
4.5147e-06
5.57212e-07
4.76608e-06
5.82063e-07
4.62097e-06
5.69788e-07
1.23337e-06
5.68368e-07
2.72513e-06
5.27252e-07
2.83888e-06
4.49625e-07
2.90457e-06
3.354e-07
3.03255e-06
2.30391e-07
3.24102e-06
1.02753e-07
3.46163e-06
-8.75623e-08
3.65114e-06
-2.95924e-07
3.76876e-06
-5.53428e-07
3.7386e-06
-8.60571e-07
3.88096e-06
-9.16298e-07
4.64252e-06
-8.61823e-07
5.62913e-06
-7.87958e-07
6.82279e-06
-7.13743e-07
8.27554e-06
-6.35815e-07
1.00409e-05
-5.5992e-07
1.21857e-05
-4.85267e-07
1.4794e-05
-4.07257e-07
1.79634e-05
-3.27009e-07
2.18121e-05
-2.47149e-07
2.64877e-05
-1.69825e-07
3.21682e-05
-9.69483e-08
3.90703e-05
-3.034e-08
6.73408e-07
-9.22734e-08
1.3233e-06
-1.83629e-07
1.69813e-06
-2.28119e-07
1.97187e-06
2.95555e-07
6.58473e-07
3.48391e-07
3.80023e-06
4.54903e-07
4.48336e-06
5.2392e-07
4.76834e-06
5.54945e-07
4.64984e-06
5.53181e-07
1.24886e-06
5.54293e-07
2.77399e-06
5.19506e-07
2.91105e-06
4.55079e-07
3.00042e-06
3.53778e-07
3.12708e-06
2.4087e-07
3.3443e-06
1.27119e-07
3.58945e-06
-2.50614e-08
3.81001e-06
-2.46427e-07
3.96926e-06
-4.96422e-07
4.00443e-06
-8.19263e-07
3.98354e-06
-9.63145e-07
4.642e-06
-9.15785e-07
5.62217e-06
-8.5486e-07
6.81629e-06
-7.81461e-07
8.26775e-06
-7.05957e-07
1.00331e-05
-6.27969e-07
1.2177e-05
-5.51204e-07
1.47831e-05
-4.74332e-07
1.79513e-05
-3.95201e-07
2.18003e-05
-3.15196e-07
2.64771e-05
-2.36564e-07
3.21597e-05
-1.61302e-07
3.90646e-05
-9.12515e-08
4.74583e-05
-2.82192e-08
5.81136e-07
-8.15687e-08
1.22125e-06
-1.50569e-07
1.62059e-06
-1.9698e-07
1.90333e-06
2.65512e-07
6.41125e-07
3.12903e-07
3.72923e-06
4.19394e-07
4.44567e-06
4.926e-07
4.76285e-06
5.2942e-07
4.66964e-06
5.35148e-07
1.26178e-06
5.40264e-07
2.81653e-06
5.11753e-07
2.97539e-06
4.55167e-07
3.08809e-06
3.67405e-07
3.21906e-06
2.61804e-07
3.44429e-06
1.4088e-07
3.7099e-06
6.66809e-09
3.96416e-06
-1.79217e-07
4.16098e-06
-4.38141e-07
4.25569e-06
-7.47677e-07
4.1736e-06
-1.00932e-06
4.65003e-06
-9.7118e-07
5.61891e-06
-9.12516e-07
6.8088e-06
-8.47369e-07
8.25938e-06
-7.73098e-07
1.00236e-05
-6.96463e-07
1.21672e-05
-6.1815e-07
1.47721e-05
-5.40247e-07
1.79387e-05
-4.61674e-07
2.17869e-05
-3.81831e-07
2.64642e-05
-3.02264e-07
3.21481e-05
-2.24989e-07
3.90553e-05
-1.51949e-07
4.7452e-05
-8.48922e-08
5.76598e-05
-2.58169e-08
4.99569e-07
-6.25582e-08
1.13323e-06
-1.21673e-07
1.54527e-06
-1.70765e-07
1.83393e-06
2.40162e-07
6.23135e-07
2.83502e-07
3.65376e-06
3.88373e-07
4.4017e-06
4.63369e-07
4.75012e-06
5.05324e-07
4.68128e-06
5.17787e-07
1.27216e-06
5.24764e-07
2.85295e-06
5.03843e-07
3.03242e-06
4.54723e-07
3.16724e-06
3.76015e-07
3.30582e-06
2.80648e-07
3.54168e-06
1.64406e-07
3.82445e-06
2.63321e-08
4.10921e-06
-1.38376e-07
4.34775e-06
-3.6599e-07
4.49226e-06
-6.74716e-07
4.43936e-06
-1.01344e-06
4.67825e-06
-1.03755e-06
5.61723e-06
-9.69497e-07
6.80373e-06
-9.07437e-07
8.2503e-06
-8.3829e-07
1.00134e-05
-7.6285e-07
1.21559e-05
-6.85165e-07
1.47601e-05
-6.06174e-07
1.79254e-05
-5.26994e-07
2.17723e-05
-4.47102e-07
2.64492e-05
-3.66863e-07
3.21337e-05
-2.879e-07
3.90424e-05
-2.12136e-07
4.74415e-05
-1.41441e-07
5.76525e-05
-7.76689e-08
7.00672e-05
-2.3045e-08
4.37011e-07
-4.45891e-08
1.05615e-06
-9.82784e-08
1.47278e-06
-1.48536e-07
1.76478e-06
2.17696e-07
6.04535e-07
2.58762e-07
3.57396e-06
3.633e-07
4.35179e-06
4.38286e-07
4.73049e-06
4.83004e-07
4.68536e-06
5.01237e-07
1.28027e-06
5.09683e-07
2.88352e-06
4.94198e-07
3.08265e-06
4.53613e-07
3.23846e-06
3.83511e-07
3.3866e-06
2.9523e-07
3.63489e-06
1.87444e-07
3.93519e-06
5.3661e-08
4.24616e-06
-1.10619e-07
4.52474e-06
-3.15362e-07
4.71938e-06
-5.93109e-07
4.73595e-06
-9.7131e-07
4.76295e-06
-1.09813e-06
5.61317e-06
-1.03349e-06
6.80013e-06
-9.659e-07
8.24272e-06
-8.9986e-07
1.00024e-05
-8.27359e-07
1.21437e-05
-7.50651e-07
1.47468e-05
-6.71809e-07
1.79111e-05
-5.91799e-07
2.17566e-05
-5.11288e-07
2.64325e-05
-4.30363e-07
3.21168e-05
-3.49956e-07
3.90263e-05
-2.71743e-07
4.74269e-05
-1.97612e-07
5.76405e-05
-1.29447e-07
7.00589e-05
-6.93365e-08
8.51627e-05
-1.98037e-08
3.92423e-07
-3.17887e-08
9.89659e-07
-8.02925e-08
1.40455e-06
-1.3005e-07
1.69725e-06
1.97576e-07
5.85553e-07
2.36678e-07
3.48972e-06
3.42999e-07
4.29617e-06
4.18918e-07
4.70444e-06
4.64328e-07
4.68239e-06
4.85976e-07
1.28628e-06
4.95225e-07
2.9089e-06
4.84302e-07
3.12677e-06
4.50071e-07
3.30329e-06
3.88784e-07
3.46157e-06
3.0854e-07
3.72313e-06
2.06991e-07
4.04158e-06
8.10605e-08
4.37757e-06
-7.77522e-08
4.69211e-06
-2.77984e-07
4.93449e-06
-5.30465e-07
5.02778e-06
-8.84929e-07
4.93574e-06
-1.14411e-06
5.61258e-06
-1.09754e-06
6.79499e-06
-1.02834e-06
8.23646e-06
-9.59645e-07
9.99218e-06
-8.89587e-07
1.21308e-05
-8.1443e-07
1.47324e-05
-7.36251e-07
1.78953e-05
-6.56044e-07
2.17396e-05
-5.74724e-07
2.64141e-05
-4.92885e-07
3.20976e-05
-4.11121e-07
3.9007e-05
-3.30698e-07
4.74085e-05
-2.53346e-07
5.76239e-05
-1.80965e-07
7.0045e-05
-1.15585e-07
8.5153e-05
-5.95972e-08
0.000103524
-1.59541e-08
3.60635e-07
-2.37167e-08
9.33087e-07
-6.70371e-08
1.34153e-06
-1.1515e-07
1.63246e-06
1.79939e-07
5.66559e-07
2.16571e-07
3.40132e-06
3.25081e-07
4.23487e-06
4.0429e-07
4.67235e-06
4.51005e-07
4.67284e-06
4.73868e-07
1.29028e-06
4.81977e-07
2.92945e-06
4.7468e-07
3.16544e-06
4.4563e-07
3.36318e-06
3.90181e-07
3.53541e-06
3.14947e-07
3.80633e-06
2.25333e-07
4.14311e-06
1.0546e-07
4.50367e-06
-4.5035e-08
4.85195e-06
-2.37592e-07
5.13883e-06
-4.82331e-07
5.30058e-06
-8.03268e-07
5.20473e-06
-1.15393e-06
5.62765e-06
-1.15918e-06
6.78806e-06
-1.09061e-06
8.22942e-06
-1.02131e-06
9.98269e-06
-9.5015e-07
1.21179e-05
-8.76695e-07
1.47171e-05
-7.99187e-07
1.78783e-05
-7.19276e-07
2.1721e-05
-6.37445e-07
2.63939e-05
-5.54591e-07
3.20761e-05
-4.71431e-07
3.89848e-05
-3.88937e-07
4.73864e-05
-3.08583e-07
5.76027e-05
-2.32161e-07
7.00257e-05
-1.61668e-07
8.51367e-05
-9.93796e-08
0.000103512
-4.80671e-08
0.000125868
-1.1343e-08
3.3692e-07
-1.87796e-08
8.84829e-07
-5.74589e-08
1.28384e-06
-1.03144e-07
1.57102e-06
1.64593e-07
5.47898e-07
1.986e-07
3.30986e-06
3.08031e-07
4.16777e-06
3.92187e-07
4.63438e-06
4.42266e-07
4.65738e-06
4.66465e-07
1.2924e-06
4.71747e-07
2.94528e-06
4.66147e-07
3.19875e-06
4.41377e-07
3.41787e-06
3.90937e-07
3.61022e-06
3.15374e-07
3.88599e-06
2.35295e-07
4.23968e-06
1.28765e-07
4.62442e-06
-1.52907e-08
5.00486e-06
-1.97944e-07
5.3343e-06
-4.33056e-07
5.55706e-06
-7.38807e-07
5.52657e-06
-1.12511e-06
5.68709e-06
-1.21336e-06
6.78005e-06
-1.15117e-06
8.22152e-06
-1.08272e-06
9.97273e-06
-1.01134e-06
1.21052e-05
-9.37488e-07
1.47015e-05
-8.61036e-07
1.78603e-05
-7.81185e-07
2.17009e-05
-6.99249e-07
2.6372e-05
-6.15524e-07
3.20525e-05
-5.30955e-07
3.89598e-05
-4.4645e-07
4.73607e-05
-3.63253e-07
5.75771e-05
-2.82977e-07
7.00011e-05
-2.07525e-07
8.51142e-05
-1.39072e-07
0.000103493
-8.0228e-08
0.000125855
-3.4324e-08
0.000153047
-5.84881e-09
3.18141e-07
-1.56378e-08
8.43008e-07
-5.03569e-08
1.23106e-06
-9.33573e-08
1.51301e-06
1.51357e-07
5.29822e-07
1.8267e-07
3.21677e-06
2.91686e-07
4.09496e-06
3.80842e-07
4.59031e-06
4.36255e-07
4.63618e-06
4.63479e-07
1.29281e-06
4.66055e-07
2.95668e-06
4.60344e-07
3.22667e-06
4.38226e-07
3.4667e-06
3.92552e-07
3.68136e-06
3.19794e-07
3.96375e-06
2.37607e-07
4.33121e-06
1.43762e-07
4.73983e-06
1.33516e-08
5.1514e-06
-1.61831e-07
5.5216e-06
-3.85246e-07
5.79934e-06
-6.75334e-07
5.85828e-06
-1.07053e-06
5.82363e-06
-1.26165e-06
6.77565e-06
-1.20896e-06
8.21304e-06
-1.14269e-06
9.96225e-06
-1.07223e-06
1.2092e-05
-9.98163e-07
1.46856e-05
-9.21585e-07
1.78415e-05
-8.42249e-07
2.16796e-05
-7.59878e-07
2.63484e-05
-6.75606e-07
3.20267e-05
-5.89716e-07
3.89321e-05
-5.03251e-07
4.73316e-05
-4.17319e-07
5.75472e-05
-3.33351e-07
6.99712e-05
-2.531e-07
8.50852e-05
-1.78621e-07
0.000103466
-1.12364e-07
0.000125832
-5.74594e-08
0.000153031
-1.82875e-08
0.00018613
3.02504e-07
-1.34787e-08
8.0613e-07
-4.49297e-08
1.18263e-06
-8.52416e-08
1.45839e-06
1.39869e-07
5.12464e-07
1.68716e-07
3.12357e-06
2.75874e-07
4.01712e-06
3.69534e-07
4.53984e-06
4.31307e-07
4.60904e-06
4.63386e-07
1.29159e-06
4.64704e-07
2.96406e-06
4.58677e-07
3.24948e-06
4.37531e-07
3.50942e-06
3.95505e-07
3.7464e-06
3.27508e-07
4.03879e-06
2.44757e-07
4.4186e-06
1.50217e-07
4.84913e-06
3.44604e-08
5.29183e-06
-1.27076e-07
5.70168e-06
-3.41913e-07
6.02979e-06
-6.15697e-07
6.17428e-06
-9.91339e-07
6.0504e-06
-1.29729e-06
6.78054e-06
-1.26653e-06
8.20487e-06
-1.20081e-06
9.95153e-06
-1.13196e-06
1.20782e-05
-1.05843e-06
1.4669e-05
-9.81624e-07
1.78221e-05
-9.02147e-07
2.16572e-05
-8.19809e-07
2.63231e-05
-7.34629e-07
3.19988e-05
-6.47689e-07
3.89018e-05
-5.59347e-07
4.72991e-05
-4.7077e-07
5.75131e-05
-3.83237e-07
6.99362e-05
-2.98338e-07
8.50501e-05
-2.17975e-07
0.000103432
-1.44436e-07
0.0001258
-8.06452e-08
0.000153005
-3.08284e-08
0.000186112
2.89027e-07
-1.18981e-08
7.73102e-07
-4.05707e-08
1.13796e-06
-7.84078e-08
1.40696e-06
1.29839e-07
4.95878e-07
1.56455e-07
3.03154e-06
2.60745e-07
3.93535e-06
3.57648e-07
4.48303e-06
4.26343e-07
4.57579e-06
4.64557e-07
1.28871e-06
4.66262e-07
2.96763e-06
4.61132e-07
3.26765e-06
4.40508e-07
3.5463e-06
4.00649e-07
3.80486e-06
3.37046e-07
4.10962e-06
2.5668e-07
4.5027e-06
1.60657e-07
4.95252e-06
4.68316e-08
5.42513e-06
-9.88433e-08
5.87466e-06
-3.0005e-07
6.2511e-06
-5.63226e-07
6.47054e-06
-9.11953e-07
6.3635e-06
-1.30444e-06
6.80825e-06
-1.325e-06
8.19613e-06
-1.2578e-06
9.94094e-06
-1.19022e-06
1.2064e-05
-1.11776e-06
1.46517e-05
-1.04113e-06
1.78018e-05
-9.61356e-07
2.16337e-05
-8.78676e-07
2.62964e-05
-7.93054e-07
3.19688e-05
-7.047e-07
3.88688e-05
-6.14724e-07
4.72634e-05
-5.23595e-07
5.7475e-05
-4.32607e-07
6.98961e-05
-3.43193e-07
8.50089e-05
-2.57089e-07
0.00010339
-1.7641e-07
0.00012576
-1.03883e-07
0.000152967
-4.34939e-08
0.000186081
2.7713e-07
-1.06622e-08
7.43193e-07
-3.70075e-08
1.09656e-06
-7.25531e-08
1.35847e-06
1.21046e-07
4.80072e-07
1.45646e-07
2.94152e-06
2.4647e-07
3.85081e-06
3.45271e-07
4.42034e-06
4.20339e-07
4.53617e-06
4.65968e-07
1.28411e-06
4.69155e-07
2.9674e-06
4.66497e-07
3.28149e-06
4.47287e-07
3.57788e-06
4.08932e-07
3.85699e-06
3.48516e-07
4.17548e-06
2.71189e-07
4.58313e-06
1.76253e-07
5.05143e-06
6.17441e-08
5.55106e-06
-7.90904e-08
6.03926e-06
-2.63447e-07
6.46381e-06
-5.12756e-07
6.75232e-06
-8.45013e-07
6.72451e-06
-1.27296e-06
6.88519e-06
-1.38138e-06
8.1868e-06
-1.31568e-06
9.93057e-06
-1.24741e-06
1.20498e-05
-1.17599e-06
1.46338e-05
-1.09983e-06
1.77806e-05
-1.01994e-06
2.16091e-05
-9.36792e-07
2.62682e-05
-8.50497e-07
3.1937e-05
-7.61192e-07
3.88333e-05
-6.69232e-07
4.72244e-05
-5.75783e-07
5.74328e-05
-4.81443e-07
6.98511e-05
-3.87631e-07
8.49616e-05
-2.9592e-07
0.000103342
-2.08244e-07
0.00012571
-1.27145e-07
0.00015292
-5.6365e-08
0.000186038
2.66468e-07
-9.67127e-09
7.15857e-07
-3.40533e-08
1.05806e-06
-6.74766e-08
1.3127e-06
1.13247e-07
4.65025e-07
1.36092e-07
2.85406e-06
2.33114e-07
3.76474e-06
3.32547e-07
4.35244e-06
4.13177e-07
4.49015e-06
4.66351e-07
1.27772e-06
4.72366e-07
2.96322e-06
4.73336e-07
3.29108e-06
4.56906e-07
3.60457e-06
4.20593e-07
3.90336e-06
3.62562e-07
4.23628e-06
2.87717e-07
4.65928e-06
1.95034e-07
5.14632e-06
8.13648e-08
5.67109e-06
-5.82931e-08
6.19505e-06
-2.34883e-07
6.66712e-06
-4.66755e-07
7.01991e-06
-7.80349e-07
7.09202e-06
-1.21252e-06
7.04326e-06
-1.43103e-06
8.18002e-06
-1.37461e-06
9.91974e-06
-1.30484e-06
1.20358e-05
-1.23338e-06
1.46154e-05
-1.15765e-06
1.77586e-05
-1.07778e-06
2.15834e-05
-9.9423e-07
2.62386e-05
-9.07188e-07
3.19033e-05
-8.16774e-07
3.87954e-05
-7.23285e-07
4.71824e-05
-6.27192e-07
5.73867e-05
-5.29727e-07
6.98013e-05
-4.31626e-07
8.49084e-05
-3.34428e-07
0.000103286
-2.3989e-07
0.000125653
-1.50406e-07
0.000152862
-6.93607e-08
0.000185981
2.56798e-07
-8.86322e-09
6.90669e-07
-3.15038e-08
1.02209e-06
-6.3037e-08
1.26945e-06
1.06288e-07
4.50707e-07
1.27565e-07
2.76951e-06
2.20639e-07
3.67815e-06
3.19704e-07
4.28027e-06
4.04712e-07
4.43812e-06
4.65209e-07
1.26949e-06
4.74583e-07
2.95491e-06
4.80677e-07
3.29631e-06
4.68103e-07
3.62655e-06
4.34924e-07
3.94448e-06
3.79478e-07
4.29232e-06
3.06522e-07
4.73093e-06
2.16065e-07
5.23696e-06
1.044e-07
5.78619e-06
-3.37283e-08
6.34339e-06
-2.06634e-07
6.86082e-06
-4.28583e-07
7.27403e-06
-7.20879e-07
7.44382e-06
-1.13215e-06
7.2935e-06
-1.46276e-06
8.18272e-06
-1.43374e-06
9.90792e-06
-1.36279e-06
1.20215e-05
-1.29059e-06
1.45968e-05
-1.21475e-06
1.77358e-05
-1.13487e-06
2.15566e-05
-1.05097e-06
2.62075e-05
-9.63187e-07
3.18677e-05
-8.71634e-07
3.87551e-05
-7.76503e-07
4.71373e-05
-6.78208e-07
5.73369e-05
-5.77328e-07
6.97467e-05
-4.75159e-07
8.48493e-05
-3.72583e-07
0.000103222
-2.71299e-07
0.000125586
-1.73618e-07
0.000152794
-8.25469e-08
0.000185912
2.47935e-07
-8.17403e-09
6.67339e-07
-2.93066e-08
9.88359e-07
-5.90841e-08
1.22848e-06
1.00044e-07
4.37078e-07
1.19918e-07
2.68801e-06
2.09066e-07
3.59182e-06
3.06971e-07
4.20486e-06
3.95112e-07
4.38058e-06
4.62255e-07
1.25945e-06
4.75246e-07
2.94234e-06
4.87152e-07
3.297e-06
4.79986e-07
3.64378e-06
4.50873e-07
3.9806e-06
3.98798e-07
4.34395e-06
3.27844e-07
4.79821e-06
2.39239e-07
5.32315e-06
1.2987e-07
5.8965e-06
-5.91513e-09
6.48545e-06
-1.75788e-07
7.04596e-06
-3.91767e-07
7.516e-06
-6.70556e-07
7.77481e-06
-1.05186e-06
7.6322e-06
-1.47084e-06
8.21019e-06
-1.49024e-06
9.89414e-06
-1.41995e-06
1.20065e-05
-1.34778e-06
1.45777e-05
-1.27148e-06
1.77123e-05
-1.19129e-06
2.15287e-05
-1.107e-06
2.61751e-05
-1.01851e-06
3.18303e-05
-9.25814e-07
3.87125e-05
-8.29042e-07
4.70893e-05
-7.28464e-07
5.72833e-05
-6.24594e-07
6.96875e-05
-5.18105e-07