/*--------------------------------*- C++ -*----------------------------------*\
| =========                 |                                                 |
| \\      /  F ield         | OpenFOAM: The Open Source CFD Toolbox           |
|  \\    /   O peration     | Version:  1.6.x                                 |
|   \\  /    A nd           | Web:      www.OpenFOAM.org                      |
|    \\/     M anipulation  |                                                 |
\*---------------------------------------------------------------------------*/
FoamFile
{
    version     2.0;
    format      ascii;
    class       volScalarField;
    location    "7000";
    object      rho;
}
// * * * * * * * * * * * * * * * * * * * * * * * * * * * * * * * * * * * * * //

dimensions      [1 -3 0 0 0 0 0];

internalField   nonuniform List<scalar> 
4608
(
1.05261
1.053
1.05286
0.82611
1.05319
1.05298
1.05286
1.03706
0.707252
0.393869
1.05338
1.05321
1.05298
1.0528
1.05076
1.01255
0.63166
0.318648
0.204841
1.05357
1.05339
1.05321
1.05299
1.05147
1.04843
0.98302
0.583297
0.285136
0.193885
0.184317
0.175935
1.05377
1.05358
1.05339
1.05321
1.05102
1.04472
0.951046
0.532651
0.276743
0.186508
0.165761
0.184557
0.184094
0.192775
1.05396
1.05377
1.05358
1.05339
1.05061
1.03915
0.914207
0.53344
0.264889
0.18462
0.161313
0.180862
0.184669
0.183436
0.182894
0.237744
1.05416
1.05396
1.05377
1.05358
1.04974
1.03137
0.886393
0.392419
0.279654
0.182064
0.159888
0.161079
0.248685
0.185747
0.183701
0.182642
0.182249
0.38541
1.05435
1.05416
1.05396
1.05377
1.04828
1.02227
0.835378
0.325311
0.271025
0.185668
0.160684
0.158581
0.22229
0.33983
0.184412
0.18287
0.181974
0.181628
0.640771
1.05455
1.05436
1.05416
1.05396
1.04622
1.00971
0.780683
0.291938
0.249572
0.193018
0.161427
0.158462
0.194726
0.291538
0.450091
0.183508
0.182162
0.181398
0.181113
1.02441
1.05475
1.05455
1.05435
1.05416
1.04312
0.993925
0.72861
0.275051
0.231928
0.193712
0.163068
0.15807
0.178541
0.247217
0.370861
0.711847
0.182701
0.181561
0.18091
0.180672
1.17582
1.05495
1.05475
1.05455
1.05435
1.03871
0.975317
0.684336
0.260918
0.221435
0.190182
0.164805
0.158073
0.163402
0.219405
0.306585
0.549723
1.04068
0.182025
0.18105
0.180493
0.180296
1.19076
1.05515
1.05495
1.05475
1.05455
1.033
0.954947
0.640616
0.258906
0.213345
0.186471
0.165899
0.158492
0.157364
0.195894
0.264236
0.434196
0.868553
1.17402
0.181447
0.180614
0.180138
0.179976
1.19165
1.05535
1.05515
1.05495
1.05475
1.02578
0.932187
0.62439
0.261862
0.210378
0.182935
0.166559
0.159282
0.156304
0.174999
0.231376
0.357995
0.677582
1.12785
1.19002
0.180956
0.180242
0.179835
0.179702
1.19176
1.05556
1.05535
1.05514
1.05495
1.01682
0.912498
0.511841
0.256994
0.21298
0.180857
0.166829
0.160099
0.156587
0.163029
0.198978
0.303415
0.529491
1.02558
1.18552
1.19132
0.180538
0.179925
0.179577
0.179468
1.19179
1.05576
1.05555
1.05535
1.05514
1.00677
0.881073
0.432402
0.247184
0.213246
0.181254
0.166966
0.160801
0.156997
0.159887
0.178579
0.251397
0.426299
0.84934
1.17307
1.19056
1.19148
0.180181
0.179654
0.179356
0.179267
1.1918
1.05596
1.05575
1.05555
1.05534
0.994467
0.842935
0.382452
0.235024
0.210254
0.18172
0.16725
0.161432
0.157512
0.157981
0.168252
0.217535
0.33816
0.659838
1.12617
1.18939
1.19113
1.19152
0.179877
0.179422
0.179166
0.179094
1.19181
1.05615
1.05595
1.05575
1.05555
0.979398
0.802526
0.34667
0.224952
0.205113
0.181703
0.167589
0.162042
0.158194
0.15761
0.161416
0.197867
0.281395
0.489893
1.01556
1.18595
1.19077
1.19125
1.19155
0.179618
0.179223
0.179004
0.178944
1.19182
1.05631
1.05613
1.05595
1.05575
0.961734
0.759899
0.327948
0.219422
0.200129
0.181029
0.168006
0.162513
0.158955
0.158111
0.159407
0.184349
0.247424
0.387288
0.772234
1.17382
1.19026
1.19099
1.1913
1.19157
0.179396
0.179051
0.178865
0.178814
1.19183
1.05651
1.05629
1.05614
1.05595
0.940996
0.731502
0.318646
0.214763
0.197032
0.180151
0.168418
0.162927
0.159473
0.158585
0.159343
0.176178
0.224129
0.327429
0.576527
1.08955
1.18949
1.19072
1.19106
1.19133
1.19159
0.179204
0.178904
0.178745
0.178699
1.19183
1.05676
1.05648
1.0563
1.05613
0.920524
0.627534
0.305113
0.210067
0.19507
0.179547
0.168796
0.16335
0.159877
0.158656
0.159158
0.170924
0.20852
0.287194
0.461894
0.901162
1.18347
1.19048
1.19083
1.1911
1.19136
1.1916
0.179038
0.178776
0.178641
0.178597
1.19184
1.05671
1.05649
1.05629
0.88991
0.546992
0.288892
0.205304
0.193339
0.179066
0.169156
0.163811
0.160319
0.158912
0.158551
0.166086
0.197529
0.259805
0.389321
0.703658
1.14361
1.18998
1.19062
1.19089
1.19114
1.19138
1.19162
0.178892
0.178664
0.17855
0.178504
1.19184
1.0567
1.05648
0.855655
0.486639
0.273053
0.201289
0.19142
0.178711
0.169418
0.164301
0.16081
0.159344
0.158614
0.161916
0.187807
0.240313
0.34073
0.564714
1.0362
1.1878
1.19042
1.19069
1.19093
1.19117
1.19141
1.19163
0.178761
0.178566
0.17847
0.178417
1.19185
1.0567
0.786062
0.43936
0.257758
0.197808
0.189582
0.178366
0.169637
0.164736
0.161316
0.159818
0.158989
0.161034
0.179784
0.223792
0.306651
0.4734
0.864507
1.17658
1.19011
1.19049
1.19073
1.19097
1.1912
1.19143
1.19165
0.178642
0.178479
0.178396
0.178337
1.19185
0.691864
0.399505
0.243131
0.194616
0.187888
0.177976
0.169841
0.165113
0.161764
0.160251
0.159391
0.160838
0.17452
0.21053
0.278998
0.412103
0.702553
1.1289
1.18946
1.1903
1.19054
1.19077
1.191
1.19123
1.19145
1.19166
0.178533
0.1784
0.178327
0.178262
1.19186
0.597386
0.362836
0.229828
0.191662
0.18626
0.177565
0.170014
0.165454
0.162174
0.160612
0.159707
0.160678
0.170852
0.20066
0.257376
0.364591
0.5878
1.02377
1.18678
1.19011
1.19036
1.19058
1.19081
1.19103
1.19125
1.19147
1.19167
0.178433
0.178328
0.178259
1.19186
0.51997
0.328286
0.218337
0.189053
0.184662
0.177149
0.170152
0.165768
0.162574
0.160993
0.159954
0.160392
0.167963
0.193205
0.24099
0.328563
0.502329
0.876531
1.17389
1.1898
1.19018
1.1904
1.19062
1.19084
1.19107
1.19128
1.19149
1.19168
0.178343
0.178259
1.19186
0.459217
0.29497
0.209533
0.186747
0.183164
0.176705
0.170267
0.166057
0.162959
0.16141
0.160298
0.160162
0.16535
0.187268
0.22834
0.301509
0.440003
0.731903
1.13084
1.18914
1.19
1.19023
1.19044
1.19066
1.19088
1.19109
1.1913
1.1915
1.19169
0.178263
1.19186
0.408363
0.265579
0.202386
0.184608
0.181787
0.176237
0.170354
0.166323
0.163321
0.161818
0.160716
0.160317
0.163544
0.182093
0.21824
0.280667
0.394055
0.621145
1.0395
1.18676
1.18982
1.19006
1.19027
1.19048
1.1907
1.19091
1.19112
1.19132
1.19152
1.1917
1.19187
0.362999
0.240888
0.196407
0.182587
0.180469
0.175767
0.170404
0.166564
0.163655
0.162196
0.161128
0.160644
0.163057
0.177842
0.209634
0.264135
0.35927
0.540558
0.906348
1.17611
1.18954
1.18989
1.1901
1.19031
1.19052
1.19074
1.19095
1.19115
1.19134
1.19153
1.1917
1.19187
0.319721
0.221912
0.191459
0.180659
0.179177
0.175285
0.170422
0.166776
0.163954
0.162537
0.161505
0.160973
0.162905
0.17474
0.20242
0.250335
0.332102
0.480996
0.77643
1.14014
1.189
1.18972
1.18993
1.19014
1.19035
1.19056
1.19077
1.19098
1.19117
1.19136
1.19154
1.19171
1.19187
0.278654
0.208305
0.187219
0.178791
0.177898
0.174775
0.170411
0.16696
0.164225
0.162833
0.161838
0.161252
0.162788
0.172349
0.196565
0.238846
0.30988
0.435184
0.674077
1.06668
1.18718
1.18955
1.18977
1.18997
1.19018
1.19039
1.1906
1.19081
1.191
1.1912
1.19138
1.19155
1.19172
1.19187
0.24114
0.197914
0.183447
0.176987
0.176615
0.174224
0.170367
0.167123
0.164483
0.16311
0.162118
0.161485
0.162657
0.170383
0.191746
0.22934
0.291641
0.39858
0.595652
0.960061
1.17981
1.1893
1.18961
1.18981
1.19001
1.19022
1.19043
1.19064
1.19084
1.19103
1.19122
1.19139
1.19156
1.19172
1.19188
0.213556
0.189787
0.180141
0.175323
0.175329
0.173624
0.170285
0.167267
0.164736
0.163394
0.162393
0.16166
0.16252
0.16873
0.187703
0.221371
0.276611
0.369143
0.534551
0.844145
1.15627
1.18888
1.18945
1.18965
1.18985
1.19006
1.19026
1.19047
1.19067
1.19087
1.19106
1.19124
1.19141
1.19157
1.19173
1.19188
0.196342
0.183698
0.177412
0.173886
0.174091
0.172971
0.170159
0.167388
0.164981
0.163687
0.162693
0.161884
0.162362
0.167339
0.184279
0.214621
0.264018
0.345198
0.486086
0.744571
1.10575
1.18784
1.18928
1.18949
1.18969
1.18989
1.1901
1.19031
1.19051
1.1907
1.1909
1.19108
1.19125
1.19142
1.19158
1.19173
1.19188
0.186366
0.17941
0.175293
0.172713
0.172972
0.17228
0.169981
0.16748
0.165213
0.163978
0.163013
0.162184
0.162419
0.166145
0.181366
0.20887
0.25335
0.325324
0.446989
0.664649
1.02752
1.18412
1.18908
1.18933
1.18953
1.18973
1.18994
1.19014
1.19035
1.19054
1.19074
1.19092
1.1911
1.19127
1.19143
1.19159
1.19174
1.19188
0.180615
0.176493
0.17371
0.171788
0.172022
0.171594
0.169751
0.167537
0.165426
0.164257
0.163335
0.162523
0.162651
0.165691
0.178872
0.203945
0.244258
0.308603
0.41502
0.600908
0.926889
1.17208
1.18878
1.18918
1.18937
1.18957
1.18978
1.18998
1.19019
1.19038
1.19058
1.19077
1.19095
1.19112
1.19128
1.19144
1.19159
1.19174
1.19188
0.177146
0.174504
0.172539
0.171068
0.171245
0.170956
0.16948
0.167553
0.165614
0.164519
0.163645
0.162867
0.16295
0.165613
0.176996
0.199714
0.236459
0.294417
0.388503
0.549387
0.831027
1.14254
1.18825
1.18902
1.18922
1.18942
1.18962
1.18982
1.19003
1.19023
1.19042
1.19061
1.19079
1.19097
1.19114
1.1913
1.19145
1.1916
1.19174
1.19189
0.174921
0.173115
0.171665
0.170505
0.170625
0.170398
0.169192
0.167528
0.165772
0.164758
0.163937
0.163198
0.163257
0.16565
0.175613
0.196192
0.229752
0.282286
0.366234
0.506875
0.749796
1.09018
1.18675
1.18886
1.18907
1.18926
1.18946
1.18967
1.18987
1.19007
1.19027
1.19046
1.19064
1.19082
1.19099
1.19115
1.19131
1.19146
1.19161
1.19176
0.173412
0.172115
0.171
0.170061
0.17013
0.169927
0.16891
0.16747
0.165897
0.164971
0.164208
0.163511
0.163553
0.165724
0.174541
0.193291
0.224028
0.271871
0.347332
0.471337
0.682398
1.01811
1.18191
1.18863
1.18891
1.18911
1.18931
1.18951
1.18971
1.18991
1.19011
1.1903
1.19049
1.19067
1.19084
1.19101
1.19117
1.19132
1.19147
1.19162
0.172343
0.171367
0.170486
0.169707
0.169736
0.169539
0.168652
0.167393
0.16599
0.165156
0.164456
0.163805
0.163836
0.165813
0.173677
0.190869
0.219145
0.262936
0.331185
0.441424
0.626535
0.932373
1.16889
1.18832
1.18876
1.18896
1.18915
1.18936
1.18956
1.18976
1.18996
1.19015
1.19034
1.19052
1.19069
1.19086
1.19103
1.19118
1.19133
1.19149
0.171548
0.1708
0.170081
0.169423
0.16942
0.169222
0.168427
0.167309
0.166058
0.165312
0.164678
0.16408
0.164106
0.165915
0.172972
0.188816
0.214953
0.255234
0.317349
0.416087
0.57974
0.851
1.1417
1.18776
1.1886
1.18881
1.189
1.1892
1.1894
1.18961
1.1898
1.19
1.19019
1.19037
1.19055
1.19072
1.19088
1.19104
1.1912
1.19135
0.17096
0.170355
0.169756
0.169192
0.169166
0.168965
0.168238
0.167231
0.166109
0.165444
0.164876
0.164335
0.164365
0.166029
0.172397
0.187059
0.211321
0.248547
0.305412
0.394505
0.54008
0.780018
1.09677
1.18632
1.18844
1.18865
1.18885
1.18905
1.18925
1.18945
1.18965
1.18985
1.19004
1.19022
1.1904
1.19057
1.19074
1.1909
1.19106
1.19121
0.170493
0.169999
0.169493
0.169007
0.16896
0.168757
0.168083
0.167165
0.166152
0.16556
0.165051
0.16457
0.164613
0.166155
0.171934
0.18555
0.208153
0.242701
0.295028
0.375974
0.506225
0.719326
1.03699
1.18218
1.18822
1.18851
1.1887
1.1889
1.1891
1.1893
1.1895
1.1897
1.18989
1.19007
1.19025
1.19043
1.1906
1.19076
1.19092
1.19108
0.170121
0.169712
0.16928
0.168859
0.168796
0.168591
0.167961
0.167116
0.166197
0.165666
0.165209
0.164788
0.164852
0.166295
0.171571
0.184253
0.205377
0.237557
0.28593
0.359926
0.477217
0.667571
0.964547
1.17201
1.18794
1.18835
1.18855
1.18875
1.18895
1.18915
1.18935
1.18955
1.18974
1.18993
1.19011
1.19029
1.19046
1.19062
1.19078
1.19094
0.169821
0.169479
0.169107
0.168743
0.168666
0.16846
0.167869
0.167087
0.166249
0.165771
0.165359
0.164994
0.165084
0.166449
0.171298
0.183141
0.202935
0.233009
0.277906
0.345906
0.452218
0.623238
0.893239
1.1515
1.18749
1.1882
1.1884
1.1886
1.1888
1.189
1.1892
1.1894
1.18959
1.18978
1.18996
1.19014
1.19031
1.19048
1.19064
1.1908
0.169578
0.169289
0.16897
0.168656
0.168568
0.168361
0.167804
0.167078
0.166314
0.165882
0.165507
0.165194
0.165314
0.16662
0.17111
0.182195
0.200784
0.22897
0.270791
0.333561
0.430478
0.584985
0.82865
1.11765
1.1865
1.18805
1.18825
1.18845
1.18865
1.18885
1.18905
1.18925
1.18944
1.18963
1.18982
1.19
1.19017
1.19034
1.1905
1.19066
0.16938
0.169137
0.168864
0.168596
0.168497
0.168289
0.167765
0.167091
0.166394
0.166004
0.165661
0.165396
0.165548
0.166812
0.171004
0.181403
0.198891
0.22537
0.264452
0.322624
0.411422
0.551562
0.772004
1.07158
1.18393
1.18785
1.18811
1.1883
1.1885
1.1887
1.1889
1.1891
1.18929
1.18949
1.18967
1.18985
1.19003
1.1902
1.19037
1.19053
0.169221
0.169017
0.168785
0.168559
0.168451
0.168244
0.167749
0.167126
0.166494
0.166143
0.165826
0.165607
0.165793
0.167031
0.17098
0.180756
0.197232
0.222157
0.25878
0.312883
0.394621
0.522245
0.722289
1.01366
1.17779
1.18761
1.18796
1.18815
1.18835
1.18855
1.18875
1.18895
1.18915
1.18934
1.18953
1.18971
1.18989
1.19006
1.19023
1.19039
0.169094
0.168926
0.168731
0.168545
0.168428
0.168222
0.167757
0.167182
0.166613
0.166301
0.166009
0.165834
0.166056
0.167282
0.17104
0.180249
0.195791
0.21929
0.25369
0.304169
0.379726
0.496452
0.678707
0.951602
1.1651
1.18729
1.18781
1.18801
1.1882
1.1884
1.18861
1.18881
1.189
1.1892
1.18938
1.18957
1.18975
1.18992
1.19009
1.19025
0.168996
0.168859
0.1687
0.168554
0.168429
0.168222
0.167787
0.16726
0.166755
0.166481
0.166213
0.166081
0.166344
0.167573
0.171186
0.179882
0.194557
0.216739
0.249115
0.296345
0.366451
0.473651
0.640287
0.891906
1.14334
1.18674
1.18766
1.18786
1.18806
1.18826
1.18846
1.18866
1.18886
1.18905
1.18924
1.18943
1.18961
1.18978
1.18995
1.19012
0.168924
0.168816
0.168691
0.168586
0.168452
0.168246
0.167839
0.167359
0.166919
0.166685
0.166439
0.166354
0.166662
0.167909
0.171421
0.179653
0.193522
0.214482
0.245001
0.289299
0.354562
0.453379
0.606202
0.837347
1.1109
1.18552
1.18749
1.18771
1.18791
1.18811
1.18831
1.18851
1.18871
1.18891
1.1891
1.18928
1.18946
1.18964
1.18981
1.18998
0.168875
0.168795
0.168704
0.168642
0.1685
0.168294
0.167916
0.167482
0.167104
0.166913
0.166691
0.166654
0.167015
0.168295
0.171746
0.179562
0.192683
0.212503
0.241309
0.28294
0.343871
0.435274
0.575749
0.788411
1.0697
1.18264
1.18729
1.18757
1.18776
1.18796
1.18817
1.18837
1.18857
1.18876
1.18895
1.18914
1.18932
1.1895
1.18967
1.18984
0.168848
0.168796
0.168741
0.168725
0.168574
0.168368
0.168022
0.167637
0.16732
0.167164
0.16697
0.166985
0.167404
0.168733
0.172163
0.179609
0.192037
0.210792
0.238008
0.277199
0.334224
0.419047
0.548503
0.744453
1.01873
1.17652
1.18705
1.18742
1.18762
1.18782
1.18802
1.18822
1.18842
1.18862
1.18881
1.189
1.18918
1.18936
1.18954
1.18971
0.168843
0.168818
0.168801
0.168838
0.168676
0.16847
0.168158
0.167829
0.167581
0.167455
0.167273
0.167347
0.167832
0.169225
0.172669
0.179792
0.191578
0.209338
0.235075
0.272022
0.325505
0.404455
0.524093
0.705057
0.96502
1.16492
1.18675
1.18727
1.18747
1.18767
1.18787
1.18808
1.18828
1.18847
1.18867
1.18886
1.18904
1.18922
1.1894
1.18957
0.168858
0.168863
0.168887
0.168988
0.168812
0.168605
0.168332
0.16806
0.167893
0.167806
0.167625
0.167736
0.168299
0.16977
0.173262
0.180107
0.191304
0.208135
0.232492
0.267365
0.317618
0.391299
0.502163
0.669629
0.912801
1.14596
1.18623
1.18712
1.18733
1.18753
1.18773
1.18793
1.18813
1.18833
1.18853
1.18872
1.1889
1.18908
1.18926
1.18943
0.168896
0.168931
0.169006
0.169186
0.16899
0.168779
0.168547
0.168342
0.168255
0.168219
0.16805
0.168198
0.168799
0.170369
0.173939
0.180549
0.191208
0.207173
0.230242
0.263192
0.310485
0.379412
0.482397
0.637644
0.864125
1.11851
1.18516
1.18696
1.18718
1.18738
1.18758
1.18779
1.18799
1.18819
1.18838
1.18858
1.18876
1.18894
1.18912
1.1893
0.168956
0.169028
0.169164
0.169453
0.169222
0.169003
0.168816
0.168683
0.168695
0.168693
0.168546
0.168758
0.169416
0.171013
0.174695
0.181111
0.191283
0.206445
0.22831
0.259473
0.304044
0.368659
0.464538
0.608633
0.819595
1.08375
1.18284
1.18677
1.18704
1.18724
1.18744
1.18764
1.18785
1.18805
1.18824
1.18844
1.18862
1.18881
1.18899
1.18916
0.169042
0.16916
0.16938
0.169827
0.169535
0.169294
0.169159
0.169105
0.169215
0.169271
0.169112
0.169403
0.170169
0.171861
0.175521
0.181789
0.191523
0.20594
0.226682
0.256182
0.29824
0.358925
0.448381
0.582322
0.778888
1.04098
1.17811
1.18655
1.18689
1.18709
1.1873
1.1875
1.1877
1.1879
1.1881
1.18829
1.18848
1.18867
1.18885
1.18902
0.169162
0.169341
0.169683
0.170387
0.16997
0.169683
0.169597
0.169639
0.169863
0.169948
0.169805
0.170134
0.171023
0.172901
0.176494
0.182571
0.191918
0.205649
0.225345
0.253296
0.293028
0.350117
0.433752
0.558469
0.74185
0.994378
1.16936
1.18628
1.18675
1.18695
1.18715
1.18736
1.18756
1.18776
1.18796
1.18815
1.18834
1.18853
1.18871
1.18889
0.169326
0.169596
0.170138
0.171379
0.170622
0.170223
0.170185
0.170317
0.170682
0.170801
0.170612
0.171044
0.17199
0.174055
0.177634
0.183491
0.192458
0.205561
0.224284
0.250792
0.288367
0.342153
0.420498
0.536834
0.708101
0.947715
1.15514
1.18589
1.1866
1.18681
1.18701
1.18721
1.18742
1.18762
1.18782
1.18801
1.18821
1.18839
1.18857
1.18875
0.169558
0.169981
0.170943
0.173312
0.171776
0.171032
0.170997
0.171232
0.171716
0.171875
0.171636
0.17209
0.173225
0.175308
0.1789
0.184568
0.193154
0.205665
0.223485
0.248649
0.284224
0.334963
0.408488
0.517183
0.677296
0.903112
1.13415
1.18516
1.18645
1.18666
1.18687
1.18707
1.18728
1.18748
1.18768
1.18787
1.18807
1.18825
1.18844
1.18862
0.16991
0.170659
0.172702
0.175994
0.173817
0.172443
0.17222
0.172496
0.173129
0.17323
0.172926
0.173444
0.174604
0.176744
0.180271
0.185784
0.194015
0.205961
0.222936
0.246848
0.280563
0.328491
0.397608
0.499318
0.649078
0.861503
1.10656
1.18369
1.18628
1.18652
1.18672
1.18693
1.18713
1.18734
1.18754
1.18774
1.18793
1.18812
1.1883
1.18848
0.170527
0.17227
0.175308
0.179179
0.176547
0.174648
0.17411
0.174292
0.17493
0.174915
0.174508
0.175028
0.1762
0.178319
0.181786
0.187123
0.195034
0.206447
0.222628
0.245371
0.277357
0.322683
0.387762
0.483075
0.623242
0.823021
1.07301
1.18074
1.18608
1.18638
1.18658
1.18679
1.18699
1.1872
1.1874
1.1876
1.18779
1.18798
1.18817
1.18834
0.172058
0.174812
0.17847
0.182683
0.179747
0.177453
0.176577
0.176561
0.1771
0.176918
0.176371
0.176843
0.177988
0.180061
0.183434
0.188596
0.196198
0.207117
0.222553
0.244204
0.274578
0.317492
0.378861
0.468314
0.599627
0.787529
1.03365
1.17527
1.18585
1.18624
1.18644
1.18664
1.18685
1.18706
1.18726
1.18746
1.18765
1.18784
1.18803
1.18821
0.174563
0.177954
0.181974
0.186387
0.18325
0.180675
0.179497
0.179238
0.179608
0.179227
0.178505
0.178885
0.179965
0.181967
0.185226
0.190203
0.197506
0.20796
0.2227
0.24333
0.272203
0.312879
0.370831
0.45491
0.578068
0.754883
0.992411
1.16606
1.18557
1.18609
1.1863
1.1865
1.18671
1.18692
1.18712
1.18732
1.18751
1.18771
1.18789
1.18807
0.177694
0.181457
0.185687
0.190215
0.186946
0.184176
0.182753
0.182253
0.182418
0.181822
0.180905
0.181151
0.18213
0.184033
0.187164
0.191947
0.198958
0.208971
0.223058
0.242734
0.27021
0.308806
0.363604
0.442747
0.558395
0.724843
0.951581
1.15195
1.18514
1.18595
1.18616
1.18636
1.18657
1.18677
1.18698
1.18718
1.18738
1.18757
1.18776
1.18794
0.181196
0.185175
0.189528
0.194118
0.190763
0.187859
0.186246
0.185532
0.185487
0.184676
0.183556
0.183639
0.184483
0.186262
0.189247
0.193831
0.200552
0.210144
0.223617
0.2424
0.268573
0.30524
0.357122
0.431723
0.540441
0.697179
0.912502
1.13227
1.18437
1.1858
1.18602
1.18622
1.18643
1.18663
1.18684
1.18704
1.18724
1.18743
1.18762
1.1878
0.184917
0.189025
0.193446
0.198067
0.194655
0.191659
0.189901
0.189008
0.188767
0.187756
0.186437
0.186341
0.187025
0.188654
0.191477
0.195853
0.202289
0.211476
0.224369
0.242316
0.267272
0.302145
0.351331
0.42175
0.524063
0.671673
0.875814
1.10735
1.18288
1.18562
1.18588
1.18608
1.18629
1.1865
1.1867
1.1869
1.1871
1.1873
1.18749
1.18767
0.18877
0.192952
0.197409
0.20204
0.198592
0.195532
0.193663
0.192625
0.192211
0.191023
0.189522
0.189242
0.189751
0.191211
0.193854
0.198016
0.204168
0.212965
0.225307
0.242467
0.266287
0.299489
0.346178
0.412745
0.509141
0.648201
0.841611
1.0775
1.18008
1.18543
1.18573
1.18594
1.18615
1.18636
1.18656
1.18677
1.18696
1.18716
1.18735
1.18754
0.192702
0.196925
0.201397
0.206026
0.202554
0.19945
0.197496
0.196339
0.195778
0.194438
0.192777
0.192319
0.19265
0.193928
0.196379
0.200319
0.206189
0.214606
0.226424
0.242843
0.265599
0.297246
0.341616
0.404632
0.495563
0.626653
0.80986
1.0431
1.17515
1.18521
1.18559
1.1858
1.18601
1.18622
1.18642
1.18663
1.18683
1.18702
1.18722
1.1874
0.19668
0.200923
0.205396
0.210013
0.206527
0.203392
0.201371
0.200119
0.199433
0.197968
0.196169
0.195548
0.195703
0.196798
0.19905
0.202761
0.20835
0.216398
0.227714
0.243434
0.265191
0.295386
0.337605
0.39734
0.483226
0.606908
0.78047
1.00706
1.1672
1.18495
1.18545
1.18566
1.18587
1.18608
1.18629
1.18649
1.18669
1.18689
1.18708
1.18727
0.200682
0.204931
0.209397
0.213998
0.210504
0.207348
0.205273
0.203942
0.203151
0.201581
0.199669
0.198901
0.198891
0.199806
0.20186
0.205341
0.21065
0.218339
0.229173
0.244229
0.265049
0.293888
0.334105
0.390807
0.472032
0.588834
0.75328
0.971155
1.1553
1.18457
1.18531
1.18552
1.18573
1.18594
1.18615
1.18635
1.18656
1.18675
1.18695
1.18713
0.204695
0.208942
0.213395
0.217976
0.214479
0.211307
0.209189
0.207791
0.20691
0.205254
0.203249
0.202353
0.202192
0.202936
0.204795
0.208051
0.213085
0.220424
0.230796
0.245221
0.265158
0.292728
0.33108
0.384973
0.46189
0.572298
0.728108
0.936513
1.13893
1.18393
1.18516
1.18538
1.18559
1.1858
1.18601
1.18622
1.18642
1.18662
1.18681
1.187
0.20871
0.212948
0.217385
0.221945
0.218446
0.215264
0.21311
0.211655
0.210697
0.208969
0.206888
0.205881
0.205585
0.206168
0.207843
0.210881
0.215648
0.222649
0.232577
0.246402
0.265505
0.291885
0.328499
0.379788
0.452719
0.557182
0.704803
0.903685
1.11821
1.18278
1.185
1.18525
1.18545
1.18566
1.18587
1.18608
1.18628
1.18648
1.18668
1.18687
0.212721
0.216947
0.221366
0.225902
0.222405
0.219216
0.21703
0.215527
0.214502
0.212712
0.210569
0.209466
0.209049
0.209486
0.210986
0.213815
0.218328
0.225004
0.234508
0.247763
0.266077
0.291341
0.326332
0.375203
0.444443
0.543381
0.683272
0.872928
1.0939
1.18068
1.18482
1.18511
1.18531
1.18553
1.18574
1.18594
1.18615
1.18635
1.18654
1.18673
0.216723
0.220935
0.225334
0.229847
0.226353
0.22316
0.220947
0.219401
0.218315
0.216474
0.214279
0.213093
0.21257
0.212873
0.21421
0.216842
0.221112
0.22748
0.236581
0.249294
0.266864
0.291077
0.32455
0.371172
0.436993
0.530799
0.663428
0.844184
1.0651
1.1771
1.18462
1.18497
1.18518
1.18539
1.1856
1.18581
1.18601
1.18621
1.18641
1.1866
0.220715
0.224911
0.22929
0.233779
0.23029
0.227093
0.224857
0.223273
0.222133
0.220247
0.218008
0.21675
0.216132
0.216315
0.217501
0.219947
0.223987
0.230064
0.238783
0.250984
0.26785
0.291076
0.323128
0.367655
0.430306
0.519345
0.645177
0.817447
1.03434
1.17136
1.1844
1.18483
1.18504
1.18525
1.18546
1.18567
1.18588
1.18608
1.18628
1.18647
0.224695
0.228875
0.233233
0.237698
0.234213
0.231015
0.228758
0.227139
0.225951
0.224025
0.221749
0.220428
0.219725
0.219799
0.220846
0.223118
0.226941
0.232741
0.2411
0.252819
0.269023
0.29132
0.32204
0.364614
0.42432
0.508934
0.628414
0.792604
1.00311
1.16279
1.1841
1.18469
1.1849
1.18511
1.18533
1.18554
1.18574
1.18594
1.18614
1.18634
0.228662
0.232824
0.237161
0.241603
0.238124
0.234925
0.232649
0.230999
0.229766
0.227805
0.225496
0.224119
0.223341
0.223315
0.224234
0.226345
0.229962
0.235502
0.24352
0.254784
0.270365
0.29179
0.321263
0.362013
0.418982
0.499482
0.613027
0.769523
0.972485
1.15081
1.18367
1.18456
1.18477
1.18498
1.18519
1.1854
1.18561
1.18581
1.18601
1.1862
0.232615
0.23676
0.241076
0.245494
0.242021
0.238823
0.23653
0.234851
0.233577
0.231583
0.229247
0.227819
0.226972
0.226856
0.227657
0.229617
0.233041
0.238333
0.24603
0.256866
0.271861
0.292467
0.320771
0.359818
0.414241
0.490916
0.59891
0.748051
0.943091
1.13529
1.18295
1.1844
1.18463
1.18484
1.18505
1.18527
1.18547
1.18568
1.18588
1.18607
0.236553
0.240681
0.244977
0.249372
0.245905
0.242707
0.240399
0.238693
0.23738
0.235358
0.232997
0.231523
0.230615
0.230415
0.231108
0.232926
0.236168
0.241227
0.248619
0.25905
0.273494
0.293332
0.320541
0.357997
0.410048
0.483164
0.585969
0.728108
0.915246
1.11654
1.1817
1.18423
1.1845
1.18471
1.18492
1.18513
1.18534
1.18554
1.18575
1.18594
0.240477
0.244588
0.248864
0.253236
0.249775
0.246579
0.244256
0.242525
0.241177
0.239128
0.236745
0.235229
0.234263
0.233987
0.234579
0.236265
0.239336
0.244173
0.251278
0.261325
0.27525
0.294365
0.320548
0.356516
0.406358
0.476162
0.574117
0.709622
0.889055
1.09483
1.17959
1.18406
1.18436
1.18457
1.18478
1.185
1.18521
1.18541
1.18561
1.18581
0.244388
0.248481
0.252736
0.257085
0.253631
0.250437
0.248101
0.246346
0.244964
0.242892
0.240489
0.238935
0.237916
0.237569
0.238066
0.239628
0.242539
0.247166
0.253996
0.263681
0.277115
0.29555
0.32077
0.355345
0.403127
0.469847
0.563274
0.692521
0.864514
1.07003
1.1762
1.18387
1.18423
1.18444
1.18465
1.18486
1.18507
1.18528
1.18548
1.18568
0.248284
0.25236
0.256594
0.26092
0.257474
0.254282
0.251933
0.250156
0.248743
0.246648
0.244228
0.242638
0.24157
0.241156
0.241565
0.243012
0.24577
0.250199
0.256769
0.266108
0.279077
0.296871
0.321185
0.354456
0.400315
0.46416
0.55336
0.676723
0.841587
1.04384
1.17105
1.18365
1.18409
1.1843
1.18452
1.18473
1.18494
1.18514
1.18535
1.18555
0.252165
0.256223
0.260437
0.26474
0.261302
0.258113
0.255753
0.253956
0.252512
0.250396
0.24796
0.246337
0.245223
0.244748
0.245074
0.246411
0.249026
0.253266
0.259588
0.2686
0.281127
0.298314
0.321775
0.353822
0.397883
0.459048
0.5443
0.662136
0.820178
1.01734
1.16364
1.18338
1.18396
1.18417
1.18438
1.18459
1.18481
1.18501
1.18522
1.18542
0.256031
0.260072
0.264265
0.268545
0.265115
0.261931
0.25956
0.257743
0.256272
0.254135
0.251684
0.25003
0.248874
0.24834
0.248589
0.249822
0.252301
0.256362
0.262449
0.271148
0.283255
0.299867
0.322524
0.35342
0.395797
0.454458
0.536022
0.648664
0.800175
0.991297
1.15359
1.18299
1.18382
1.18404
1.18425
1.18446
1.18467
1.18488
1.18509
1.18529
0.259882
0.263905
0.268078
0.272335
0.268914
0.265734
0.263354
0.261519
0.26002
0.257866
0.255401
0.253718
0.252521
0.251933
0.252108
0.253244
0.255594
0.259485
0.265347
0.273748
0.285454
0.30152
0.323415
0.353227
0.394026
0.450346
0.528461
0.63622
0.781446
0.966166
1.1408
1.18238
1.18367
1.1839
1.18412
1.18433
1.18454
1.18475
1.18495
1.18516
0.263719
0.267724
0.271876
0.27611
0.272698
0.269522
0.267134
0.265282
0.263758
0.261587
0.25911
0.257399
0.256164
0.255524
0.25563
0.256673
0.2589
0.262629
0.268277
0.276393
0.287718
0.303264
0.324437
0.353226
0.392541
0.446669
0.521556
0.624723
0.763933
0.942169
1.12547
1.18138
1.18351
1.18377
1.18398
1.1842
1.18441
1.18462
1.18482
1.18503
0.267539
0.271527
0.275658
0.27987
0.276467
0.273296
0.2709
0.269032
0.267484
0.265297
0.26281
0.261073
0.259802
0.259113
0.259153
0.260108
0.262218
0.265793
0.271236
0.279081
0.290041
0.305091
0.325578
0.353399
0.391318
0.443391
0.515253
0.614104
0.747582
0.919462
1.1081
1.17977
1.18335
1.18364
1.18385
1.18406
1.18428
1.18449
1.18469
1.1849
0.271345
0.275315
0.279425
0.283614
0.28022
0.277055
0.274652
0.272769
0.271199
0.268998
0.2665
0.264739
0.263435
0.262699
0.262675
0.263546
0.265545
0.268973
0.274221
0.281806
0.292418
0.306995
0.326829
0.353733
0.390335
0.440476
0.509502
0.604294
0.732334
0.898021
1.08791
1.17728
1.18317
1.18351
1.18372
1.18393
1.18414
1.18435
1.18456
1.18477
0.275135
0.279086
0.283177
0.287343
0.283959
0.280799
0.278389
0.276493
0.274901
0.272687
0.27018
0.268397
0.26706
0.26628
0.266196
0.266987
0.26888
0.272167
0.277228
0.284565
0.294844
0.308969
0.328181
0.354214
0.389571
0.437895
0.504257
0.595233
0.718125
0.877842
1.0663
1.17355
1.18298
1.18337
1.18359
1.1838
1.18401
1.18422
1.18443
1.18464
0.278909
0.282843
0.286912
0.291056
0.287682
0.284528
0.282113
0.280203
0.278591
0.276364
0.273849
0.272045
0.270678
0.269856
0.269715
0.27043
0.272221
0.275373
0.280256
0.287355
0.297315
0.311008
0.329627
0.354832
0.38901
0.43562
0.499478
0.586864
0.704886
0.858859
1.04408
1.16825
1.18275
1.18324
1.18346
1.18367
1.18388
1.18409
1.1843
1.18451
0.282668
0.286583
0.290632
0.294753
0.291389
0.288242
0.285821
0.283899
0.282268
0.28003
0.277508
0.275684
0.274288
0.273426
0.273231
0.273873
0.275567
0.27859
0.283302
0.290173
0.299827
0.313107
0.33116
0.355576
0.388636
0.433628
0.495128
0.579132
0.692547
0.840989
1.0219
1.16104
1.18246
1.18311
1.18333
1.18354
1.18375
1.18396
1.18417
1.18438
0.28641
0.290308
0.294336
0.298435
0.295081
0.291941
0.289515
0.287581
0.285933
0.283683
0.281155
0.279313
0.27789
0.276989
0.276743
0.277315
0.278915
0.281815
0.286363
0.293015
0.302378
0.315262
0.332773
0.356438
0.388436
0.431898
0.491173
0.571989
0.681042
0.824132
1.00019
1.15175
1.18204
1.18297
1.1832
1.18341
1.18362
1.18383
1.18404
1.18425
0.290137
0.294016
0.298024
0.3021
0.298757
0.295624
0.293194
0.29125
0.289584
0.287325
0.284791
0.282931
0.281482
0.280546
0.280249
0.280755
0.282266
0.285047
0.289438
0.295881
0.304962
0.317468
0.334461
0.357409
0.388398
0.43041
0.487585
0.565392
0.670309
0.808224
0.979196
1.14039
1.18141
1.18283
1.18307
1.18328
1.18349
1.1837
1.18391
1.18412
0.293848
0.297709
0.301696
0.305749
0.302417
0.299291
0.296858
0.294903
0.293221
0.290953
0.288415
0.286538
0.285065
0.284094
0.28375
0.284192
0.285618
0.288285
0.292525
0.298767
0.307579
0.319721
0.336219
0.358482
0.388511
0.429148
0.484337
0.559301
0.660298
0.793232
0.959049
1.12719
1.18044
1.18267
1.18294
1.18315
1.18336
1.18357
1.18379
1.18399
0.297542
0.301385
0.305351
0.309381
0.306061
0.302943
0.300507
0.298543
0.296845
0.294569
0.292026
0.290134
0.288638
0.287634
0.287245
0.287625
0.28897
0.291528
0.295622
0.301671
0.310225
0.322019
0.338042
0.359651
0.388765
0.428097
0.481405
0.553681
0.650961
0.779121
0.939854
1.11229
1.17895
1.18251
1.18281
1.18302
1.18323
1.18344
1.18366
1.18386
0.30122
0.305044
0.30899
0.312997
0.309689
0.306578
0.30414
0.302167
0.300455
0.298171
0.295625
0.293718
0.2922
0.291165
0.290733
0.291054
0.29232
0.294773
0.298728
0.304592
0.312898
0.324357
0.339925
0.360909
0.389151
0.427241
0.478767
0.548499
0.642254
0.765851
0.921612
1.09534
1.17675
1.18234
1.18268
1.18289
1.1831
1.18331
1.18353
1.18374