/*--------------------------------*- C++ -*----------------------------------*\
| =========                 |                                                 |
| \\      /  F ield         | OpenFOAM: The Open Source CFD Toolbox           |
|  \\    /   O peration     | Version:  1.6.x                                 |
|   \\  /    A nd           | Web:      www.OpenFOAM.org                      |
|    \\/     M anipulation  |                                                 |
\*---------------------------------------------------------------------------*/
FoamFile
{
    version     2.0;
    format      ascii;
    class       volScalarField;
    location    "7000";
    object      RR(H2O);
}
// * * * * * * * * * * * * * * * * * * * * * * * * * * * * * * * * * * * * * //

dimensions      [1 -3 -1 0 0 0 0];

internalField   nonuniform List<scalar> 
4608
(
0
0
0
0
0
0
0
0
0
48.1727
0
0
0
0
0
0
0
136.705
50.2441
0
0
0
0
0
0
0
0
125.647
46.085
0.415521
10.3768
0
0
0
0
0
0
0
0
107.68
32.5676
13.6709
0.0476977
0.00190042
0.535745
0
0
0
0
0
0
0
0
94.8809
25.9953
8.48258
6.75725
0.00759851
0.000415476
1.05498e-05
0.0404871
0
0
0
0
0
0
0
102.433
93.928
21.4369
6.30677
12.2952
0.570504
0.00077924
9.71141e-05
3.50756e-06
5.96071e-08
0.00748138
0
0
0
0
0
0
0
69.0361
73.3189
23.9159
4.98962
8.32051
1.95487
0.133499
1.16914e-05
1.02039e-06
2.67449e-08
3.4294e-10
0.00275061
0
0
0
0
0
0
0
52.495
49.872
25.0017
5.56215
6.47036
5.41215
0.456826
0.031025
1.44557e-07
9.61097e-09
1.97114e-10
2.62088e-12
0.000166659
0
0
0
0
0
0
0
42.9719
36.7966
20.5842
6.96203
4.26631
8.48752
1.33048
0.104773
0.00438799
1.57613e-09
8.45766e-11
1.96819e-12
2.07536e-14
6.96778e-07
0
0
0
0
0
0
0
36.3502
30.3811
16.0787
6.25641
3.08505
13.5221
2.23186
0.312734
0.0165868
0.000179191
1.56911e-11
1.24564e-12
1.95527e-14
-0
1.15904e-09
0
0
0
0
0
0
0
35.4899
26.7709
13.0728
5.00365
2.32287
10.6251
3.8547
0.572495
0.0523465
0.00149524
6.88516e-07
3.31226e-13
1.76493e-14
-0
-0
1.20539e-11
0
0
0
0
0
0
0
34.263
26.5071
10.9002
4.0146
1.82258
5.97355
13.6924
1.06223
0.106841
0.00673617
1.90057e-05
1.5e-09
8.16247e-15
-0
-0
-0
4.74689e-13
0
0
0
0
0
0
63.0554
30.3779
27.288
10.4194
3.18164
1.49614
4.11708
24.9375
3.80166
0.21188
0.0173659
0.000265298
3.50161e-08
1.98194e-11
-0
-0
-3.70286e-15
-0
5.10716e-14
0
0
0
0
0
0
50.4176
26.3624
26.0606
11.3643
2.8698
1.26333
2.95729
16.9017
7.06029
0.799609
0.038638
0.00170652
7.82962e-07
1.98917e-10
7.26427e-13
-0
-0
-0
-0
7.23656e-15
0
0
0
0
0
0
41.561
23.0808
23.9107
11.2343
3.08717
1.17888
2.35328
10.1949
11.6465
1.50873
0.146713
0.00560953
2.23701e-05
1.58121e-09
4.99152e-12
7.70471e-14
-3.96115e-15
-0
-0
-0
1.02775e-15
0
0
0
0
0
0
35.4912
21.1521
21.4865
10.0411
3.10506
1.225
2.06383
7.24381
16.0158
2.61986
0.301148
0.0240957
0.000284784
2.73235e-08
2.64972e-11
3.5087e-13
1.1585e-14
3.84102e-15
-0
-0
-0
1.3332e-16
0
0
0
0
0
0
32.3986
20.4057
19.6678
8.61119
2.94347
1.23325
1.81029
5.83968
14.3009
3.95743
0.555582
0.0555825
0.00296707
8.58153e-07
1.23957e-10
1.13398e-12
4.76808e-14
1.77593e-15
-3.64658e-15
-0
-0
1.94056e-15
1.52649e-17
0
0
0
0
0
0
30.7332
19.7433
18.8133
7.52055
2.68031
1.20766
1.55836
4.54692
11.0056
6.017
0.920149
0.110847
0.0093876
7.61068e-05
1.00194e-09
3.53599e-12
1.31643e-13
7.83528e-15
2.44072e-16
-0
-0
-0
-0
1.51747e-18
0
0
0
0
0
36.473
29.1417
19.025
16.8371
6.93161
2.46636
1.15883
1.41973
3.45236
8.11656
8.564
1.50026
0.199356
0.0207129
0.000948082
9.59475e-08
1.4221e-11
2.95889e-13
2.17941e-14
1.23872e-15
2.862e-17
-0
-4.43378e-15
-0
-0
1.29339e-19
0
0
0
0
36.5382
27.5943
18.1494
14.6451
6.40529
2.3709
1.11914
1.33939
2.94434
5.79674
11.6756
2.29996
0.349106
0.0409003
0.00338754
9.83053e-06
1.38503e-10
6.65839e-13
4.63241e-14
3.77652e-15
1.69907e-16
2.80648e-18
-0
-0
-0
-0
9.33196e-21
0
0
0
32.7975
25.3675
15.5997
12.5946
5.89554
2.28123
1.10503
1.27299
2.64214
4.79432
14.2087
3.38666
0.577849
0.0770412
0.00755795
0.000172041
5.96442e-09
2.46557e-12
8.92318e-14
8.50238e-15
5.90135e-16
1.93434e-17
2.2744e-19
-0
-0
1.96119e-15
-0
5.62045e-22
0
17.3487
29.5092
23.6621
13.1478
10.819
5.37524
2.18697
1.0882
1.20131
2.38115
4.18015
11.2433
4.46132
0.923061
0.136564
0.0157612
0.0010587
4.02798e-07
1.8942e-11
1.79264e-13
1.63983e-14
1.47976e-15
7.73019e-17
1.79218e-18
1.50708e-20
-0
-0
-0
-0
2.78396e-23
24.7878
27.0074
22.1259
11.0121
9.25523
4.85781
2.08261
1.07203
1.13329
2.1111
3.65476
9.29848
6.16477
1.29962
0.234615
0.0302407
0.00275786
1.64356e-05
2.2882e-10
4.83078e-13
2.89518e-14
3.05542e-15
2.20176e-16
8.20098e-18
1.33548e-19
8.07335e-22
-0
-0
-0
-0
1.11668e-24
27.9066
25.3678
20.4918
9.15016
7.8609
4.35505
1.96417
1.05554
1.08995
1.88166
3.13708
7.69337
7.84453
1.86157
0.355209
0.055511
0.0059456
0.000201425
9.7996e-09
2.14179e-12
5.11473e-14
5.53581e-15
5.03333e-16
2.66046e-17
6.9248e-19
7.92236e-21
3.45373e-23
-0
-1.86831e-15
-0
3.57057e-26
25.4715
24.5273
18.2094
7.55753
6.62315
3.87143
1.83588
1.03392
1.06444
1.7418
2.71386
6.24797
9.36965
2.48806
0.530464
0.0901635
0.0120642
0.000872325
5.88939e-07
1.59462e-11
1.02833e-13
9.16703e-15
9.85902e-16
6.82528e-17
2.54479e-18
4.5999e-20
3.70169e-22
1.16466e-24
-0
-0
8.96218e-28
22.4299
24.1738
14.0978
6.19489
5.54888
3.40785
1.70257
1.00607
1.04458
1.65064
2.46158
5.15963
10.8456
3.12072
0.745116
0.141225
0.0213185
0.00218824
1.61193e-05
2.24935e-10
2.85509e-13
1.49443e-14
1.71636e-15
1.47696e-16
7.33989e-18
1.89876e-19
2.37851e-21
1.34699e-23
3.05547e-26
-0
6.48203e-30
20.7474
22.0878
11.0192
5.02939
4.61785
2.97587
1.56506
0.972241
1.02281
1.5765
2.29118
4.54593
11.0954
3.77931
0.98258
0.208696
0.0353757
0.00440306
0.000174133
8.42566e-09
1.37738e-12
2.60097e-14
2.77902e-15
2.80226e-16
1.7681e-17
6.13365e-19
1.09259e-20
9.4721e-23
3.77344e-25
6.15433e-28
3.20434e-34
19.9552
20.0141
8.57583
4.03889
3.80868
2.58027
1.42746
0.932336
0.99594
1.50482
2.14976
4.10847
9.48041
4.5429
1.24706
0.290296
0.0551501
0.00805598
0.000649268
4.33999e-07
1.0805e-11
5.3623e-14
4.38191e-15
4.82839e-16
3.70136e-17
1.64531e-18
3.92857e-20
4.7968e-22
2.87436e-24
8.04307e-27
1.88178e-30
4.16746e-39
20.1918
16.0856
6.60259
3.19296
3.10948
2.2184
1.29461
0.889208
0.96417
1.4308
2.01679
3.73824
8.26976
5.52937
1.55518
0.387647
0.0807232
0.0134831
0.00148291
1.12837e-05
1.40637e-10
1.52718e-13
7.113e-15
7.81368e-16
6.94935e-17
3.81219e-18
1.16975e-19
1.90618e-21
1.59013e-23
6.5751e-26
1.28935e-28
3.58352e-35
2.57809e-44
19.7138
11.2531
4.98211
2.47035
2.50437
1.88849
1.16816
0.846555
0.935127
1.35625
1.88637
3.40258
7.25366
6.51676
1.94799
0.503352
0.11285
0.0209628
0.00281439
0.000109041
4.5771e-09
7.17275e-13
1.27299e-14
1.22972e-15
1.20349e-16
7.86048e-18
2.99677e-19
6.26961e-21
6.93142e-23
3.93919e-25
1.12178e-27
2.77316e-32
2.34925e-40
7.36836e-50
17.733
7.85252
3.65311
1.86382
1.98081
1.58929
1.04719
0.805632
0.912553
1.29874
1.76148
3.09285
6.37408
7.40168
2.37587
0.650209
0.152669
0.0308851
0.00485183
0.000384148
1.85792e-07
6.0662e-12
2.70592e-14
1.95839e-15
1.97467e-16
1.47904e-17
6.79689e-19
1.77054e-20
2.50387e-22
1.86934e-24
7.21936e-27
4.23331e-30
1.99613e-37
7.05792e-46
9.47637e-56
11.8901
5.30733
2.59767
1.37415
1.53392
1.31942
0.933024
0.766084
0.895557
1.25992
1.66995
2.81317
5.60718
8.15171
2.79498
0.820583
0.204101
0.0436937
0.00772148
0.000862855
4.3519e-06
6.10172e-11
7.6267e-14
3.28868e-15
3.15648e-16
2.59796e-17
1.39688e-18
4.41182e-20
7.76154e-22
7.37015e-24
3.70219e-26
9.56937e-29
5.76087e-35
6.50561e-43
9.47806e-52
5.35451e-62
6.96419
3.48937
1.80444
0.998059
1.16465
1.07874
0.826357
0.727919
0.881492
1.2332
1.60978
2.61955
4.94917
8.76773
3.18254
1.00043
0.266954
0.0605232
0.0115791
0.001583
4.27856e-05
1.22014e-09
3.13681e-13
6.07484e-15
5.05335e-16
4.3545e-17
2.65445e-18
9.91396e-20
2.11894e-21
2.49528e-23
1.58286e-25
5.33451e-28
8.18757e-33
2.0916e-40
9.38085e-49
5.56097e-58
1.3016e-68
4.18911
2.26916
1.23956
0.722456
0.872971
0.869275
0.727503
0.690106
0.868174
1.21219
1.56807
2.49073
4.51797
9.26279
3.53105
1.17922
0.337817
0.0818966
0.016776
0.00264435
0.000180154
3.5558e-08
2.2003e-12
1.2845e-14
8.31136e-16
7.11651e-17
4.75136e-18
2.04653e-19
5.20075e-21
7.43576e-23
5.8214e-25
2.45743e-27
6.51229e-31
3.38158e-38
3.31787e-46
5.85887e-55
1.39712e-64
1.33429e-75
2.58229
1.47956
0.85258
0.528092
0.652959
0.69371
0.637397
0.653503
0.85403
1.19291
1.5349
2.3953
4.22295
8.56194
3.84108
1.35151
0.412974
0.107338
0.0236087
0.00416209
0.000422227
8.48651e-07
1.72519e-11
3.29982e-14
1.43777e-15
1.15689e-16
8.1556e-18
3.94483e-19
1.16742e-20
1.98856e-22
1.88512e-24
9.76201e-27
1.43497e-29
3.25444e-36
6.01841e-44
2.25486e-52
1.55536e-61
1.47197e-71
3.9187e-83
1.62731
0.975719
0.594016
0.395065
0.493668
0.552965
0.55766
0.618387
0.839046
1.17314
1.50482
2.31554
3.99106
7.83734
4.21739
1.51544
0.489791
0.135912
0.0321427
0.00621225
0.000796672
1.0162e-05
1.91374e-10
1.10085e-13
2.67736e-15
1.90499e-16
1.36497e-17
7.2107e-19
2.43236e-20
4.84971e-22
5.47466e-24
3.41854e-26
1.16658e-28
2.05857e-34
6.59957e-42
4.53326e-50
6.45238e-59
1.71753e-68
4.58279e-79
1.47743e-92
1.04769
0.655599
0.424114
0.306355
0.382253
0.445195
0.489875
0.585526
0.823301
1.15257
1.47514
2.24334
3.79177
7.24516
4.60055
1.70171
0.566867
0.166905
0.0422452
0.0088854
0.00133996
6.37289e-05
3.65074e-09
5.16168e-13
5.49045e-15
3.22733e-16
2.26263e-17
1.26771e-18
4.76882e-20
1.09337e-21
1.44749e-23
1.07378e-25
4.3953e-28
9.15219e-33
4.81228e-40
5.59182e-48
1.42226e-56
7.60051e-66
5.56159e-76
5.59626e-88
0.690747
0.452551
0.314056
0.248861
0.306752
0.366226
0.43493
0.556001
0.807271
1.13139
1.4453
2.17516
3.61301
6.73506
4.9396
1.90049
0.652446
0.199804
0.0537521
0.012215
0.00211075
0.000167469
8.03317e-08
3.82773e-12
1.26485e-14
5.70147e-16
3.7675e-17
2.17289e-18
8.90673e-20
2.30723e-21
3.52863e-23
3.06845e-25
1.48661e-27
3.00548e-31
2.48745e-38
4.64034e-46
1.9508e-54
1.81457e-63
2.57341e-73
9.33461e-85
0.468909
0.324177
0.244002
0.213087
0.257363
0.310841
0.392692
0.530868
0.791741
1.11011
1.41549
2.11001
3.44943
6.28648
5.21682
2.09321
0.746405
0.236398
0.0665334
0.016194
0.00313466
0.000349309
1.22806e-06
2.61617e-11
3.44288e-14
1.05937e-15
6.37974e-17
3.67746e-18
1.60338e-19
4.60695e-21
8.02249e-23
8.07209e-25
4.57449e-27
4.4619e-30
9.55359e-37
2.75398e-44
1.82105e-52
2.7308e-61
6.49355e-71
4.93202e-82
0.330509
0.243711
0.20065
0.192399
0.226649
0.273913
0.36217
0.510908
0.77765
1.08949
1.38625
2.04801
3.2988
5.88792
5.43017
2.2685
0.843399
0.277447
0.0810004
0.0208118
0.00441318
0.00060935
1.03344e-05
2.56398e-10
1.15635e-13
2.09249e-15
1.10749e-16
6.21778e-18
2.81327e-19
8.79404e-21
1.71787e-22
1.9759e-24
1.29492e-26
3.32472e-29
2.82853e-35
1.2224e-42
1.22665e-50
2.82668e-59
1.04452e-68
1.33122e-79
0.244483
0.194231
0.17521
0.182273
0.209231
0.251025
0.341882
0.496523
0.765953
1.07046
1.35832
1.98962
3.16035
5.53205
5.58427
2.42148
0.938345
0.32187
0.097532
0.0261692
0.00596412
0.000966081
4.84398e-05
3.75383e-09
5.14249e-13
4.42616e-15
1.9824e-16
1.06029e-17
4.86221e-19
1.62047e-20
3.49636e-22
4.54109e-24
3.40621e-26
1.44388e-28
6.65166e-34
4.2019e-41
6.22214e-49
2.1308e-57
1.16734e-66
2.23362e-77
0.191777
0.165023
0.161928
0.179676
0.201339
0.238684
0.330225
0.487771
0.757504
1.05403
1.3326
1.93552
3.03394
5.21414
5.68483
2.55125
1.0279
0.367939
0.116042
0.0324141
0.00782284
0.00143938
0.000116942
6.16419e-08
3.26286e-12
1.01951e-14
3.66491e-16
1.83674e-17
8.35725e-19
2.90937e-20
6.82191e-22
9.88031e-24
8.39542e-26
4.07035e-28
1.27356e-32
1.15065e-39
2.45661e-47
1.21796e-55
9.58006e-65
2.57991e-75
0.160606
0.149281
0.157063
0.182604
0.200397
0.234279
0.325719
0.484468
0.752983
1.04117
1.31009
1.8865
2.91967
4.93109
5.73595
2.65838
1.11044
0.413953
0.13611
0.0396095
0.0100399
0.00204153
0.000230301
7.48117e-07
1.9888e-11
2.65468e-14
7.01434e-16
3.24541e-17
1.44037e-18
5.13424e-20
1.28643e-21
2.05079e-23
1.95373e-25
1.0739e-27
2.03061e-31
2.56949e-38
7.75404e-46
5.44544e-54
6.00335e-63
2.18582e-73
0.143595
0.142676
0.158199
0.189753
0.204673
0.235933
0.327128
0.486308
0.752871
1.03274
1.29183
1.84348
2.81785
4.68056
5.73991
2.74335
1.18529
0.458935
0.157354
0.0477061
0.0126605
0.00277747
0.000387293
5.57124e-06
1.4773e-10
8.07847e-14
1.39745e-15
5.85568e-17
2.50499e-18
8.97814e-20
2.36275e-21
4.09005e-23
4.32279e-25
2.67053e-27
1.96878e-30
4.78048e-37
2.00028e-44
1.9532e-52
2.95867e-61
1.4176e-71
0.136099
0.142459
0.163788
0.200291
0.213026
0.242341
0.333485
0.492943
0.757467
1.0294
1.27872
1.80743
2.72895
4.46085
5.69776
2.80597
1.25194
0.502282
0.179283
0.0566087
0.0157051
0.00366912
0.000595104
2.58722e-05
1.55686e-09
3.01591e-13
2.90835e-15
1.07957e-16
4.41357e-18
1.5668e-19
4.25795e-21
7.8914e-23
9.1525e-25
6.29977e-27
1.29007e-29
7.53801e-36
4.30402e-43
5.73958e-51
1.17459e-59
7.25889e-70
0.135194
0.146888
0.172856
0.213739
0.224722
0.252614
0.344066
0.504041
0.766912
1.03162
1.27154
1.77923
2.6535
4.27067
5.61001
2.84561
1.30969
0.543471
0.201504
0.0661755
0.0191713
0.00473846
0.000864978
6.19946e-05
1.97428e-08
1.4844e-12
6.37877e-15
2.03046e-16
7.89521e-18
2.74446e-19
7.58077e-21
1.48261e-22
1.86564e-24
1.41809e-26
5.17141e-29
1.02326e-34
7.85052e-42
1.40907e-49
3.83176e-58
3.00669e-68
0.139037
0.154875
0.184829
0.229995
0.239352
0.266172
0.358348
0.519301
0.781224
1.03964
1.27082
1.75958
2.59194
4.10892
5.47753
2.86131
1.35769
0.581919
0.223664
0.0762673
0.023035
0.00599724
0.00121401
0.000122712
2.14873e-07
8.69671e-12
1.51371e-14
3.89055e-16
1.43396e-17
4.8458e-19
1.34165e-20
2.72922e-22
3.68237e-24
3.06278e-26
1.50284e-28
1.21264e-33
1.23194e-40
2.93443e-48
1.0467e-56
1.02715e-66
0.146481
0.165772
0.199497
0.249253
0.256903
0.282714
0.375978
0.538469
0.800326
1.05355
1.27684
1.74893
2.54455
3.97455
5.30209
2.85229
1.3949
0.61704
0.245358
0.086789
0.0272632
0.00744898
0.00163809
0.000211408
1.63709e-06
4.66313e-11
3.99484e-14
7.61649e-16
2.63957e-17
8.64641e-19
2.37288e-20
4.95143e-22
7.07671e-24
6.37968e-26
3.44233e-28
1.27058e-32
1.68532e-39
5.25696e-47
2.42934e-55
2.94876e-65
0.156841
0.179298
0.21695
0.271832
0.277657
0.302381
0.396843
0.561356
0.82408
1.07325
1.28968
1.74746
2.51132
3.86637
5.08667
2.81817
1.42028
0.648123
0.266343
0.0976769
0.0318256
0.00909301
0.00214247
0.000326557
8.47489e-06
3.29974e-10
1.20465e-13
1.52749e-15
4.91561e-17
1.56018e-18
4.21156e-20
8.90104e-22
1.33115e-23
1.2879e-25
7.58304e-28
1.19073e-31
2.03408e-38
8.20448e-46
4.85474e-54
7.21369e-64
0.169799
0.195469
0.237444
0.298176
0.301979
0.3256
0.421493
0.58805
0.852352
1.09855
1.30923
1.75508
2.49195
3.783
4.83554
2.75922
1.43297
0.674398
0.286231
0.108725
0.0366955
0.0109264
0.00273396
0.000475734
2.49868e-05
3.03036e-09
4.4058e-13
3.14671e-15
9.24283e-17
2.84532e-18
7.52279e-20
1.5931e-21
2.4631e-23
2.53165e-25
1.61363e-27
8.74911e-31
2.18965e-37
1.12822e-44
8.45253e-53
1.52284e-62
0.185336
0.214492
0.261373
0.329038
0.330349
0.352805
0.450707
0.619887
0.885434
1.12926
1.33523
1.77146
2.48584
3.72279
4.55402
2.67647
1.43236
0.69513
0.304558
0.11972
0.0418175
0.0129443
0.00341752
0.000664812
5.29813e-05
3.00876e-08
2.03826e-12
6.76168e-15
1.74985e-16
5.23631e-18
1.35443e-19
2.85012e-21
4.50435e-23
4.86757e-25
3.33091e-27
4.48222e-30
2.12343e-36
1.38113e-43
1.29597e-51
2.80646e-61
0.203635
0.236721
0.289383
0.365355
0.363615
0.384534
0.484998
0.658145
0.926216
1.1658
1.36741
1.79612
2.49213
3.68385
4.24813
2.57165
1.41823
0.709679
0.320881
0.130381
0.0471342
0.0151358
0.00419479
0.000898663
9.68286e-05
2.491e-07
1.05342e-11
1.5509e-14
3.33978e-16
9.70047e-18
2.4587e-19
5.11251e-21
8.17558e-23
9.19329e-25
6.69672e-27
1.74738e-29
1.87229e-35
1.51934e-42
1.76691e-50
4.56165e-60
0.225029
0.262733
0.322324
0.408662
0.402782
0.4218
0.525011
0.703236
0.976505
1.21301
1.40629
1.82856
2.50983
3.66412
3.92416
2.44709
1.39074
0.717542
0.334762
0.140527
0.0526088
0.0174854
0.00506548
0.00117385
0.000157504
1.51117e-06
5.00524e-11
3.87679e-14
6.4484e-16
1.80499e-17
4.4965e-19
9.21386e-21
1.47828e-22
1.71254e-24
1.31637e-26
5.40055e-29
1.51397e-34
1.51506e-41
2.16129e-49
6.60027e-59
0.250062
0.293314
0.361531
0.461032
0.449566
0.46571
0.572261
0.755915
1.03604
1.27276
1.45857
1.86942
2.53797
3.66151
3.58836
2.30555
1.35045
0.7184
0.345786
0.149921
0.0581026
0.0199776
0.00602777
0.00149187
0.000234453
6.76331e-06
3.00302e-10
1.08367e-13
1.26267e-15
3.36932e-17
8.27232e-19
1.67002e-20
2.67099e-22
3.15831e-24
2.5393e-26
1.29534e-28
1.13186e-33
1.38056e-40
2.3914e-48
8.5732e-58
0.279486
0.329664
0.40885
0.525323
0.506231
0.518294
0.628012
0.818752
1.10573
1.34359
1.526
1.92985
2.57723
3.6741
3.24654
2.15005
1.29821
0.712124
0.353611
0.158298
0.0634873
0.0225747
0.00707859
0.00185512
0.00033144
1.7132e-05
2.27664e-09
3.55783e-13
2.51672e-15
6.30159e-17
1.52851e-18
3.04449e-20
4.83357e-22
5.78606e-24
4.82388e-26
2.60374e-28
7.88338e-33
1.15825e-39
2.41175e-47
1.00746e-56
0.314439
0.37347
0.466852
0.606439
0.575866
0.582125
0.695236
0.89294
1.19032
1.4267
1.60594
2.01048
2.64738
3.70215
2.90408
1.98367
1.23516
0.698771
0.357972
0.165431
0.0685899
0.0252324
0.00820954
0.00226519
0.000451312
3.48701e-05
1.87445e-08
1.42809e-12
5.17217e-15
1.17935e-16
2.83163e-18
5.57929e-20
8.77414e-22
1.05608e-23
9.05443e-26
5.13219e-28
5.15269e-32
9.01043e-39
2.23267e-46
1.07873e-55
0.35653
0.427102
0.53982
0.711835
0.663935
0.660675
0.777233
0.983383
1.28994
1.52957
1.69992
2.10568
2.74519
3.36263
2.56694
1.80954
1.1626
0.678571
0.358685
0.171113
0.0733137
0.02793
0.00940822
0.00272125
0.000596717
6.21318e-05
1.35258e-07
6.93488e-12
1.1164e-14
2.21211e-16
5.24984e-18
1.02673e-19
1.5989e-21
1.92504e-23
1.68435e-25
9.95104e-28
3.18275e-31
6.5433e-38
1.90986e-45
1.05946e-54
0.408029
0.494424
0.634416
0.856271
0.778544
0.760354
0.878387
1.09431
1.41349
1.64995
1.81803
2.2181
2.85942
2.89631
2.25701
1.63142
1.08204
0.651898
0.355656
0.175157
0.0775388
0.030588
0.0106635
0.00322058
0.000764515
9.98755e-05
7.61451e-07
2.88553e-11
2.5727e-14
4.17314e-16
9.72888e-18
1.89478e-19
2.92535e-21
3.51075e-23
3.11387e-25
1.90359e-27
1.42539e-30
4.46405e-37
1.51905e-44
9.60321e-54
0.4726
0.581539
0.763587
1.04767
0.936043
0.890338
1.00781
1.23142
1.56577
1.80201
1.95542
2.364
2.85815
2.46948
1.97451
1.46007
0.995425
0.619286
0.348871
0.177413
0.0811387
0.0331359
0.0119529
0.00375981
0.00095425
0.000146671
3.27792e-06
1.39336e-10
6.45078e-14
7.93416e-16
1.80119e-17
3.50173e-19
5.37147e-21
6.41368e-23
5.73414e-25
3.60248e-27
5.66461e-30
2.87856e-36
1.13006e-43
8.0803e-53
0.556072
0.700165
0.955965
0.67719
1.00598
1.06969
1.17718
1.40896
1.75402
1.98972
2.13147
2.50559
2.36537
2.0822
1.71187
1.29869
0.907734
0.581574
0.33842
0.177766
0.0839975
0.0354933
0.0132503
0.00433322
0.00116605
0.000204711
8.80214e-06
8.32274e-10
1.82412e-13
1.52375e-15
3.32952e-17
6.473e-19
9.89097e-21
1.17449e-22
1.05386e-24
6.76139e-27
1.74706e-29
1.76457e-35
7.90723e-43
6.34574e-52
0.669572
0.876248
0.709069
0.443662
0.655566
0.951037
1.23445
1.43518
1.53868
1.73739
1.9624
2.00924
1.93376
1.74746
1.46864
1.14543
0.821773
0.54086
0.324555
0.176154
0.086016
0.0375911
0.0145343
0.00493279
0.00139965
0.000274796
1.81445e-05
5.7851e-09
6.06259e-13
2.97958e-15
6.14156e-17
1.19537e-18
1.82476e-20
2.15633e-22
1.93595e-24
1.26138e-26
4.70442e-29
1.03397e-34
5.2318e-42
4.6754e-51
0.837805
0.734421
0.460902
0.293913
0.43204
0.628053
0.834297
1.00963
1.12837
1.31082
1.51654
1.59315
1.57119
1.45137
1.25162
1.00025
0.737773
0.498848
0.308049
0.17259
0.0871119
0.0393741
0.0157749
0.00554974
0.00165335
0.000359351
3.28187e-05
3.88521e-08
2.40298e-12
6.01116e-15
1.13082e-16
2.20328e-18
3.36907e-20
3.96835e-22
3.55908e-24
2.3435e-26
1.0731e-28
5.82174e-34
3.28994e-41
3.24757e-50
0.747838
0.47452
0.303589
0.196694
0.287522
0.418207
0.564176
0.702427
0.814064
0.973088
1.15593
1.24803
1.26353
1.19632
1.05656
0.866627
0.656067
0.456194
0.289727
0.16729
0.087232
0.0407841
0.0169318
0.00617288
0.00192431
0.000455893
5.36355e-05
2.20039e-07
1.0685e-11
1.2695e-14
2.08458e-16
4.04985e-18
6.2198e-20
7.31611e-22
6.55121e-24
4.34281e-26
2.03191e-28
3.1654e-33
1.9758e-40
2.13659e-49
0.481696
0.311249
0.202253
0.132969
0.193126
0.280611
0.382599
0.486173
0.579735
0.710655
0.867235
0.964572
1.00419
0.976447
0.884449
0.74399
0.578438
0.413314
0.270084
0.160574
0.0863983
0.0417689
0.0179683
0.00678764
0.00220872
0.000563007
8.00002e-05
9.86244e-07
4.09499e-11
2.84155e-14
3.85605e-16
7.42116e-18
1.14693e-19
1.35057e-21
1.20751e-23
8.03712e-26
3.82382e-28
1.66981e-32
1.13848e-39
1.3373e-48
0.31529
0.206683
0.13622
0.0908746
0.130954
0.189736
0.260503
0.335933
0.409377
0.512022
0.640161
0.734201
0.787659
0.787934
0.733266
0.633089
0.505359
0.371129
0.249445
0.152699
0.0846972
0.0423011
0.0188464
0.00737823
0.0025017
0.000679752
0.000111941
3.31951e-06
1.85513e-10
6.88371e-14
7.16675e-16
1.35572e-17
2.11077e-19
2.49416e-21
2.22895e-23
1.48666e-25
7.16324e-28
8.58331e-32
6.32199e-39
7.99695e-48
0.209028
0.138834
0.0928042
0.0628931
0.089723
0.129342
0.17826
0.232271
0.287708
0.365413
0.465999
0.550047
0.608798
0.627751
0.601242
0.533576
0.437512
0.330201
0.228278
0.143852
0.0822243
0.0423849
0.0195374
0.00793087
0.00279753
0.000805114
0.000150127
7.24368e-06
1.01661e-09
1.86704e-13
1.34235e-15
2.46821e-17
3.87455e-19
4.60426e-21
4.11887e-23
2.7508e-25
1.33747e-27
4.31639e-31
3.39736e-38
4.58737e-47
0.140225
0.0943727
0.0640553
0.0441934
0.0622251
0.0889908
0.122727
0.160995
0.201824
0.259255
0.335724
0.406271
0.463358
0.493112
0.486939
0.444901
0.375159
0.291077
0.206978
0.134256
0.0790606
0.0420397
0.0200306
0.0084311
0.00309007
0.00093766
0.000194926
1.38163e-05
6.14457e-09
5.87358e-13
2.55367e-15
4.47754e-17
7.08936e-19
8.48976e-21
7.61571e-23
5.09241e-25
2.49227e-27
1.6886e-30
1.77376e-37
2.53413e-46
0.0952132
0.0650111
0.0449052
0.0316337
0.0437963
0.0619069
0.0851322
0.112059
0.141651
0.183409
0.240222
0.296744
0.34767
0.381633
0.389053
0.366566
0.318337
0.254135
0.185913
0.124131
0.0752989
0.0412874
0.0203203
0.00886245
0.00337267
0.00107528
0.00024669
2.35738e-05
3.51724e-08
2.14362e-12
4.98993e-15
8.10088e-17
1.29228e-18
1.56252e-20
1.40817e-22
9.43237e-25
4.63823e-27
5.99794e-30
9.02808e-37
1.35306e-45
0.0655267
0.0454969
0.0320795
0.0231512
0.0313877
0.0436546
0.0596161
0.0784704
0.0996893
0.129713
0.17124
0.21504
0.257817
0.291209
0.306432
0.298122
0.267029
0.219613
0.165393
0.113689
0.0710386
0.0401564
0.0204045
0.0092137
0.00363801
0.00121528
0.000303489
3.68329e-05
1.72012e-07
8.8448e-12
1.01201e-14
1.46559e-16
2.34633e-18
2.86855e-20
2.60221e-22
1.74776e-24
8.6258e-27
1.78471e-29
4.49791e-36
7.00494e-45
0.0458182
0.0324528
0.023439
0.0173796
0.0229889
0.0313057
0.0422547
0.0554071
0.070509
0.0919299
0.121933
0.155074
0.189509
0.219526
0.238028
0.239157
0.221217
0.187677
0.145657
0.103127
0.0663834
0.0386819
0.0202852
0.00947673
0.00387939
0.00135459
0.000364098
5.29642e-05
6.87651e-07
3.16439e-11
2.15107e-14
2.65564e-16
4.24366e-18
5.25038e-20
4.80294e-22
3.23874e-24
1.60355e-26
4.56642e-29
2.1997e-35
3.53066e-44
0.0326565
0.0236803
0.0175732
0.0134089
0.0172638
0.0229136
0.03041
0.0395569
0.050248
0.0654494
0.0869475
0.111591
0.138478
0.163915
0.182624
0.189275
0.180875
0.158481
0.126897
0.0926169
0.0614381
0.0369047
0.0199684
0.00964581
0.00409087
0.00149008
0.000427463
7.19397e-05
2.04644e-06
1.256e-10
4.87467e-14
4.82312e-16
7.64657e-18
9.57775e-20
8.8491e-22
5.99966e-24
2.9803e-26
1.05304e-28
1.05896e-34
1.73728e-43
0.0238123
0.0177344
0.0135456
0.0106307
0.0133194
0.0171755
0.0223021
0.0286481
0.0361878
0.0469363
0.0622471
0.0803369
0.100866
0.121556
0.138704
0.147954
0.145964
0.132157
0.109292
0.0823077
0.0563021
0.0348705
0.0194652
0.00971572
0.00426748
0.0016187
0.000492565
9.38924e-05
4.28555e-06
5.897e-10
1.21075e-13
8.79952e-16
1.37238e-17
1.74088e-19
1.62669e-21
1.11054e-23
5.53751e-26
1.96314e-28
5.03092e-34
8.36974e-43
0.0178222
0.0136576
0.0107322
0.00863918
0.0105572
0.0132155
0.016725
0.0211223
0.0264265
0.0340095
0.0448657
0.0580141
0.0734281
0.0897654
0.104542
0.114441
0.116353
0.108821
0.0930049
0.0723417
0.0510684
0.0326269
0.0187908
0.0096878
0.00440657
0.00173754
0.000558291
0.000118818
7.93956e-06
3.07385e-09
3.40406e-13
1.62201e-15
2.45316e-17
3.15192e-19
2.98222e-21
2.05305e-23
1.02843e-25
3.65534e-28
2.36381e-33
3.95876e-42
0.0137181
0.0108134
0.00871787
0.00716675
0.00857682
0.0104428
0.0128587
0.0159094
0.0196384
0.0249839
0.0326577
0.0421403
0.0535636
0.0661807
0.0783872
0.0877831
0.0917548
0.0885304
0.0781887
0.0628553
0.045829
0.0302219
0.0179633
0.0095647
0.00450374
0.0018441
0.000623335
0.000146729
1.32677e-05
1.56927e-08
1.09041e-12
3.04636e-15
4.37044e-17
5.68273e-19
5.45054e-21
3.78903e-23
1.90863e-25
6.79937e-28
1.10047e-32
1.84283e-41
0.0108568
0.00877934
0.00722963
0.00603974
0.00711338
0.00845969
0.010145
0.0122734
0.0149007
0.0186735
0.0240883
0.0308841
0.0392618
0.0488396
0.0586187
0.0669288
0.0717156
0.0712433
0.0649633
0.0539789
0.0406755
0.0277056
0.0170026
0.00935066
0.00455634
0.00193582
0.000686297
0.00017638
2.03783e-05
7.12041e-08
3.89226e-12
5.87585e-15
7.77405e-17
1.02023e-18
9.92785e-21
6.97806e-23
3.53855e-25
1.26359e-27
5.08399e-32
8.46166e-41
0.00881178
0.00727776
0.00609079
0.00514814
0.00599442
0.00700092
0.00820428
0.00970794
0.0115717
0.0142459
0.0180671
0.0229131
0.0290041
0.0361746
0.0438284
0.0508406
0.0556722
0.0568011
0.0533913
0.0458292
0.0356993
0.0251302
0.0159315
0.00905159
0.00456324
0.00201044
0.00074572
0.000206938
2.90429e-05
2.73213e-07
1.45301e-11
1.17157e-14
1.38273e-16
1.82424e-18
1.80169e-20
1.2819e-22
6.5514e-25
2.34593e-27
2.33355e-31
3.84001e-40
0.00730286
0.00612933
0.00518975
0.00442378
0.00511025
0.00589215
0.00678038
0.00786579
0.00920567
0.0111182
0.013823
0.0172669
0.0216632
0.0269696
0.0328497
0.0385696
0.0430176
0.0449497
0.0434631
0.0384938
0.0309872
0.0225501
0.014775
0.00867526
0.00452453
0.00206615
0.000800213
0.000237699
3.88805e-05
8.61818e-07
4.83874e-11
2.44054e-14
2.46004e-16
3.24924e-18
3.2573e-20
2.34822e-22
1.21086e-24
4.35062e-27
1.06515e-30
1.72529e-39
0.00614927
0.00522096
0.00445757
0.00382446
0.00439266
0.00502128
0.00570305
0.00651059
0.00749438
0.00888298
0.0108124
0.0132577
0.0164126
0.0203006
0.0247488
0.0292946
0.0331599
0.035376
0.0350995
0.0320203
0.0266147
0.0200199
0.0135609
0.00823148
0.00444148
0.00210164
0.000848504
0.000268045
4.99749e-05
1.81288e-06
1.83889e-10
5.40918e-14
4.38091e-16
5.76432e-18
5.86625e-20
4.28819e-22
2.23335e-24
8.0578e-27
4.3893e-30
7.6858e-39
0.00523704
0.00448292
0.00385172
0.00332374
0.0037993
0.00431787
0.00486132
0.00548382
0.00622675
0.00725728
0.00865277
0.0103948
0.012651
0.0154759
0.0187964
0.0223338
0.0255591
0.027746
0.028169
0.0264133
0.0226378
0.0175912
0.0123188
0.00773204
0.0043166
0.0021161
0.000889494
0.000297384
6.21603e-05
3.3921e-06
7.94806e-10
1.31034e-13
7.83366e-16
1.01828e-17
1.05228e-19
7.80501e-22
4.10948e-24
1.49015e-26
1.47541e-29
3.3987e-38
0.00449598
0.00387226
0.0033456
0.00290372
0.00330361
0.00373794
0.00418456
0.00468131
0.00526043
0.00604646
0.00707719
0.00833
0.00994391
0.0119832
0.0144334
0.0171372
0.0197464
0.0217335
0.0225081
0.0216391
0.0190895
0.0153084
0.0110786
0.00719051
0.00415372
0.00210933
0.000922238
0.000325131
7.55818e-05
5.7356e-06
3.60194e-09
3.54117e-13
1.41411e-15
1.7915e-17
1.87966e-19
1.41565e-21
7.54162e-24
2.75092e-26
4.20261e-29
1.49333e-37
0.00388287
0.00336217
0.00292116
0.00255099
0.0028877
0.00325396
0.00362819
0.00403612
0.00450138
0.00511885
0.00590103
0.00681754
0.00797887
0.00944646
0.0112369
0.0132713
0.0153295
0.0170397
0.0179412
0.0176357
0.0159793
0.0132052
0.00986851
0.00662172
0.00395786
0.00208179
0.000946013
0.000350667
8.9607e-05
8.91012e-06
1.55442e-08
1.06127e-12
2.59307e-15
3.14237e-17
3.34321e-19
2.55821e-21
1.38001e-23
5.06812e-26
1.042e-28
6.52496e-37
0.00337076
0.00293449
0.0025649
0.00225457
0.00253822
0.00284766
0.00316431
0.00350574
0.00388893
0.00438727
0.00499874
0.00568594
0.00653281
0.00759094
0.00889016
0.0104
0.0119889
0.013403
0.0142952
0.0143231
0.0132969
0.0113032
0.00871302
0.00604072
0.00373508
0.00203461
0.00096035
0.000373397
0.000103734
1.29013e-05
5.96805e-08
3.45761e-12
4.85275e-15
5.50189e-17
5.92124e-19
4.60523e-21
2.51736e-23
9.31586e-26
2.04036e-28
2.83691e-36
0.00294142
0.00257559
0.00226568
0.002005
0.00224435
0.0025058
0.00277461
0.00306336
0.00338423
0.00379526
0.00428676
0.00481741
0.00544822
0.00621787
0.00715814
0.00826605
0.00946936
0.0106016
0.0114096
0.0116138
0.0110163
0.00961236
0.0076316
0.00546199
0.00349204
0.00196958
0.000965073
0.000392784
0.000117552
1.74572e-05
1.98285e-07
1.21478e-11
9.31086e-15
9.61979e-17
1.04451e-18
8.25766e-21
4.57684e-23
1.70805e-25
3.73356e-28
1.22785e-35
0.00258118
0.00227426
0.0020139
0.00179405
0.00199676
0.00221783
0.00244613
0.00269139
0.00296262
0.00330652
0.00371063
0.00413267
0.00461555
0.00518483
0.00586771
0.00667434
0.00757047
0.00845228
0.00914158
0.00941938
0.00910171
0.00813227
0.00663796
0.00489852
0.00323584
0.00188915
0.000960325
0.000408411
0.000130716
2.24558e-05
5.17331e-07
3.69535e-11
1.84697e-14
1.67944e-16
1.83518e-18
1.47482e-20
8.29225e-23
3.12306e-25
6.81752e-28
5.29175e-35
0.00227875
0.0020208
0.0018012
0.00161464
0.00178736
0.00197485
0.00216882
0.00237744
0.00260775
0.00289783
0.00323513
0.00357949
0.00396002
0.00439127
0.00489279
0.00547855
0.00613669
0.00680682
0.00736844
0.00765649
0.00751188
0.00685431
0.00574009
0.00436111
0.00297363
0.00179607
0.000946568
0.000419988
0.000142945
2.78716e-05
1.01734e-06
1.23499e-10
3.84452e-14
2.9285e-16
3.21076e-18
2.6235e-20
1.49697e-22
5.69343e-25
1.24203e-27
2.27126e-34
0.00202442
0.00180676
0.00162039
0.00146085
0.00160921
0.0017691
0.00193429
0.00211196
0.00230793
0.00255362
0.0028376
0.00312367
0.00343167
0.00376747
0.00414285
0.00457007
0.00504872
0.0055469
0.00598702
0.00624947
0.00620397
0.00576416
0.00494085
0.00385798
0.00271196
0.00169327
0.000924535
0.000427372
0.000153997
3.35942e-05
1.80661e-06
4.58745e-10
8.58405e-14
5.11318e-16
5.5914e-18
4.64747e-20
2.69241e-22
1.03468e-24
2.25714e-27
9.70893e-34
0.00180968
0.00162487
0.00146545
0.00132783
0.00145646
0.00159394
0.00173535
0.00188706
0.00205414
0.00226269
0.00250279
0.00274301
0.00299733
0.00326604
0.00355396
0.00386938
0.00421606
0.00457943
0.0049124
0.00513194