/*--------------------------------*- C++ -*----------------------------------*\
| =========                 |                                                 |
| \\      /  F ield         | OpenFOAM: The Open Source CFD Toolbox           |
|  \\    /   O peration     | Version:  1.6.x                                 |
|   \\  /    A nd           | Web:      www.OpenFOAM.org                      |
|    \\/     M anipulation  |                                                 |
\*---------------------------------------------------------------------------*/
FoamFile
{
    version     2.0;
    format      ascii;
    class       volScalarField;
    location    "7000";
    object      RR(O2);
}
// * * * * * * * * * * * * * * * * * * * * * * * * * * * * * * * * * * * * * //

dimensions      [1 -3 -1 0 0 0 0];

internalField   nonuniform List<scalar> 
4608
(
-0
-0
-0
-0
-0
-0
-0
-0
-0
-85.5644
-0
-0
-0
-0
-0
-0
-0
-242.816
-89.2436
-0
-0
-0
-0
-0
-0
-0
-0
-223.174
-81.8563
-0.73805
-18.4313
-0
-0
-0
-0
-0
-0
-0
-0
-191.261
-57.8467
-24.2823
-0.0847207
-0.00337554
-0.951592
-0
-0
-0
-0
-0
-0
-0
-0
-168.528
-46.1729
-15.0668
-12.0022
-0.0134965
-0.000737969
-1.87386e-05
-0.0719133
-0
-0
-0
-0
-0
-0
-0
-181.943
-166.835
-38.0763
-11.2021
-21.8388
-1.01333
-0.00138409
-0.000172494
-6.23014e-06
-1.05874e-07
-0.0132884
-0
-0
-0
-0
-0
-0
-0
-122.622
-130.229
-42.4794
-8.86257
-14.7789
-3.47225
-0.23712
-2.07664e-05
-1.81242e-06
-4.75042e-08
-6.09135e-10
-0.00488564
-0
-0
-0
-0
-0
-0
-0
-93.2416
-88.5827
-44.4081
-9.87949
-11.4927
-9.61307
-0.811416
-0.0551067
-2.56762e-07
-1.7071e-08
-3.50118e-10
-4.65816e-12
-0.00029602
-0
-0
-0
-0
-0
-0
-0
-76.3267
-65.3581
-36.5617
-12.366
-7.57783
-15.0755
-2.36321
-0.186098
-0.00779395
-2.79953e-09
-1.50227e-10
-3.49354e-12
-4.29896e-14
-1.23762e-06
-0
-0
-0
-0
-0
-0
-0
-64.5652
-53.9629
-28.559
-11.1126
-5.47968
-24.018
-3.96424
-0.555478
-0.0294614
-0.000318279
-2.78716e-11
-2.20631e-12
-3.715e-14
-0
-2.05869e-09
-0
-0
-0
-0
-0
-0
-0
-63.0373
-47.5504
-23.22
-8.8875
-4.12589
-18.8724
-6.84672
-1.01687
-0.0929779
-0.00265585
-1.22294e-06
-5.86802e-13
-3.23571e-14
-0
-0
-2.14102e-11
-0
-0
-0
-0
-0
-0
-0
-60.858
-47.0819
-19.361
-7.13074
-3.23727
-10.6102
-24.3205
-1.88674
-0.18977
-0.0119648
-3.37579e-05
-2.6643e-09
-1.02031e-14
-0
-0
-0
-8.43144e-13
-0
-0
-0
-0
-0
-0
-111.999
-53.9573
-48.4689
-18.507
-5.65123
-2.65744
-7.31276
-44.294
-6.75251
-0.376341
-0.0308454
-0.000471223
-6.21956e-08
-3.52033e-11
-0
-0
-0
-0
-9.07134e-14
-0
-0
-0
-0
-0
-0
-89.5518
-46.825
-46.2889
-20.1852
-5.09734
-2.24392
-5.25275
-30.0209
-12.5405
-1.42027
-0.0686289
-0.00303112
-1.3907e-06
-3.53317e-10
-1.29028e-12
-0
-0
-0
-0
-1.28536e-14
-0
-0
-0
-0
-0
-0
-73.8207
-40.9961
-42.4702
-19.9543
-5.48344
-2.09393
-4.1799
-18.1082
-20.6865
-2.67981
-0.260592
-0.00996366
-3.97338e-05
-2.80854e-09
-8.86595e-12
-1.36851e-13
-0
-0
-0
-0
-1.8255e-15
-0
-0
-0
-0
-0
-0
-63.0395
-37.5705
-38.1644
-17.835
-5.51521
-2.17584
-3.66577
-12.8665
-28.4474
-4.6534
-0.5349
-0.0427988
-0.000505835
-4.8532e-08
-4.70643e-11
-6.23216e-13
-2.05773e-14
-0
-0
-0
-0
-2.36804e-16
-0
-0
-0
-0
-0
-0
-57.5465
-36.2446
-34.934
-15.2952
-5.2282
-2.1905
-3.21544
-10.3724
-25.4013
-7.02919
-0.986826
-0.0987258
-0.00527012
-1.52425e-06
-2.20173e-10
-2.01417e-12
-8.46907e-14
-3.15441e-15
-0
-0
-0
-0
-2.71136e-17
-0
-0
-0
-0
-0
-0
-54.5884
-35.0681
-33.4163
-13.358
-4.76078
-2.14505
-2.76797
-8.07625
-19.5482
-10.6874
-1.63437
-0.196887
-0.0166743
-0.000135181
-1.77965e-09
-6.28063e-12
-2.33825e-13
-1.3917e-14
-4.33522e-16
-0
-0
-0
-0
-2.69533e-18
-0
-0
-0
-0
-0
-64.7835
-51.7616
-33.7922
-29.906
-12.3119
-4.38075
-2.05831
-2.52173
-6.13209
-14.4166
-15.2114
-2.66476
-0.354097
-0.0367903
-0.00168398
-1.70422e-07
-2.52593e-11
-5.25559e-13
-3.87107e-14
-2.20022e-15
-5.08348e-17
-0
-0
-0
-0
-2.29731e-19
-0
-0
-0
-0
-64.8991
-49.0131
-32.237
-26.0126
-11.3771
-4.2112
-1.98782
-2.37903
-5.22974
-10.2962
-20.7383
-4.08519
-0.620083
-0.0726472
-0.00601696
-1.7461e-05
-2.46009e-10
-1.18266e-12
-8.22809e-14
-6.70786e-15
-3.01789e-16
-4.98486e-18
-0
-0
-0
-0
-1.65751e-20
-0
-0
-0
-58.2549
-45.0579
-27.7083
-22.3706
-10.4717
-4.05192
-1.96275
-2.26108
-4.69297
-8.51568
-25.2375
-6.01539
-1.02638
-0.136841
-0.0134244
-0.00030558
-1.0594e-08
-4.37935e-12
-1.58494e-13
-1.51019e-14
-1.0482e-15
-3.43579e-17
-4.03977e-19
-0
-0
-0
-0
-9.98218e-22
-0
-30.8148
-52.4143
-42.0286
-23.3531
-19.2168
-9.54751
-3.8845
-1.93286
-2.13377
-4.2294
-7.42478
-19.9704
-7.92421
-1.63954
-0.242565
-0.0279951
-0.00188046
-7.15449e-07
-3.36448e-11
-3.18409e-13
-2.91267e-14
-2.62834e-15
-1.37304e-16
-3.18327e-18
-2.67686e-20
-0
-0
-0
-0
-4.9449e-23
-44.0281
-47.9705
-39.3
-19.5596
-16.4392
-8.62846
-3.69914
-1.90414
-2.01295
-3.74974
-6.49159
-16.516
-10.9499
-2.30838
-0.416724
-0.0537135
-0.00489852
-2.91929e-05
-4.0643e-10
-8.58043e-13
-5.14242e-14
-5.42704e-15
-3.91077e-16
-1.45666e-17
-2.37207e-19
-1.43395e-21
-0
-0
-0
-0
-1.98537e-24
-49.5677
-45.0582
-36.3975
-16.2525
-13.9625
-7.73544
-3.48876
-1.87485
-1.93597
-3.3422
-5.57208
-13.665
-13.9335
-3.30652
-0.630923
-0.0985987
-0.0105606
-0.000357771
-1.74061e-08
-3.80425e-12
-9.08479e-14
-9.83271e-15
-8.94021e-16
-4.7255e-17
-1.22998e-18
-1.40719e-20
-6.13438e-23
-0
-0
-0
-6.32337e-26
-45.2426
-43.5655
-32.3435
-13.4237
-11.7641
-6.87645
-3.26089
-1.83645
-1.89065
-3.09379
-4.82035
-11.0977
-16.6424
-4.4193
-0.94221
-0.160148
-0.0214285
-0.00154942
-1.04607e-06
-2.83236e-11
-1.82652e-13
-1.62825e-14
-1.75116e-15
-1.21231e-16
-4.52005e-18
-8.17035e-20
-6.5756e-22
-2.06753e-24
-0
-0
-1.62005e-27
-39.8399
-42.9375
-25.0406
-11.0034
-9.85593
-6.05302
-3.02411
-1.78698
-1.85538
-2.93187
-4.37226
-9.16453
-19.264
-5.54302
-1.32348
-0.250845
-0.0378659
-0.00388675
-2.86311e-05
-3.9953e-10
-5.07121e-13
-2.65442e-14
-3.04859e-15
-2.62337e-16
-1.30371e-17
-3.37256e-19
-4.22492e-21
-2.39225e-23
-5.41582e-26
-0
-1.39866e-29
-36.8516
-39.2324
-19.5723
-8.9332
-8.20222
-5.28574
-2.77986
-1.7269
-1.81672
-2.80018
-4.06959
-8.07448
-19.7077
-6.71282
-1.74526
-0.370686
-0.0628343
-0.00782072
-0.000309295
-1.49657e-08
-2.44651e-12
-4.61984e-14
-4.9361e-15
-4.97738e-16
-3.14049e-17
-1.08946e-18
-1.94061e-20
-1.68254e-22
-6.69479e-25
-1.11247e-27
-0
-35.4445
-35.549
-15.2324
-7.17389
-6.76499
-4.58307
-2.53545
-1.65602
-1.76899
-2.67287
-3.81841
-7.29747
-16.8391
-8.06911
-2.21502
-0.515624
-0.0979577
-0.014309
-0.00115323
-7.70869e-07
-1.91918e-11
-9.52452e-14
-7.78315e-15
-8.57619e-16
-6.57437e-17
-2.9224e-18
-6.97791e-20
-8.52045e-22
-5.10748e-24
-1.44163e-26
-2.75003e-30
-0
-35.8647
-28.5713
-11.7275
-5.67135
-5.52306
-3.94033
-2.2995
-1.57941
-1.71256
-2.5414
-3.58222
-6.63987
-14.6888
-9.82128
-2.76232
-0.688539
-0.143381
-0.0239488
-0.00263395
-2.00422e-05
-2.498e-10
-2.71258e-13
-1.26341e-14
-1.38787e-15
-1.23434e-16
-6.77122e-18
-2.07772e-19
-3.38589e-21
-2.82458e-23
-1.16276e-25
-2.53416e-28
-0
-0
-35.0157
-19.9878
-8.84923
-4.38785
-4.44827
-3.35433
-2.07488
-1.50365
-1.66097
-2.40897
-3.35058
-6.04367
-12.884
-11.5751
-3.46002
-0.894055
-0.200444
-0.0372342
-0.00499893
-0.000193678
-8.12986e-09
-1.27403e-12
-2.26108e-14
-2.18423e-15
-2.13765e-16
-1.39618e-17
-5.32288e-19
-1.11362e-20
-1.23104e-22
-7.00485e-25
-1.9363e-27
-0
-0
-0
-31.4973
-13.9477
-6.48867
-3.31053
-3.51832
-2.8229
-1.86003
-1.43096
-1.62088
-2.30682
-3.12874
-5.49353
-11.3216
-13.1469
-4.22002
-1.1549
-0.271172
-0.0548582
-0.00861783
-0.000682325
-3.30004e-07
-1.07748e-11
-4.80626e-14
-3.4785e-15
-3.5074e-16
-2.62708e-17
-1.20727e-18
-3.14482e-20
-4.4478e-22
-3.32166e-24
-1.28043e-26
-1.00186e-29
-0
-0
-0
-21.1192
-9.42689
-4.61399
-2.44076
-2.72456
-2.34355
-1.65724
-1.36072
-1.59069
-2.23787
-2.96617
-4.99676
-9.95948
-14.4791
-4.96445
-1.45752
-0.362525
-0.0776088
-0.0137149
-0.0015326
-7.72985e-06
-1.08379e-10
-1.35466e-13
-5.84136e-15
-5.60654e-16
-4.61449e-17
-2.48114e-18
-7.83633e-20
-1.37867e-21
-1.30926e-23
-6.55014e-26
-1.72405e-28
-0
-0
-0
-0
-12.3698
-6.19782
-3.20504
-1.77275
-2.06866
-1.91606
-1.46778
-1.29293
-1.56571
-2.19041
-2.85929
-4.65285
-8.79072
-15.5733
-5.65284
-1.77697
-0.474164
-0.107501
-0.0205668
-0.00281173
-7.59959e-05
-2.16722e-09
-5.5716e-13
-1.07901e-14
-8.97577e-16
-7.73447e-17
-4.71484e-18
-1.76092e-19
-3.76369e-21
-4.43327e-23
-2.81039e-25
-9.19666e-28
-0
-0
-0
-0
-0
-7.4407
-4.03049
-2.20171
-1.28323
-1.55057
-1.54401
-1.29219
-1.22577
-1.54205
-2.15309
-2.7852
-4.42404
-8.02483
-16.4526
-6.27186
-2.09454
-0.600031
-0.145465
-0.0297976
-0.00469689
-0.000319991
-6.31582e-08
-3.90818e-12
-2.28153e-14
-1.47626e-15
-1.26404e-16
-8.43938e-18
-3.63505e-19
-9.23746e-21
-1.3205e-22
-1.03411e-24
-4.37967e-27
-1.2244e-30
-0
-0
-0
-0
-0
-4.58666
-2.628
-1.51435
-0.937998
-1.15979
-1.23217
-1.13215
-1.16075
-1.51693
-2.11884
-2.72629
-4.25454
-7.50081
-15.2077
-6.82253
-2.40055
-0.733525
-0.190655
-0.0419337
-0.00739271
-0.000749959
-1.50738e-06
-3.06428e-11
-5.86114e-14
-2.55377e-15
-2.05487e-16
-1.4486e-17
-7.00681e-19
-2.07355e-20
-3.53203e-22
-3.35103e-24
-1.74496e-26
-2.42567e-29
-0
-0
-0
-0
-0
-0
-2.89044
-1.73307
-1.05509
-0.701715
-0.876853
-0.982177
-0.990517
-1.09838
-1.49031
-2.08374
-2.67287
-4.11287
-7.08892
-13.9207
-7.49093
-2.69173
-0.869968
-0.241407
-0.0570918
-0.0110342
-0.00141505
-1.80498e-05
-3.3992e-10
-1.95533e-13
-4.75554e-15
-3.38364e-16
-2.42446e-17
-1.28076e-18
-4.32041e-20
-8.61351e-22
-9.72406e-24
-6.04517e-26
-1.90792e-28
-0
-0
-0
-0
-0
-0
-0
-1.8609
-1.16448
-0.753313
-0.544147
-0.678959
-0.790756
-0.870117
-1.04001
-1.46235
-2.0472
-2.62015
-3.98463
-6.73495
-12.8689
-8.1715
-3.02258
-1.00687
-0.296457
-0.075036
-0.0157823
-0.00238005
-0.000113195
-6.48445e-09
-9.16818e-13
-9.75215e-15
-5.73239e-16
-4.01888e-17
-2.25171e-18
-8.47041e-20
-1.94213e-21
-2.57051e-23
-1.90041e-25
-7.40767e-28
-0
-0
-0
-0
-0
-0
-0
-1.22691
-0.803821
-0.557826
-0.442027
-0.544852
-0.65049
-0.772522
-0.987569
-1.43388
-2.00958
-2.56714
-3.86352
-6.41743
-11.9628
-8.77372
-3.37565
-1.15888
-0.354893
-0.0954745
-0.0216962
-0.00374912
-0.000297458
-1.42685e-07
-6.79883e-12
-2.24663e-14
-1.0127e-15
-6.69184e-17
-3.85949e-18
-1.58202e-19
-4.098e-21
-6.26688e-23
-5.46225e-25
-2.55732e-27
-6.65625e-31
-0
-0
-0
-0
-0
-0
-0.832876
-0.575803
-0.433397
-0.378486
-0.457128
-0.552117
-0.6975
-0.942928
-1.40629
-1.97178
-2.5142
-3.74781
-6.12689
-11.1661
-9.26612
-3.71796
-1.32577
-0.419891
-0.118177
-0.0287639
-0.00556778
-0.000620444
-2.18129e-06
-4.64684e-11
-6.11525e-14
-1.88165e-15
-1.13317e-16
-6.53191e-18
-2.84792e-19
-8.18274e-21
-1.4252e-22
-1.43537e-24
-8.09272e-27
-1.03857e-29
-0
-0
-0
-0
-0
-0
-0.587051
-0.43288
-0.356395
-0.34174
-0.402574
-0.486524
-0.643286
-0.907476
-1.38126
-1.93516
-2.46226
-3.63767
-5.85934
-10.4581
-9.64508
-4.02931
-1.49805
-0.492802
-0.143873
-0.0369659
-0.00783869
-0.00108233
-1.8356e-05
-4.55414e-10
-2.05392e-13
-3.71669e-15
-1.96713e-16
-1.1044e-17
-4.99691e-19
-1.56203e-20
-3.05135e-22
-3.50876e-24
-2.27687e-26
-6.39901e-29
-0
-0
-0
-0
-0
-0
-0.434251
-0.344994
-0.311209
-0.323753
-0.371636
-0.445871
-0.607251
-0.881925
-1.36049
-1.90136
-2.41265
-3.53397
-5.61343
-9.82603
-9.9188
-4.30104
-1.66669
-0.571706
-0.173237
-0.0464817
-0.0105935
-0.00171595
-8.60389e-05
-6.66756e-09
-9.13409e-13
-7.86174e-15
-3.52114e-16
-1.88329e-17
-8.63629e-19
-2.87824e-20
-6.21044e-22
-8.06606e-24
-6.01713e-26
-2.6645e-28
-0
-0
-0
-0
-0
-0
-0.340634
-0.293114
-0.287617
-0.31914
-0.357619
-0.423951
-0.586546
-0.866379
-1.34548
-1.87217
-2.36696
-3.43787
-5.3889
-9.26136
-10.0974
-4.53153
-1.82575
-0.653534
-0.206115
-0.0575739
-0.0138949
-0.00255663
-0.000207712
-1.09488e-07
-5.7955e-12
-1.81085e-14
-6.50962e-16
-3.26241e-17
-1.48442e-18
-5.16764e-20
-1.21175e-21
-1.75464e-23
-1.49639e-25
-7.18105e-28
-0
-0
-0
-0
-0
-0
-0.285269
-0.265153
-0.278976
-0.324341
-0.355945
-0.416127
-0.578543
-0.860513
-1.33745
-1.84933
-2.32699
-3.3508
-5.18592
-8.75861
-10.1882
-4.72182
-1.97236
-0.735264
-0.241759
-0.0703545
-0.017833
-0.00362617
-0.000409062
-1.32881e-06
-3.53251e-11
-4.71525e-14
-1.24589e-15
-5.7645e-17
-2.55838e-18
-9.11941e-20
-2.28487e-21
-3.64231e-23
-3.47654e-25
-1.90328e-27
-4.92564e-31
-0
-0
-0
-0
-0
-0.255053
-0.253422
-0.280993
-0.337039
-0.36354
-0.419065
-0.581045
-0.863781
-1.33725
-1.83435
-2.29454
-3.27439
-5.00507
-8.31362
-10.1952
-4.87274
-2.10532
-0.815162
-0.279493
-0.0847356
-0.0224876
-0.00493334
-0.00068791
-9.89565e-06
-2.62399e-10
-1.4349e-13
-2.48215e-15
-1.04009e-16
-4.44936e-18
-1.5947e-19
-4.19672e-21
-7.26405e-23
-7.66537e-25
-4.64072e-27
-2.85418e-30
-0
-0
-0
-0
-0
-0.24174
-0.253035
-0.29092
-0.355757
-0.378377
-0.430446
-0.592336
-0.875567
-1.34541
-1.82843
-2.27127
-3.21037
-4.84716
-7.92337
-10.1204
-4.98398
-2.2237
-0.892155
-0.318444
-0.100548
-0.0278955
-0.0065171
-0.00105702
-4.59542e-05
-2.76529e-09
-5.35686e-13
-5.16581e-15
-1.91753e-16
-7.83939e-18
-2.78296e-19
-7.56303e-21
-1.40163e-22
-1.62548e-24
-1.11128e-26
-2.30552e-29
-0
-0
-0
-0
-0
-0.240132
-0.260902
-0.307027
-0.379644
-0.399152
-0.448692
-0.61113
-0.895278
-1.36219
-1.83236
-2.25852
-3.16028
-4.71314
-7.58556
-9.9645
-5.05438
-2.32627
-0.965315
-0.357912
-0.117541
-0.034052
-0.00841645
-0.00153637
-0.000110115
-3.50672e-08
-2.63659e-12
-1.133e-14
-3.60651e-16
-1.40235e-17
-4.87472e-19
-1.3465e-20
-2.63329e-22
-3.31616e-24
-2.54461e-26
-8.78588e-29
-0
-0
-0
-0
-0
-0.246958
-0.275089
-0.328293
-0.408518
-0.425137
-0.472775
-0.636498
-0.922384
-1.38761
-1.84662
-2.25723
-3.12537
-4.6038
-7.29827
-9.7292
-5.08227
-2.41153
-1.0336
-0.397271
-0.135466
-0.0409148
-0.0106523
-0.00215632
-0.00021796
-3.81658e-07
-1.54471e-11
-2.68866e-14
-6.9104e-16
-2.547e-17
-8.6071e-19
-2.38307e-20
-4.84757e-22
-6.54259e-24
-5.45003e-26
-2.76536e-28
-0
-0
-0
-0
-0
-0.260179
-0.294445
-0.354346
-0.442723
-0.456311
-0.502157
-0.667813
-0.95643
-1.42154
-1.87131
-2.26792
-3.10645
-4.51963
-7.0596
-9.41758
-5.06625
-2.47762
-1.09599
-0.435806
-0.154155
-0.048425
-0.0132309
-0.00290957
-0.000375504
-2.9078e-06
-8.28265e-11
-7.09563e-14
-1.35284e-15
-4.6884e-17
-1.53578e-18
-4.21471e-20
-8.79519e-22
-1.25734e-23
-1.13083e-25
-5.89383e-28
-0
-0
-0
-0
-0
-0.278581
-0.31847
-0.385346
-0.482828
-0.493174
-0.537089
-0.704873
-0.997082
-1.46373
-1.9063
-2.29074
-3.10385
-4.46061
-6.86745
-9.03496
-5.00564
-2.52271
-1.1512
-0.473078
-0.173494
-0.0565287
-0.016151
-0.00380546
-0.000580031
-1.50531e-05
-5.86101e-10
-2.13969e-13
-2.71314e-15
-8.73111e-17
-2.77118e-18
-7.48053e-20
-1.58105e-21
-2.36504e-23
-2.28795e-25
-1.38349e-27
-3.3149e-31
-0
-0
-0
-0
-0.301597
-0.347193
-0.421748
-0.529621
-0.536375
-0.578331
-0.748657
-1.0445
-1.51395
-1.95125
-2.32546
-3.11738
-4.42621
-6.71937
-8.5889
-4.90094
-2.54524
-1.19787
-0.508403
-0.193117
-0.0651785
-0.0194074
-0.00485607
-0.000844999
-4.43817e-05
-5.38253e-09
-7.82558e-13
-5.5892e-15
-1.64171e-16
-5.05387e-18
-1.33621e-19
-2.82959e-21
-4.37489e-23
-4.48615e-25
-2.95578e-27
-1.6039e-30
-0
-0
-0
-0
-0.329194
-0.380982
-0.464251
-0.584438
-0.586766
-0.626654
-0.800546
-1.10104
-1.57271
-2.0058
-2.37164
-3.14648
-4.41536
-6.61242
-8.08886
-4.75396
-2.54416
-1.23469
-0.540956
-0.212646
-0.0742763
-0.0229917
-0.0060702
-0.00118084
-9.41055e-05
-5.34416e-08
-3.62037e-12
-1.20101e-14
-3.10809e-16
-9.30075e-18
-2.40573e-19
-5.06219e-21
-8.00106e-23
-8.64942e-25
-5.88145e-27
-5.51423e-30
-0
-0
-0
-0
-0.361697
-0.420465
-0.514002
-0.648945
-0.645854
-0.68301
-0.861455
-1.169
-1.64515
-2.0707
-2.4288
-3.19027
-4.42653
-6.54326
-7.54553
-4.56777
-2.51906
-1.26053
-0.56995
-0.231583
-0.0837199
-0.0268843
-0.0074508
-0.00159621
-0.000171987
-4.42453e-07
-1.87109e-11
-2.75471e-14
-5.93213e-16
-1.723e-17
-4.36712e-19
-9.08113e-21
-1.45215e-22
-1.6327e-24
-1.18381e-26
-2.93461e-29
-0
-0
-0
-0
-0.399697
-0.466668
-0.572513
-0.725866
-0.715422
-0.749202
-0.932525
-1.24909
-1.73447
-2.15456
-2.49785
-3.24789
-4.45796
-6.50822
-6.9701
-4.34652
-2.47024
-1.2745
-0.594604
-0.249605
-0.0934438
-0.0310576
-0.00899731
-0.002085
-0.000279758
-2.68415e-06
-8.89031e-11
-6.88596e-14
-1.14537e-15
-3.20603e-17
-7.98668e-19
-1.63653e-20
-2.62606e-22
-3.04357e-24
-2.31932e-26
-9.42688e-29
-0
-0
-0
-0
-0.44416
-0.520985
-0.642152
-0.818886
-0.79852
-0.827194
-1.01645
-1.34266
-1.84022
-2.26068
-2.59072
-3.32047
-4.50795
-6.50358
-6.37365
-4.09512
-2.39867
-1.27602
-0.614185
-0.26629
-0.103202
-0.0354843
-0.0107065
-0.00264986
-0.000416435
-1.2013e-05
-5.33396e-10
-1.92482e-13
-2.24275e-15
-5.98458e-17
-1.46933e-18
-2.96627e-20
-4.74425e-22
-5.61288e-24
-4.52733e-26
-2.1167e-28
-0
-0
-0
-0
-0.496423
-0.585549
-0.7262
-0.933079
-0.899168
-0.920595
-1.11548
-1.45427
-1.964
-2.38649
-2.71049
-3.42781
-4.57767
-6.52594
-5.76651
-3.81892
-2.30588
-1.26488
-0.628084
-0.281169
-0.112766
-0.0400972
-0.012573
-0.00329507
-0.000588704
-3.04298e-05
-4.04377e-09
-6.31942e-13
-4.4702e-15
-1.11929e-16
-2.71494e-18
-5.4077e-20
-8.5857e-22
-1.02814e-23
-8.58615e-26
-4.53233e-28
-0
-0
-0
-0
-0.558507
-0.663358
-0.829224
-1.07716
-1.02285
-1.03397
-1.23488
-1.58604
-2.11425
-2.53411
-2.85248
-3.57101
-4.70228
-6.57576
-5.15823
-3.5234
-2.19389
-1.24116
-0.63583
-0.293839
-0.121829
-0.0448178
-0.0145818
-0.00402343
-0.000801622
-6.19363e-05
-3.3294e-08
-2.53658e-12
-9.18682e-15
-2.09476e-16
-5.02954e-18
-9.90997e-20
-1.55848e-21
-1.87527e-23
-1.6022e-25
-9.60855e-28
-1.78609e-31
-0
-0
-0
-0.63327
-0.758618
-0.958829
-1.26436
-1.17928
-1.17349
-1.38052
-1.74669
-2.2912
-2.71683
-3.0194
-3.74012
-4.87601
-5.97272
-4.5594
-3.21411
-2.06502
-1.20528
-0.637097
-0.303931
-0.13022
-0.0496094
-0.0167109
-0.00483349
-0.00105989
-0.000110359
-2.40245e-07
-1.23178e-11
-1.98296e-14
-3.92915e-16
-9.32478e-18
-1.82368e-19
-2.84001e-21
-3.41835e-23
-2.98855e-25
-1.79537e-27
-7.74937e-31
-0
-0
-0
-0.724741
-0.878196
-1.12685
-1.52091
-1.38285
-1.35054
-1.56019
-1.94372
-2.51065
-2.93064
-3.22918
-3.93979
-5.0789
-5.14442
-4.0089
-2.89774
-1.92192
-1.1579
-0.631716
-0.311114
-0.137724
-0.0543305
-0.0189405
-0.0057204
-0.00135793
-0.000177399
-1.35249e-06
-5.12529e-11
-4.56963e-14
-7.41234e-16
-1.72805e-17
-3.36552e-19
-5.19619e-21
-6.23367e-23
-5.54015e-25
-3.33071e-27
-2.46206e-30
-0
-0
-0
-0.839433
-1.03293
-1.35628
-1.86087
-1.6626
-1.58142
-1.79008
-2.18724
-2.78112
-3.20074
-3.47322
-4.19893
-5.07665
-4.38629
-3.50713
-2.59337
-1.76807
-1.09998
-0.619665
-0.31512
-0.144119
-0.058856
-0.0212308
-0.00667819
-0.00169494
-0.000260518
-5.82224e-06
-2.47489e-10
-1.14579e-13
-1.40927e-15
-3.19928e-17
-6.21975e-19
-9.54082e-21
-1.13899e-22
-1.01893e-24
-6.33416e-27
-7.00024e-30
-0
-0
-0
-0.987696
-1.24363
-1.69799
-1.20283
-1.78681
-1.89999
-2.09091
-2.5026
-3.11549
-3.53415
-3.78591
-4.45043
-4.20137
-3.6984
-3.04063
-2.30674
-1.61232
-1.03299
-0.601101
-0.315749
-0.149196
-0.0630432
-0.0235353
-0.00769667
-0.00207115
-0.000363607
-1.56344e-05
-1.47829e-09
-3.24e-13
-2.70648e-15
-5.9139e-17
-1.14973e-18
-1.75681e-20
-2.08604e-22
-1.87319e-24
-1.1888e-26
-3.1112e-29
-0
-0
-0
-1.18929
-1.55639
-1.25945
-0.788034
-1.16442
-1.68923
-2.19262
-2.54917
-2.733
-3.08595
-3.48563
-3.56881
-3.43475
-3.10383
-2.6086
-2.03451
-1.45963
-0.960676
-0.576476
-0.312885
-0.152782
-0.0667693
-0.0258158
-0.00876163
-0.00248606
-0.000488093
-3.22282e-05
-1.02755e-08
-1.07684e-12
-5.29234e-15
-1.09087e-16
-2.12322e-18
-3.24112e-20
-3.83019e-22
-3.44038e-24
-2.22732e-26
-9.1065e-29
-0
-0
-0
-1.48811
-1.30448
-0.818654
-0.522048
-0.76739
-1.11555
-1.48188
-1.79331
-2.00422
-2.32828
-2.69369
-2.82976
-2.79074
-2.57792
-2.22313
-1.77664
-1.31043
-0.886055
-0.547157
-0.306554
-0.154728
-0.0699363
-0.0280194
-0.00985746
-0.00293668
-0.000638279
-5.82925e-05
-6.90092e-08
-4.26817e-12
-1.0677e-14
-2.00857e-16
-3.91348e-18
-5.98419e-20
-7.04894e-22
-6.32096e-24
-4.15773e-26
-2.01602e-28
-0
-0
-0
-1.32831
-0.842843
-0.539235
-0.349369
-0.510697
-0.742819
-1.00209
-1.24765
-1.44594
-1.7284
-2.05316
-2.21675
-2.24428
-2.1249
-1.87666
-1.5393
-1.16531
-0.810293
-0.514613
-0.29714
-0.154942
-0.0724408
-0.0300743
-0.0109643
-0.00341796
-0.000809757
-9.52675e-05
-3.90834e-07
-1.89788e-11
-2.25489e-14
-3.70264e-16
-7.19334e-18
-1.10477e-19
-1.29936e-21
-1.16378e-23
-7.69338e-26
-3.48481e-28
-0
-0
-0
-0.85559
-0.552841
-0.359243
-0.23618
-0.343032
-0.498422
-0.679572
-0.863542
-1.02973
-1.26227
-1.54038
-1.71327
-1.78365
-1.73437
-1.57096
-1.32148
-1.02742
-0.734129
-0.479723
-0.285211
-0.153461
-0.07419
-0.0319154
-0.0120562
-0.00392313
-0.00100001
-0.000142096
-1.75177e-06
-7.27353e-11
-5.04717e-14
-6.84912e-16
-1.31815e-17
-2.03717e-19
-2.39894e-21
-2.14468e-23
-1.43284e-25
-6.72045e-28
-0
-0
-0
-0.560018
-0.36711
-0.241954
-0.161412
-0.2326
-0.337009
-0.462706
-0.596684
-0.727136
-0.909455
-1.13705
-1.30409
-1.39904
-1.39953
-1.30243
-1.12449
-0.897618
-0.659199
-0.443064
-0.271223
-0.150439
-0.0751352
-0.0334749
-0.0131052
-0.00444353
-0.00120738
-0.00019883
-5.89612e-06
-3.29508e-10
-1.22268e-13
-1.27296e-15
-2.40802e-17
-3.74914e-19
-4.43021e-21
-3.95923e-23
-2.64031e-25
-1.31831e-27
-2.9367e-31
-0
-0
-0.371275
-0.246596
-0.164839
-0.111711
-0.159366
-0.229738
-0.316625
-0.41256
-0.511028
-0.649048
-0.827708
-0.976995
-1.08135
-1.11501
-1.06793
-0.947738
-0.77711
-0.586504
-0.405468
-0.255509
-0.146047
-0.0752841
-0.0347024
-0.0140868
-0.00496899
-0.00143005
-0.000266656
-1.28662e-05
-1.8057e-09
-3.31623e-13
-2.38429e-15
-4.38404e-17
-6.88201e-19
-8.17805e-21
-7.31542e-23
-4.88235e-25
-2.34721e-27
-1.07689e-30
-0
-0
-0.249068
-0.167625
-0.113775
-0.0784963
-0.110524
-0.158066
-0.217988
-0.28596
-0.35848
-0.460488
-0.596314
-0.72162
-0.823017
-0.875867
-0.864902
-0.790233
-0.666358
-0.517012
-0.367635
-0.238466
-0.140428
-0.0746709
-0.0355785
-0.0149753
-0.00548859
-0.00166547
-0.000346228
-2.45406e-05
-1.0914e-08
-1.04327e-12
-4.53583e-15
-7.95301e-17
-1.25921e-18
-1.50795e-20
-1.35257e-22
-9.0413e-25
-4.44251e-27
-3.07983e-30
-0
-0
-0.169118
-0.115473
-0.0797607
-0.0561879
-0.077791
-0.109959
-0.151212
-0.199039
-0.251601
-0.325772
-0.426683
-0.527078
-0.617533
-0.677857
-0.691037
-0.651095
-0.565431
-0.451395
-0.33022
-0.220482
-0.133746
-0.0733346
-0.036093
-0.0157415
-0.00599054
-0.00190991
-0.000438172
-4.18718e-05
-6.24732e-08
-3.8075e-12
-8.86312e-15
-1.43888e-16
-2.29534e-18
-2.77535e-20
-2.50147e-22
-1.67568e-24
-8.08412e-27
-8.01082e-30
-0
-0
-0.116389
-0.0808116
-0.0569797
-0.0411211
-0.0557509
-0.0775393
-0.10589
-0.139379
-0.177068
-0.230397
-0.304157
-0.381955
-0.457934
-0.517245
-0.544285
-0.529525
-0.474297
-0.390077
-0.293772
-0.201935
-0.126179
-0.0713259
-0.0362424
-0.0163654
-0.00646185
-0.00215858
-0.000539057
-6.54226e-05
-3.05527e-07
-1.57102e-11
-1.79753e-14
-2.60319e-16
-4.16754e-18
-5.09509e-20
-4.62203e-22
-3.10321e-24
-1.51519e-26
-3.49482e-29
-0
-0
-0.0813823
-0.0576426
-0.0416324
-0.0308698
-0.0408329
-0.0556053
-0.0750528
-0.0984141
-0.125238
-0.163286
-0.216578
-0.275443
-0.336606
-0.389923
-0.422785
-0.424791
-0.392925
-0.333353
-0.258716
-0.183174
-0.11791
-0.0687068
-0.0360306
-0.0168326
-0.00689058
-0.00240602
-0.000646712
-9.4075e-05
-1.22141e-06
-5.6206e-11
-3.82073e-14
-4.71695e-16
-7.53759e-18
-9.32582e-20
-8.53175e-22
-5.75363e-24
-2.8762e-26
-6.55921e-29
-0
-0
-0.0580044
-0.042061
-0.0312136
-0.023817
-0.030664
-0.0406991
-0.0540143
-0.070261
-0.0892506
-0.116251
-0.154436
-0.198208
-0.245965
-0.291147
-0.324377
-0.336191
-0.32127
-0.281494
-0.225395
-0.164506
-0.109126
-0.0655502
-0.0354679
-0.0171329
-0.0072662
-0.00264669
-0.00075926
-0.000127779
-3.63489e-06
-2.23092e-10
-8.65839e-14
-8.56684e-16
-1.35818e-17
-1.7012e-19
-1.57182e-21
-1.06601e-23
-5.2749e-26
-1.6647e-28
-0
-0
-0.0422954
-0.0314998
-0.0240598
-0.0188822
-0.023658
-0.0305072
-0.039613
-0.0508848
-0.0642768
-0.0833684
-0.110563
-0.142695
-0.179159
-0.215909
-0.246366
-0.262796
-0.259261
-0.234737
-0.194124
-0.146195
-0.100004
-0.061937
-0.0345741
-0.0172571
-0.0075799
-0.00287514
-0.000874894
-0.000166772
-7.61201e-06
-1.04743e-09
-2.15053e-13
-1.56297e-15
-2.43763e-17
-3.09216e-19
-2.8895e-21
-1.97333e-23
-9.83343e-26
-3.795e-28
-0
-0
-0.0316558
-0.0242586
-0.0190625
-0.0153449
-0.0187517
-0.0234734
-0.0297069
-0.0375175
-0.0469388
-0.0604078
-0.0796905
-0.103045
-0.130423
-0.159441
-0.185687
-0.203271
-0.206667
-0.193288
-0.165195
-0.128493
-0.0907077
-0.057952
-0.0333763
-0.0172075
-0.00782696
-0.00308622
-0.000991636
-0.000211044
-1.41023e-05
-5.45977e-09
-6.04629e-13
-2.88101e-15
-4.35731e-17
-5.59844e-19
-5.29689e-21
-3.64573e-23
-1.82362e-25
-6.22073e-28
-0
-0
-0.0243661
-0.0192067
-0.0154847
-0.0127296
-0.0152342
-0.0185485
-0.0228397
-0.0282583
-0.0348818
-0.0443765
-0.0580066
-0.0748497
-0.0951397
-0.11755
-0.139231
-0.155921
-0.162975
-0.157248
-0.138879
-0.111644
-0.0814015
-0.0536803
-0.0319064
-0.0169888
-0.00799954
-0.00327549
-0.00110717
-0.000260621
-2.35661e-05
-2.78733e-08
-1.93678e-12
-5.41095e-15
-7.76278e-17
-1.00937e-18
-9.68133e-21
-6.7283e-23
-3.39467e-25
-1.27317e-27
-0
-0
-0.0192839
-0.0155939
-0.0128413
-0.0107278
-0.0126348
-0.0150261
-0.0180196
-0.0218
-0.0264667
-0.0331679
-0.0427856
-0.0548564
-0.0697368
-0.086749
-0.104119
-0.118879
-0.127381
-0.126542
-0.115388
-0.0958775
-0.0722479
-0.0492108
-0.0302001
-0.0166087
-0.00809298
-0.0034384
-0.001219
-0.000313287
-3.61959e-05
-1.26473e-07
-6.91343e-12
-1.04367e-14
-1.38083e-16
-1.81214e-18
-1.7634e-20
-1.23955e-22
-6.288e-25
-2.31389e-27
-0
-0
-0.0156515
-0.0129268
-0.0108185
-0.00914414
-0.0106473
-0.012435
-0.0145725
-0.0172433
-0.0205537
-0.0253036
-0.0320908
-0.0406983
-0.051517
-0.0642534
-0.077848
-0.0903032
-0.098885
-0.10089
-0.0948338
-0.0814018
-0.0634091
-0.0446364
-0.0282975
-0.0160774
-0.00810522
-0.00357095
-0.00132455
-0.000367564
-5.1586e-05
-4.85281e-07
-2.58084e-11
-2.08095e-14
-2.45601e-16
-3.24022e-18
-3.20016e-20
-2.2771e-22
-1.16335e-24
-4.2015e-27
-7.55448e-31
-0
-0.0129713
-0.0108869
-0.00921803
-0.00785752
-0.00907683
-0.0104656
-0.0120433
-0.0139712
-0.0163511
-0.0197481
-0.0245525
-0.0306695
-0.0384782
-0.0479035
-0.0583477
-0.0685073
-0.076408
-0.0798397
-0.0771992
-0.0683727
-0.0550396
-0.0400535
-0.0262434
-0.015409
-0.00803648
-0.0036699
-0.00142134
-0.000422201
-6.90596e-05
-1.53076e-06
-8.59458e-11
-4.33488e-14
-4.36953e-16
-5.77131e-18
-5.78562e-20
-4.17073e-22
-2.15208e-24
-7.86089e-27
-2.54147e-30
-0
-0.0109223
-0.00927347
-0.00791754
-0.006793
-0.00780225
-0.0089188
-0.0101298
-0.0115641
-0.0133115
-0.015778
-0.0192049
-0.0235483
-0.029152
-0.036058
-0.0439589
-0.0520332
-0.0588987
-0.0628349
-0.0623438
-0.0568746
-0.0472731
-0.0355593
-0.0240869
-0.0146208
-0.00788896
-0.00373294
-0.00150711
-0.000476102
-8.87654e-05
-3.22004e-06
-3.26624e-10
-9.60779e-14
-7.78138e-16
-1.02386e-17
-1.04196e-19
-7.61618e-22
-3.96799e-24
-1.40882e-26
-7.72044e-30
-0
-0.00930204
-0.00796257
-0.00684144
-0.00590363
-0.00674832
-0.00766941
-0.00863469
-0.00974037
-0.01106
-0.0128904
-0.0153691
-0.0184632
-0.0224707
-0.0274882
-0.0333862
-0.0396693
-0.045398
-0.0492824
-0.0500338
-0.0469154
-0.0402093
-0.0312456
-0.0218807
-0.0137337
-0.00766716
-0.00375862
-0.00157992
-0.000528214
-0.000110409
-6.02505e-06
-1.41174e-09
-2.32742e-13
-1.39142e-15
-1.80866e-17
-1.86905e-19
-1.38639e-21
-7.30279e-24
-2.63993e-26
-1.91358e-29
-0
-0.00798577
-0.00687791
-0.00594245
-0.00515758
-0.00586788
-0.00663933
-0.00743262
-0.00831494
-0.00934358
-0.0107397
-0.0125705
-0.0147958
-0.0176624
-0.0212847
-0.0256366
-0.0304391
-0.0350735
-0.038603
-0.0399789
-0.0384355
-0.0339068
-0.0271908
-0.0196778
-0.0127718
-0.00737784
-0.0037466
-0.00163808
-0.000577498
-0.000134248
-1.01876e-05
-6.39777e-09
-6.28984e-13
-2.51175e-15
-3.18207e-17
-3.33865e-19
-2.51451e-21
-1.33987e-23
-4.92761e-26
-8.04144e-29
-0
-0.00689676
-0.00597188
-0.00518857
-0.00453107
-0.00512913
-0.00577968
-0.00644439
-0.00716897
-0.00799536
-0.00909211
-0.0104814
-0.0121093
-0.0141721
-0.0167788
-0.0199589
-0.0235725
-0.0272283
-0.030266
-0.0318672
-0.0313245
-0.0283825
-0.023455
-0.0175285
-0.0117615
-0.00702995
-0.00369768
-0.00168031
-0.000622856
-0.00015916
-1.58262e-05
-2.76096e-08
-1.88504e-12
-4.60581e-15
-5.58149e-17
-5.93823e-19
-4.54392e-21
-2.45203e-23
-8.99287e-26
-2.20729e-28
-0
-0.00598715
-0.00521224
-0.00455577
-0.00400457
-0.00450839
-0.00505801
-0.00562045
-0.00622689
-0.00690751
-0.00779267
-0.00887877
-0.0100994
-0.0116036
-0.013483
-0.0157907
-0.0184725
-0.0212947
-0.0238064
-0.0253912
-0.0254408
-0.0236179
-0.0200767
-0.0154761
-0.0107295
-0.00663426
-0.00361388
-0.00170577
-0.000663228
-0.000184252
-2.29153e-05
-1.06005e-07
-6.14142e-12
-8.61946e-15
-9.77246e-17
-1.05173e-18
-8.17985e-21
-4.47191e-23
-1.64702e-25
-3.19219e-28
-0
-0.00522456
-0.00457476
-0.0040243
-0.00356129
-0.00398641
-0.0044508
-0.00492827
-0.00544114
-0.00601107
-0.00674114
-0.00761415
-0.00855669
-0.00967714
-0.0110442
-0.0127143
-0.0146822
-0.0168195
-0.0188305
-0.0202657
-0.0206284
-0.0195672
-0.0170735
-0.0135553
-0.00970159
-0.00620256
-0.00349838
-0.00171416
-0.000697664
-0.000208796
-3.10074e-05
-3.52194e-07
-2.15769e-11
-1.6538e-14
-1.70867e-16
-1.85526e-18
-1.46674e-20
-8.12945e-23
-3.03317e-25
-7.19684e-28
-0
-0.00458469
-0.00403954
-0.00357709
-0.0031866
-0.00354664
-0.00393932
-0.00434482
-0.00478046
-0.00526222
-0.00587305
-0.00659083
-0.00734046
-0.00819814
-0.00920929
-0.0104222
-0.011855
-0.0134467
-0.015013
-0.0162373
-0.0167307
-0.0161665
-0.0144445
-0.0117904
-0.00870076
-0.0057475
-0.00335551
-0.00170573
-0.00072542
-0.000232177
-3.9886e-05
-9.18884e-07
-6.56369e-11
-3.28058e-14
-2.98303e-16
-3.25966e-18
-2.61958e-20
-1.47276e-22
-5.55196e-25
-1.16705e-27
-0
-0.00404753
-0.00358935
-0.00319929
-0.00286793
-0.00317472
-0.00350773
-0.00385226
-0.00422282
-0.00463189
-0.00514713
-0.00574625
-0.00635789
-0.00703379
-0.00779977
-0.00869058
-0.009731
-0.0109
-0.0120903
-0.0130878
-0.0135995
-0.0133426
-0.0121746
-0.0101956
-0.0077462
-0.00528177
-0.00319019
-0.0016813
-0.000745983
-0.000253899
-4.95056e-05
-1.80701e-06
-2.1936e-10
-6.82865e-14
-5.20161e-16
-5.70296e-18
-4.65986e-20
-2.65899e-22
-1.01146e-24
-2.10067e-27
-0
-0.00359578
-0.00320917
-0.00287814
-0.00259477
-0.00285828
-0.00314229
-0.0034357
-0.00375127
-0.00409935
-0.00453575
-0.00504015
-0.00554826