/*--------------------------------*- C++ -*----------------------------------*\
| =========                 |                                                 |
| \\      /  F ield         | OpenFOAM: The Open Source CFD Toolbox           |
|  \\    /   O peration     | Version:  1.6.x                                 |
|   \\  /    A nd           | Web:      www.OpenFOAM.org                      |
|    \\/     M anipulation  |                                                 |
\*---------------------------------------------------------------------------*/
FoamFile
{
    version     2.0;
    format      ascii;
    class       volVectorField;
    location    "7000";
    object      U;
}
// * * * * * * * * * * * * * * * * * * * * * * * * * * * * * * * * * * * * * //

dimensions      [0 1 -1 0 0 0 0];

internalField   nonuniform List<vector> 
4608
(
(44.8073 -0.27981 3.39491e-13)
(43.6813 -0.00615186 -2.34743e-13)
(53.3419 -0.501032 8.2596e-12)
(46.2309 1.46405 2.13436e-12)
(43.8598 -0.00691791 -1.16374e-12)
(52.4367 -0.0305176 2.08338e-11)
(57.1684 -0.299945 3.07477e-11)
(54.9614 -0.192585 1.5602e-11)
(47.1343 1.11062 5.26619e-12)
(35.3513 2.31407 6.51761e-12)
(43.8798 -0.013603 2.76773e-14)
(52.5923 -0.0331629 1.94451e-11)
(56.2475 -0.042914 2.79219e-11)
(58.2565 -0.122627 -1.56932e-11)
(58.942 -0.053331 1.48703e-11)
(55.2611 -0.352355 9.55603e-12)
(47.8535 0.981075 -7.51343e-12)
(42.1817 2.09067 6.51965e-12)
(22.1277 0.866348 7.86615e-12)
(43.9741 -0.0162266 7.97048e-12)
(52.4877 -0.0376925 2.15929e-11)
(56.1113 -0.0394935 2.54316e-11)
(57.1244 -0.0228178 -1.82015e-11)
(59.8854 -0.00610208 -1.54268e-12)
(59.173 0.0302586 1.20978e-11)
(55.1418 -0.17923 4.8137e-12)
(48.5968 0.994927 -1.87914e-12)
(43.585 1.96276 1.13439e-11)
(30.4497 2.75876 1.42066e-11)
(8.84241 -1.59673 1.12823e-11)
(13.3876 -1.1138 -1.07088e-11)
(44.0751 -0.0208101 5.41339e-12)
(52.4633 -0.0413045 2.38818e-11)
(55.8479 -0.0425166 1.88518e-11)
(56.9624 -0.0169284 1.92049e-11)
(60.4841 -0.0236041 -1.5885e-11)
(59.0186 0.152731 -5.07145e-12)
(55.0496 -0.021211 2.60102e-12)
(49.0132 0.950597 4.13251e-12)
(44.531 1.91608 -1.84132e-12)
(34.8058 2.91233 2.9251e-11)
(17.6876 0.72704 -3.71973e-11)
(13.6441 -0.940047 1.31663e-12)
(10.6089 0.00636838 7.64319e-11)
(10.3479 -0.491957 -5.42665e-11)
(44.2036 -0.0249866 5.1281e-12)
(52.4027 -0.0456547 2.59932e-11)
(55.616 -0.045213 2.08411e-11)
(56.5905 -0.0189438 1.44166e-11)
(60.365 -0.032437 -2.37926e-11)
(58.8687 0.149797 -7.40673e-12)
(54.9185 0.115084 1.36339e-12)
(49.3369 1.32628 5.43867e-12)
(44.9345 1.53997 1.81404e-11)
(37.3043 2.8063 1.63789e-11)
(22.0459 1.31393 -1.57253e-11)
(10.7815 0.338839 -1.71073e-11)
(12.3721 -0.607615 -1.03271e-11)
(14.1423 -0.00994162 -7.40185e-13)
(9.99673 -0.0225175 1.11095e-10)
(4.80474 -0.104888 -4.87945e-12)
(44.3557 -0.0295625 4.54073e-12)
(52.3399 -0.0499459 2.68623e-11)
(55.3542 -0.0478379 -1.84787e-14)
(56.2805 -0.0193206 1.51628e-11)
(60.2591 -0.0354985 -1.7164e-11)
(58.6585 0.142699 -1.05463e-11)
(54.7176 0.151592 3.1639e-12)
(50.4526 2.05683 1.48651e-11)
(45.6387 2.51262 9.49408e-12)
(38.2283 2.10516 3.34338e-11)
(25.4622 1.59777 -1.03831e-11)
(13.0244 0.433535 -1.61369e-11)
(5.30485 0.174114 -1.41763e-11)
(7.11941 -0.177673 -8.66468e-12)
(13.043 -0.0312738 -2.64547e-11)
(13.9911 -0.0272087 -6.7561e-12)
(10.1069 -0.00616031 7.04172e-11)
(2.45843 -0.234362 -1.43935e-11)
(44.5364 -0.0344409 4.68076e-12)
(52.2626 -0.0547637 1.92393e-11)
(55.0807 -0.0502733 -5.55885e-12)
(55.9331 -0.0206036 -7.63228e-12)
(60.1029 -0.0251527 -4.9893e-11)
(58.3825 0.105008 -1.20294e-11)
(54.8302 0.139429 -5.82858e-12)
(51.7201 1.92145 1.53437e-11)
(47.4578 3.87742 1.52887e-11)
(39.3334 3.2163 2.63122e-12)
(27.2329 1.21941 -5.67297e-12)
(15.8088 0.629018 -5.08703e-11)
(6.78185 0.0852965 -1.56443e-11)
(3.46775 -0.0033269 -1.46586e-11)
(8.04893 -0.00790148 -1.00142e-10)
(12.9598 -0.00995379 -1.75521e-11)
(14.0967 -0.00249598 -1.39558e-11)
(10.0725 -0.00818677 1.00956e-10)
(1.4348 -0.172077 -5.65835e-12)
(44.7486 -0.0395359 4.54154e-12)
(52.1738 -0.0605639 2.33245e-11)
(54.7911 -0.0526182 1.72242e-12)
(55.5792 -0.0216539 -1.92407e-11)
(59.8822 -0.0222514 -4.34852e-11)
(58.2822 0.0773969 -1.02353e-11)
(55.1008 0.234162 -1.0674e-11)
(52.2634 1.68707 7.7277e-12)
(48.9995 3.14308 1.75929e-11)
(41.85 4.73069 2.22266e-12)
(28.7362 1.83248 -7.50924e-12)
(17.8548 0.527941 -3.91011e-11)
(8.78177 0.120746 -5.50148e-11)
(4.52742 -0.0207633 -1.41286e-11)
(2.28193 -0.0645546 -1.05728e-11)
(7.90256 -0.00275898 -5.60967e-11)
(13.0793 0.00275882 -1.25214e-11)
(14.1411 -0.00548596 -1.97771e-11)
(10.0664 -0.00842546 1.06739e-10)
(0.971266 -0.111198 -8.82399e-13)
(44.995 -0.0445744 4.01654e-12)
(52.0726 -0.0671103 2.3666e-11)
(54.4872 -0.0553888 1.19375e-11)
(55.2082 -0.0227407 -4.62604e-11)
(59.7849 -0.0140063 -2.91706e-11)
(58.2591 0.121372 -1.11614e-11)
(55.2026 0.322119 -2.30847e-11)
(52.6433 1.63619 8.62582e-13)
(49.55 2.40822 9.6674e-12)
(43.7319 3.68046 7.39686e-12)
(31.5904 2.94386 -2.36201e-11)
(19.6743 0.932343 -2.5913e-11)
(10.6726 0.0977172 -4.42013e-11)
(6.02781 0.00223983 -2.40246e-11)
(3.17206 -0.068421 -1.12429e-11)
(1.33196 -0.0482193 -4.25112e-12)
(7.99952 0.00454378 -1.99427e-11)
(13.1099 0.00424438 -9.14532e-12)
(14.1987 -0.00582871 1.55361e-11)
(10.0422 -0.009206 3.03689e-11)
(0.885337 -0.0690176 2.01998e-13)
(45.2776 -0.0493691 3.17818e-12)
(51.9588 -0.0741641 2.00452e-11)
(54.1557 -0.05817 8.31348e-12)
(54.8241 -0.0235711 -1.50053e-11)
(59.727 0.00575273 -1.85725e-11)
(58.1265 0.131672 -2.14071e-12)
(55.3351 0.409076 -1.99113e-11)
(52.7262 1.39246 -7.53024e-12)
(49.9002 2.13914 2.63498e-12)
(44.4591 2.74633 -1.21724e-11)
(33.9363 2.49846 -1.73034e-11)
(22.4643 1.78684 -2.38281e-11)
(12.4763 0.321301 -3.10855e-11)
(7.60696 -0.0113852 -2.93115e-11)
(4.35205 -0.062827 -1.63292e-11)
(1.89502 -0.0770174 -5.5813e-12)
(0.937925 -0.028983 2.41388e-13)
(7.97925 0.00413099 -3.6075e-11)
(13.1605 0.00487355 -1.20611e-11)
(14.249 -0.00697297 9.99099e-12)
(10.0108 -0.0101287 6.59206e-11)
(0.885561 -0.046759 5.59785e-13)
(45.5974 -0.0530059 2.84823e-12)
(51.8316 -0.0821978 2.09989e-11)
(53.7998 -0.0599565 8.41203e-12)
(54.4269 -0.0244686 1.0187e-11)
(59.5817 0.00657045 -1.14782e-11)
(58.0223 0.132874 3.30652e-12)
(55.3797 0.437002 -1.83273e-11)
(52.7056 2.09444 1.51157e-11)
(49.8764 1.73837 -4.12957e-12)
(44.885 2.36479 -1.15011e-11)
(35.1328 2.02985 -6.19453e-13)
(24.9447 1.68237 -2.20277e-11)
(15.0226 0.915375 -2.42761e-11)
(9.1656 0.116657 -2.52764e-11)
(5.69016 -0.0756892 -2.0517e-11)
(2.68447 -0.0958329 -7.919e-12)
(1.1376 -0.056635 1.45749e-12)
(0.861254 -0.0263355 3.82834e-12)
(7.98739 0.00443798 -3.42452e-11)
(13.2003 0.00569191 -5.4435e-11)
(14.2988 -0.00832875 -3.94324e-12)
(9.96863 -0.0110253 5.53193e-11)
(0.888747 -0.0339341 8.38279e-13)
(45.9516 -0.0538493 6.72987e-12)
(51.6893 -0.0907031 1.68848e-11)
(53.4215 -0.060624 1.83648e-11)
(54.0186 -0.025748 6.76347e-12)
(59.4314 0.0125674 -6.38745e-12)
(57.8967 0.161623 3.64736e-12)
(55.3356 0.73194 -3.20918e-13)
(53.2898 3.29972 1.30597e-11)
(49.798 2.25804 6.75234e-12)
(44.9104 1.90892 -9.13473e-12)
(35.9054 1.88186 -6.22714e-12)
(26.5063 1.43512 -1.14087e-11)
(17.4278 0.927128 -2.51741e-11)
(11.3873 0.529317 -2.27899e-11)
(7.07055 0.00696214 -2.10107e-11)
(3.6771 -0.11557 -1.17257e-11)
(1.53881 -0.0869322 -8.88843e-13)
(0.898828 -0.0402632 1.08113e-11)
(0.868547 -0.0250864 6.33015e-12)
(7.97884 0.00468484 -3.40102e-11)
(13.241 0.00637287 -7.56978e-12)
(14.3473 -0.00959652 5.39654e-11)
(9.91798 -0.0115857 3.74344e-11)
(0.891769 -0.0259491 6.82756e-13)
(46.3386 -0.0507738 6.22187e-12)
(51.5275 -0.0995571 4.4203e-12)
(53.0148 -0.0587925 6.98819e-12)
(53.6006 -0.027624 2.43687e-12)
(59.2607 0.0272697 -4.28949e-12)
(57.7191 0.153804 7.46864e-12)
(55.6512 1.17391 2.25557e-13)
(53.8678 2.91405 4.12269e-12)
(50.5188 3.15474 1.22594e-11)
(44.8044 2.15027 1.16916e-11)
(36.2837 1.60304 -6.83538e-12)
(27.6552 1.38072 -2.22359e-12)
(19.1975 0.825878 -4.24867e-14)
(13.6056 0.564476 -2.66714e-11)
(9.05407 0.316792 -2.17181e-11)
(4.77834 -0.0749586 -1.61976e-11)
(2.18102 -0.117731 -7.63361e-12)
(0.994142 -0.0607893 -3.22429e-12)
(0.875334 -0.034753 1.18227e-11)
(0.877975 -0.0235451 6.06883e-12)
(7.96774 0.00509707 -3.30674e-11)
(13.2813 0.00729954 -2.44251e-11)
(14.3957 -0.0101041 3.36894e-11)
(9.86214 -0.0113978 4.7325e-11)
(0.894311 -0.0195914 3.16848e-13)
(46.7581 -0.0409576 6.9669e-12)
(51.3427 -0.112032 3.53256e-12)
(52.5957 -0.0536253 -1.24153e-11)
(53.1737 -0.0310427 -3.54018e-12)
(59.0356 0.0256445 3.15532e-12)
(57.7285 0.103462 -1.10627e-11)
(56.1136 1.24569 -2.46505e-12)
(54.0421 2.47373 2.3488e-11)
(51.1634 2.87871 7.80144e-12)
(45.4729 2.84409 1.66251e-11)
(36.4892 1.73426 1.18548e-11)
(28.4477 1.22185 1.26252e-11)
(20.6406 0.866916 5.7678e-12)
(15.3735 0.510604 -1.99639e-12)
(11.0906 0.351444 -2.75565e-11)
(6.39186 0.129471 -2.08548e-11)
(2.99272 -0.107821 -1.52945e-11)
(1.22977 -0.0860978 -1.72442e-11)
(0.885958 -0.0503225 -4.37e-11)
(0.881952 -0.0313635 -2.9758e-11)
(0.883961 -0.0217087 2.70255e-12)
(7.94961 0.00591461 2.17996e-11)
(13.3245 0.00842273 -4.21596e-11)
(14.4439 -0.00918423 7.52173e-11)
(9.8075 -0.0100413 4.70831e-11)
(0.896139 -0.0147981 3.54889e-14)
(47.2088 -0.0183355 6.85338e-12)
(51.1348 -0.130622 1.08123e-11)
(52.1916 -0.0467485 -1.90608e-11)
(52.7373 -0.0352609 1.79939e-11)
(58.9417 0.0312543 -1.80214e-11)
(57.8215 0.116488 -1.55694e-11)
(56.3542 1.21581 3.32087e-12)
(53.9293 2.07816 -5.51106e-12)
(51.3258 2.52056 2.26836e-11)
(46.1958 2.58903 1.29693e-11)
(37.2334 2.2303 2.86384e-11)
(29.008 1.29416 1.02577e-11)
(21.7574 0.819115 -1.07115e-11)
(16.8978 0.58519 3.28466e-12)
(12.807 0.316065 -1.07961e-12)
(8.12171 0.151382 -2.81726e-11)
(4.22515 0.00875143 -2.22866e-11)
(1.70091 -0.107427 -2.39438e-11)
(0.919952 -0.064221 -5.28119e-11)
(0.88421 -0.0451169 -1.3827e-11)
(0.885949 -0.0289009 1.0442e-13)
(0.888214 -0.019348 2.6747e-12)
(7.92506 0.00774908 -1.57287e-11)
(13.375 0.00922833 -9.84827e-12)
(14.488 -0.00653491 9.26179e-11)
(9.76252 -0.00693576 4.94075e-11)
(0.897438 -0.0107723 -7.62948e-14)
(47.7007 0.0257134 5.20082e-12)
(50.9072 -0.156414 2.02079e-11)
(51.7688 -0.0357548 -1.19576e-11)
(52.2914 -0.0397224 1.3349e-11)
(58.9064 0.0607947 -2.39899e-11)
(57.8377 0.168429 -1.75795e-11)
(56.4101 1.09737 -3.53845e-11)
(53.67 2.19161 -1.26975e-11)
(51.1572 2.17641 1.70978e-11)
(46.5114 2.35436 2.82775e-11)
(38.0487 2.12162 4.35763e-12)
(29.8787 1.64143 1.22331e-11)
(22.5941 0.883187 5.70143e-12)
(18.1339 0.578348 -1.49427e-11)
(14.3493 0.398152 -1.3114e-13)
(9.66347 0.126245 -5.1416e-12)
(5.62175 0.0193503 -2.85143e-11)
(2.57706 -0.0529194 -2.87662e-11)
(1.02594 -0.0825524 -4.54461e-11)
(0.883638 -0.0570746 -4.89193e-11)
(0.886988 -0.0407871 3.09716e-12)
(0.888948 -0.0264608 6.50065e-12)
(0.891655 -0.0172943 6.4243e-12)
(7.88797 0.0102536 2.64123e-11)
(13.4331 0.00770086 -3.55924e-11)
(14.5205 -0.00204875 6.76592e-11)
(9.7379 -0.00258084 5.86392e-11)
(0.898422 -0.00806131 1.91599e-13)
(48.2317 0.100455 -1.88174e-13)
(50.6791 -0.193085 1.94318e-11)
(51.3431 -0.02031 -1.19398e-11)
(51.8375 -0.0447142 -6.94596e-12)
(58.8225 0.0801238 -2.02408e-11)
(57.7751 0.224605 -8.03551e-12)
(56.3919 1.56281 -3.40516e-11)
(53.6522 2.58802 -1.73262e-11)
(50.8564 2.21926 8.40228e-12)
(46.4847 2.11721 4.3937e-11)
(38.5746 1.94878 2.11035e-11)
(30.7938 1.59231 3.29375e-12)
(23.5963 1.14728 6.01994e-12)
(19.0987 0.640054 -4.65877e-12)
(15.6444 0.40602 -2.24298e-11)
(11.1156 0.189392 -1.05247e-11)
(6.93402 -0.00266238 -2.91554e-11)
(3.63757 -0.052141 -3.01704e-11)
(1.44573 -0.0673972 -4.42792e-11)
(0.885422 -0.0684602 -3.85732e-11)
(0.885665 -0.0507054 4.91692e-12)
(0.889226 -0.0369458 1.01021e-11)
(0.891524 -0.0241375 1.45941e-11)
(0.894482 -0.0150601 2.18801e-11)
(7.83703 0.0124501 2.74655e-11)
(13.4932 0.00317785 -3.30098e-11)
(14.5336 0.00451107 2.89683e-11)
(9.7415 0.00379317 9.01334e-11)
(0.899102 -0.00607977 2.99235e-12)
(48.7274 0.223349 3.81435e-13)
(50.4392 -0.236376 8.70559e-12)
(50.9334 -0.00240616 -1.05844e-11)
(51.3857 -0.0482154 -3.05592e-11)
(58.7031 0.0962817 -1.40834e-11)
(57.6706 0.480002 -7.32767e-12)
(56.5698 2.24185 -3.73973e-11)
(53.6556 2.4717 -2.06467e-11)
(50.8182 2.52515 -2.76421e-12)
(46.2933 2.12151 3.71795e-11)
(38.843 1.76349 4.32815e-11)
(31.494 1.4782 1.96087e-11)
(24.6159 1.14294 -3.28928e-12)
(20.1834 0.875031 1.96562e-13)
(16.6892 0.4664 -9.95368e-12)
(12.4083 0.197725 -2.02736e-11)
(8.22305 0.0398293 -2.74799e-11)
(4.69145 -0.0754088 -5.4061e-11)
(2.16583 -0.0785206 -3.49012e-11)
(0.963188 -0.0607252 -6.66564e-11)
(0.878995 -0.0606856 8.58087e-12)
(0.887636 -0.0456757 1.42433e-11)
(0.891253 -0.033344 1.72742e-11)
(0.893767 -0.021727 3.04867e-11)
(0.896585 -0.0130704 1.07186e-11)
(7.78002 0.0137301 -2.97088e-11)
(13.55 -0.00645414 1.78385e-11)
(14.5174 0.0115192 4.17208e-11)
(9.769 0.0123535 1.04411e-10)
(0.899523 -0.00468294 1.41832e-11)
(49.0802 0.367729 1.30571e-13)
(50.0666 -0.274209 1.51371e-12)
(50.5457 0.0110989 -8.94634e-12)
(50.957 -0.049354 -1.06531e-12)
(58.5494 0.100198 -1.04197e-11)
(57.7485 0.811787 -2.8237e-12)
(56.7362 2.24973 -3.39175e-11)
(53.4913 2.43112 -2.18279e-11)
(50.8081 2.45614 -1.16088e-11)
(46.3019 2.33925 1.1428e-11)
(38.9678 1.7392 4.17096e-11)
(31.9999 1.36856 2.77323e-11)
(25.455 1.08503 1.13514e-11)
(21.2668 0.89803 -1.29631e-11)
(17.8316 0.686042 -3.69077e-12)
(13.5091 0.253865 -9.87028e-12)
(9.42734 0.0501604 -2.43491e-11)
(5.77191 -0.0537609 -4.37392e-11)
(2.96123 -0.102535 -5.90933e-11)
(1.2329 -0.0725423 -3.89573e-11)
(0.883187 -0.0572062 1.09721e-11)
(0.883754 -0.0538152 1.83791e-11)
(0.889616 -0.0411893 2.42825e-11)
(0.893128 -0.0298834 2.42388e-11)
(0.895639 -0.0194386 2.27298e-11)
(0.898003 -0.0113341 1.66625e-11)
(7.72871 0.0146512 -3.04871e-11)
(13.6 -0.0256487 2.63177e-11)
(14.4443 0.0170067 4.26684e-11)
(9.81391 0.0242421 1.36692e-11)
(0.899765 -0.00372067 1.24668e-12)
(49.688 -0.283518 3.20391e-12)
(50.1308 0.00477878 -1.24827e-11)
(50.5574 -0.041979 -1.29033e-11)
(58.504 0.0556904 -7.1003e-12)
(57.9055 0.928313 -2.50538e-11)
(56.7397 2.20271 -2.98725e-11)
(53.2467 2.38854 -1.6913e-11)
(50.6559 2.3939 -1.23002e-11)
(46.3426 2.26674 2.0998e-12)
(39.2042 1.87506 2.03127e-11)
(32.3795 1.35812 2.79539e-11)
(26.131 1.02825 2.18233e-11)
(22.1727 0.867709 2.4582e-12)
(18.9567 0.727207 -2.07703e-11)
(14.6902 0.45036 -9.1954e-12)
(10.5023 0.0962893 -2.90473e-11)
(6.82984 -0.0467603 -2.90143e-11)
(3.8067 -0.0975566 -4.8525e-11)
(1.72052 -0.0989544 -3.30212e-11)
(0.925351 -0.063889 1.03174e-11)
(0.88322 -0.0533854 2.14968e-11)
(0.88683 -0.0482862 2.65421e-11)
(0.89155 -0.0369675 4.24944e-11)
(0.894821 -0.0266491 2.1292e-11)
(0.897083 -0.0172986 2.69501e-11)
(0.898893 -0.00982487 1.94248e-11)
(7.69278 0.0135656 -3.68963e-11)
(13.6198 -0.0609223 4.1734e-11)
(14.2707 0.0197891 4.28128e-11)
(9.92357 0.0433618 6.2919e-11)
(0.899897 -0.00304669 -2.00455e-12)
(49.7264 -0.0404128 -8.79083e-12)
(50.1354 -0.0313858 -2.50016e-11)
(58.4852 0.105799 -5.92224e-12)
(57.9693 1.1461 -1.69664e-11)
(56.6892 2.14175 -2.85573e-11)
(52.8997 2.27302 -4.03571e-11)
(50.4416 2.32107 -1.06866e-11)
(46.2764 2.19523 5.51748e-13)
(39.4453 1.82313 1.341e-11)
(32.8103 1.46153 2.38725e-11)
(26.6911 1.0283 1.39698e-11)
(22.9256 0.833068 9.75321e-12)
(19.9036 0.714357 1.70031e-13)
(15.8429 0.499398 -2.50607e-11)
(11.6492 0.254441 -1.73024e-11)
(7.81662 -0.0151632 -2.60089e-11)
(4.67979 -0.0995707 -2.53279e-11)
(2.33102 -0.107943 -3.08394e-11)
(1.05496 -0.0805973 4.56173e-12)
(0.8885 -0.0593316 2.67048e-11)
(0.886016 -0.0497851 2.7898e-11)
(0.889335 -0.0433569 3.27009e-11)
(0.893374 -0.0330447 2.4861e-11)
(0.896241 -0.023674 1.05251e-11)
(0.898113 -0.0153343 3.16937e-11)
(0.899421 -0.00852525 -2.11129e-12)
(7.69672 0.00559881 -1.30422e-11)
(13.5762 -0.117186 2.00151e-12)
(13.9785 0.0221859 5.6689e-11)
(10.1697 0.0712904 1.80862e-10)
(0.899968 -0.00255779 -1.09059e-11)
(49.7275 -0.0230143 5.72048e-13)
(58.442 0.283163 -4.54881e-12)
(58.024 1.32589 -4.16597e-11)
(56.5459 2.04098 -3.9003e-11)
(52.4185 2.12253 -2.55515e-11)
(50.1435 2.18344 -2.26642e-11)
(46.1678 2.11532 -1.28497e-12)
(39.5892 1.76635 6.73715e-12)
(33.2298 1.44287 1.83959e-11)
(27.2682 1.1124 1.82272e-11)
(23.5701 0.839598 2.04311e-12)
(20.7045 0.694613 2.95579e-12)
(16.8332 0.495958 -1.18742e-11)
(12.7735 0.296407 -3.32379e-11)
(8.87317 0.100152 -2.22695e-11)
(5.53159 -0.0846166 -2.52835e-11)
(3.00484 -0.115662 -3.46299e-11)
(1.33933 -0.0945094 -8.82337e-13)
(0.901297 -0.0715605 2.5541e-11)
(0.889624 -0.0546111 3.32486e-11)
(0.888513 -0.0461733 3.03798e-11)
(0.891553 -0.0388363 2.50805e-11)
(0.89498 -0.0294595 2.74138e-11)
(0.89734 -0.0209803 1.81949e-11)
(0.898808 -0.0135558 -2.39042e-13)
(0.89972 -0.00741058 -1.77618e-11)
(7.78806 -0.0139829 1.74782e-12)
(13.4597 -0.191079 1.1517e-11)
(13.5344 0.0391638 6.45056e-11)
(10.4267 0.0888306 6.76927e-11)
(0.900007 -0.00218621 -8.67858e-13)
(58.4476 0.48599 -7.05322e-12)
(58.0455 1.35239 -5.98416e-11)
(56.236 1.94302 -7.55243e-12)
(51.8336 1.97875 -1.1626e-11)
(49.7334 2.02485 -1.82601e-11)
(45.9968 1.9844 -5.81389e-12)
(39.6861 1.71535 3.09392e-12)
(33.5586 1.41094 1.1481e-12)
(27.827 1.11614 1.50727e-11)
(24.2208 0.918523 1.36106e-11)
(21.4036 0.706736 -6.55521e-12)
(17.6921 0.496019 -8.47231e-12)
(13.7728 0.294041 -2.97301e-11)
(9.92375 0.136928 -3.80774e-11)
(6.45539 -0.00853307 -2.88084e-11)
(3.68886 -0.113632 -2.96403e-11)
(1.7863 -0.109658 -3.04618e-11)
(0.949247 -0.0798092 2.21131e-11)
(0.891633 -0.0646036 1.5377e-11)
(0.890652 -0.0507501 3.12538e-11)
(0.890657 -0.042433 2.80985e-11)
(0.893494 -0.0347341 2.16194e-11)
(0.89629 -0.026212 2.63037e-11)
(0.898142 -0.0185662 4.45903e-12)
(0.899261 -0.0119561 -2.00921e-11)
(0.899884 -0.00645223 -2.19895e-11)
(8.09165 -0.0550725 -3.57288e-12)
(13.2789 -0.267216 3.11539e-11)
(12.7117 0.0614216 4.83945e-11)
(10.5767 0.042541 -1.02076e-11)
(0.900025 -0.0018883 -2.95765e-14)
(58.4622 0.580422 1.88125e-12)
(57.9902 1.27718 -5.77679e-11)
(55.7543 1.88476 -9.52352e-12)
(51.1821 1.82614 -2.71656e-11)
(49.2372 1.88287 -1.02617e-11)
(45.734 1.84198 -5.10834e-12)
(39.7272 1.63193 6.49367e-12)
(33.8319 1.38211 8.8783e-12)
(28.3016 1.10465 8.68297e-12)
(24.8488 0.933557 7.1807e-12)
(22.1032 0.783412 9.30193e-12)
(18.4589 0.52024 -1.19554e-11)
(14.6652 0.307695 -2.23899e-11)
(10.8826 0.139795 -4.19654e-11)
(7.39479 0.0210825 -3.2458e-11)
(4.44998 -0.0735888 -4.11017e-11)
(2.29649 -0.11782 -2.46093e-11)
(1.08555 -0.0899566 9.1613e-12)
(0.893089 -0.0730706 2.04318e-11)
(0.892116 -0.0587095 4.87439e-11)
(0.891773 -0.0469405 3.2683e-11)
(0.892582 -0.0386801 2.57246e-11)
(0.895096 -0.0310288 1.76627e-11)
(0.897289 -0.0232877 7.09004e-12)
(0.898705 -0.0164111 7.93371e-12)
(0.899551 -0.0105221 -3.77444e-11)
(0.899968 -0.00562402 -5.48425e-13)
(8.7146 -0.110026 -1.09787e-12)
(12.6667 -0.321906 3.07658e-12)
(11.6842 0.0515808 -7.94335e-12)
(0.900034 -0.00163908 2.31109e-13)
(58.445 0.559902 -4.78649e-11)
(57.8606 1.22105 -6.76437e-11)
(55.1087 1.81724 -2.54962e-11)
(50.45 1.65783 -1.70081e-11)
(48.6814 1.73785 -1.99243e-11)
(45.3966 1.71829 -5.77832e-12)
(39.6893 1.53619 1.04041e-11)
(34.0488 1.32875 1.11198e-11)
(28.7155 1.09416 6.95984e-12)
(25.3939 0.93324 1.03904e-11)
(22.776 0.805742 -1.1598e-12)
(19.219 0.59744 -6.14644e-13)
(15.4773 0.341199 -1.82624e-11)
(11.7615 0.157206 -3.38309e-11)
(8.27653 0.026956 -4.79021e-11)
(5.24742 -0.0543606 -3.21365e-11)
(2.88317 -0.0997121 -3.58848e-11)
(1.3439 -0.103978 1.17954e-13)
(0.904755 -0.0801529 2.48202e-11)
(0.891507 -0.0657586 4.66347e-11)
(0.892625 -0.0536014 3.06632e-11)
(0.89296 -0.0430668 3.24899e-11)
(0.894237 -0.035056 2.14705e-11)
(0.896337 -0.0276873 5.81165e-12)
(0.898019 -0.020662 1.88364e-12)
(0.899097 -0.0144867 -2.43421e-11)
(0.89974 -0.00924207 -2.27912e-12)
(0.900018 -0.00490234 1.58223e-11)
(9.47147 -0.145871 1.02065e-12)
(11.6317 -0.353186 5.2099e-13)
(0.90003 -0.0014251 1.00172e-11)
(58.4086 0.503101 -2.22947e-11)
(57.6378 1.22439 -4.87076e-11)
(54.2951 1.69983 1.04018e-11)
(49.6411 1.50436 -1.37772e-11)
(48.0561 1.58389 -2.07146e-11)
(45.0001 1.59546 -9.88028e-12)
(39.585 1.44935 -3.54494e-12)
(34.1937 1.26419 1.36456e-11)
(29.0727 1.06454 1.05103e-11)
(25.8768 0.932286 7.41797e-12)
(23.3662 0.813014 1.2761e-11)
(19.946 0.628527 -5.12865e-12)
(16.2776 0.414718 -7.87669e-12)
(12.5771 0.190334 -2.38235e-11)
(9.10437 0.042855 -3.75191e-11)
(6.02154 -0.0493856 -3.46576e-11)
(3.51638 -0.0921956 -2.4379e-11)
(1.73785 -0.104374 -6.98349e-12)
(0.950303 -0.0878793 2.4279e-11)
(0.890901 -0.0721911 4.22044e-11)
(0.892106 -0.0598436 2.74488e-11)
(0.893305 -0.0488264 1.41152e-11)
(0.894147 -0.0392566 2.69171e-11)
(0.895565 -0.0316209 6.96055e-12)
(0.897255 -0.024673 -4.81285e-12)
(0.89854 -0.0183038 -3.5127e-11)
(0.899373 -0.0127657 -2.88525e-12)
(0.899859 -0.00809977 1.67423e-11)
(0.900052 -0.00426955 1.075e-11)
(10.1197 -0.103532 3.6641e-13)
(0.90003 -0.00123719 5.22287e-13)
(58.3577 0.474661 -9.69698e-12)
(57.2531 1.25277 -8.19825e-11)
(53.3447 1.55264 -2.39927e-11)
(48.7733 1.35287 -2.7848e-12)
(47.3646 1.44416 -1.26615e-11)
(44.539 1.4673 -2.48243e-11)
(39.4262 1.3625 -1.21414e-11)
(34.2767 1.20482 1.03747e-11)
(29.3633 1.0249 1.34209e-11)
(26.3044 0.914741 6.5317e-12)
(23.8938 0.818373 7.07271e-12)
(20.5907 0.644159 8.29599e-12)
(17.0421 0.445668 -1.34718e-11)
(13.3803 0.252386 -1.28738e-11)
(9.88745 0.0703385 -2.7878e-11)
(6.76738 -0.0373835 -3.07632e-11)
(4.15846 -0.0921783 -2.22436e-11)
(2.20743 -0.104568 -4.9249e-12)
(1.07228 -0.0914507 2.0654e-11)
(0.891799 -0.0796233 3.85291e-11)
(0.891437 -0.0654658 2.57548e-11)
(0.892783 -0.0544604 1.61321e-11)
(0.894103 -0.0442637 2.48012e-11)
(0.895215 -0.0355937 8.43803e-12)
(0.896571 -0.0284037 -6.64939e-12)
(0.897915 -0.0219474 -2.37803e-11)
(0.898914 -0.0161811 -2.80296e-12)
(0.899563 -0.0112222 1.46774e-11)
(0.899939 -0.00707798 9.17153e-12)
(0.90007 -0.00371015 1.70055e-12)
(0.900029 -0.00106969 8.36496e-14)
(58.2687 0.489205 -5.1616e-12)
(56.6613 1.27578 -1.62702e-11)
(52.3079 1.38819 4.12137e-12)
(47.85 1.20442 2.05767e-11)
(46.6194 1.30902 -2.60857e-12)
(44.02 1.3501 -1.5647e-11)
(39.2076 1.27107 -8.7687e-12)
(34.3085 1.14617 5.43738e-12)
(29.5952 0.987702 2.03795e-11)
(26.6688 0.88802 1.25788e-11)
(24.3672 0.808891 1.70407e-16)
(21.174 0.657574 3.27328e-12)
(17.7318 0.463028 -5.87779e-12)
(14.1519 0.277231 -1.84955e-11)
(10.6613 0.119384 -1.57258e-11)
(7.48711 -0.017231 -3.36475e-11)
(4.79672 -0.0861587 -2.05696e-11)
(2.70634 -0.106902 -8.46062e-12)
(1.31001 -0.0990912 1.84845e-11)
(0.901684 -0.0837128 3.65399e-11)
(0.890492 -0.0712679 2.62876e-11)
(0.892081 -0.0595481 2.25803e-11)
(0.893524 -0.0492864 2.11655e-11)
(0.894917 -0.0400017 1.40701e-11)
(0.896097 -0.0321135 -5.42905e-12)
(0.897308 -0.0254148 -1.54269e-11)
(0.89839 -0.0194735 -4.38153e-13)
(0.899181 -0.0142649 1.56637e-11)
(0.899699 -0.00983255 -6.41388e-12)
(0.89999 -0.0061619 -1.34972e-12)
(0.90008 -0.00320923 -2.6555e-13)
(0.900029 -0.00091845 9.99467e-13)
(58.1051 0.541446 8.01438e-12)
(55.7382 1.24838 -6.02116e-12)
(51.1871 1.21477 1.17119e-11)
(46.8687 1.07034 1.40798e-11)
(45.8223 1.17882 8.96498e-12)
(43.4532 1.23898 -2.88454e-12)
(38.9328 1.18688 -1.46593e-11)
(34.2843 1.08455 2.68316e-12)
(29.7777 0.951131 1.43073e-11)
(26.9769 0.862556 1.86587e-11)
(24.7803 0.790974 1.27752e-11)
(21.7062 0.658933 -5.47137e-13)
(18.3656 0.484208 -3.76972e-12)
(14.8644 0.292419 -1.79365e-11)
(11.4102 0.141484 -1.21793e-11)
(8.20408 0.0189323 -1.63058e-11)
(5.42716 -0.0740344 -2.63019e-11)
(3.21736 -0.106345 -8.50575e-12)
(1.64637 -0.10797 4.64492e-12)
(0.943847 -0.0882044 3.08234e-11)
(0.889648 -0.0756257 2.71397e-11)
(0.891258 -0.0645633 2.97607e-11)
(0.892766 -0.0539802 3.31883e-11)
(0.894296 -0.0444493 1.76113e-11)
(0.89565 -0.0360342 -1.6329e-12)
(0.896785 -0.0288377 -9.80972e-12)
(0.897844 -0.0226497 1.83296e-12)
(0.898731 -0.0172213 1.90571e-11)
(0.899375 -0.0125293 -6.78408e-12)
(0.899793 -0.0085773 -4.82663e-12)
(0.900022 -0.00533588 -1.11508e-11)
(0.900085 -0.00275652 -1.47417e-11)
(0.900028 -0.0007807 1.46842e-14)
(57.7704 0.623121 -5.12051e-11)
(54.5224 1.14762 -6.85483e-12)
(49.9701 1.04774 1.65479e-11)
(45.8238 0.957636 1.13968e-11)
(44.9727 1.06245 8.98e-12)
(42.8378 1.13421 -6.51257e-12)
(38.6106 1.10775 -3.09063e-12)
(34.2048 1.02724 1.12722e-12)
(29.906 0.912498 4.15594e-12)
(27.2363 0.837555 1.47144e-11)
(25.1389 0.773633 2.01932e-11)
(22.1817 0.653 5.48832e-12)
(18.9522 0.497572 -3.0719e-12)
(15.5303 0.317742 -1.00901e-11)
(12.113 0.155891 -1.4008e-11)
(8.90514 0.0380228 -7.18309e-12)
(6.06338 -0.0500985 -9.70717e-12)
(3.73835 -0.102577 -7.497e-12)
(2.02752 -0.111021 7.83404e-12)
(1.04466 -0.0949952 4.38325e-11)
(0.891444 -0.0808173 2.8623e-11)
(0.890479 -0.0687228 3.2299e-11)
(0.891951 -0.0585542 4.0684e-11)
(0.893509 -0.0486883 6.77441e-12)
(0.89501 -0.0399832 1.63987e-12)
(0.896263 -0.0323444 -8.22116e-12)
(0.897312 -0.0257753 4.68247e-12)
(0.898236 -0.0200974 1.96107e-11)
(0.89898 -0.0151654 -5.4707e-12)
(0.899513 -0.0109521 -1.8759e-11)
(0.899857 -0.00743867 -1.02549e-11)
(0.900042 -0.00458713 -3.42759e-11)
(0.900089 -0.00234377 -2.86868e-13)
(0.900027 -0.000654407 -7.86178e-13)
(56.9506 0.645167 -3.64879e-11)
(53.0544 0.982153 2.45363e-11)
(48.6444 0.902709 1.47992e-11)
(44.7067 0.86143 2.50772e-11)
(44.0691 0.965743 1.18512e-11)
(42.1754 1.04217 1.93767e-12)
(38.2415 1.0339 -3.03358e-12)
(34.0768 0.973442 2.07328e-12)
(29.9798 0.876004 1.03235e-11)
(27.4413 0.810537 8.64295e-12)
(25.4495 0.7566 1.41819e-11)
(22.6053 0.646885 1.55931e-11)
(19.4857 0.50454 1.07677e-12)
(16.1548 0.339774 -5.71746e-12)
(12.7798 0.179664 -1.16292e-11)
(9.5729 0.0509923 -8.27808e-12)
(6.69443 -0.0355678 -5.45525e-13)
(4.27494 -0.0903923 4.42525e-13)
(2.43244 -0.109916 1.00071e-11)
(1.22422 -0.102032 3.68731e-11)
(0.899426 -0.0867848 2.39594e-11)
(0.890268 -0.072944 3.24372e-11)
(0.891187 -0.0625545 4.22377e-11)
(0.892669 -0.0528256 -3.11842e-12)
(0.894233 -0.0437971 2.01607e-12)
(0.89562 -0.03586 -6.28881e-12)
(0.896758 -0.0289179 -1.12848e-11)
(0.897715 -0.0229251 1.74328e-11)
(0.898527 -0.017744 1.139e-11)
(0.899162 -0.0132842 -2.00158e-11)
(0.899612 -0.00951387 -2.33387e-11)
(0.899902 -0.00640155 -3.21582e-11)
(0.900054 -0.00390295 -7.0467e-13)
(0.900091 -0.00196461 5.50188e-12)
(0.900027 -0.000537424 -6.34759e-12)
(55.4012 0.532436 -1.18916e-12)
(51.3509 0.794664 2.06927e-11)
(47.2064 0.777975 1.97186e-11)
(43.5148 0.77563 -1.56344e-12)
(43.1059 0.884171 2.03343e-11)
(41.469 0.967478 1.00594e-11)
(37.8282 0.970277 3.79894e-12)
(33.9031 0.923577 1.16731e-11)
(30.005 0.841512 5.97047e-12)
(27.5918 0.784422 5.73289e-12)
(25.7054 0.737439 9.42161e-12)
(22.982 0.640654 1.09588e-11)
(19.9703 0.51034 4.65804e-12)
(16.7318 0.356648 -1.6092e-12)
(13.4138 0.203016 -8.34556e-12)
(10.2145 0.0706387 -8.31087e-12)
(7.3056 -0.0251948 -1.8362e-12)
(4.81708 -0.0817601 6.58407e-12)
(2.85679 -0.105437 1.27523e-11)
(1.48723 -0.109176 2.89914e-11)
(0.926607 -0.0919334 2.34257e-11)
(0.890249 -0.0779256 1.87729e-14)
(0.890761 -0.0664614 2.47377e-11)
(0.89185 -0.0566653 1.93632e-12)
(0.893396 -0.0475154 8.55136e-15)
(0.894867 -0.0392869 -4.16853e-12)
(0.89612 -0.0320515 -7.2236e-12)
(0.897155 -0.0257386 2.98373e-11)
(0.898027 -0.0202801 1.30887e-11)
(0.898745 -0.0155744 -1.73805e-11)
(0.899295 -0.011559 -2.68647e-11)
(0.899682 -0.00819735 -4.53127e-11)
(0.899932 -0.00545109 -8.01953e-13)
(0.900061 -0.00327274 2.15475e-11)
(0.900092 -0.00161319 -3.4612e-12)
(0.900026 -0.000427959 -5.69191e-12)
(53.2541 0.387614 8.26951e-12)
(49.4728 0.629279 1.51747e-11)
(45.6791 0.670986 -1.15455e-11)
(42.263 0.699302 -1.10737e-11)
(42.078 0.811007 1.21625e-12)
(40.7181 0.906165 1.34313e-11)
(37.3745 0.920472 1.81379e-11)
(33.6869 0.881461 1.02837e-11)
(29.9853 0.809571 7.12652e-12)
(27.6941 0.759437 5.1876e-12)
(25.9066 0.718308 1.31436e-12)
(23.3031 0.63158 7.96623e-12)
(20.4088 0.514602 5.40093e-12)
(17.2642 0.371845 -2.45264e-12)
(14.009 0.223161 -3.67736e-12)
(10.8325 0.0912441 -1.14636e-11)
(7.90042 -0.0102968 -3.25655e-12)
(5.35292 -0.075182 3.81257e-12)
(3.29552 -0.103017 1.55691e-11)
(1.79771 -0.109691 2.47448e-11)
(0.993218 -0.096517 2.57805e-11)
(0.890462 -0.0832776 3.15161e-12)
(0.890388 -0.0707396 2.05007e-11)
(0.891231 -0.0604018 3.95298e-12)
(0.89255 -0.051061 -2.21239e-13)
(0.894054 -0.0426319 -2.42164e-12)
(0.895395 -0.0351239 -2.08278e-12)
(0.896528 -0.0285313 2.25408e-11)
(0.897476 -0.02279 1.22852e-11)
(0.898269 -0.017829 -1.43965e-11)
(0.898909 -0.0135733 -2.73377e-11)
(0.899393 -0.00997222 -4.29497e-11)
(0.899732 -0.00698645 -8.71826e-13)
(0.899952 -0.00457376 2.31833e-11)
(0.900065 -0.00268778 -2.34559e-12)
(0.900091 -0.00128448 -7.23895e-12)
(0.900026 -0.000324257 -9.02205e-13)
(50.891 0.279855 6.1455e-12)
(47.5277 0.504094 5.23287e-13)
(44.1106 0.583034 -1.09226e-11)
(40.9799 0.632955 -5.21193e-12)
(40.9916 0.744136 -1.22999e-11)
(39.9169 0.851119 -2.46561e-12)
(36.8838 0.881856 6.10017e-12)
(33.4326 0.85007 1.36337e-11)
(29.9239 0.78342 1.22718e-11)
(27.7524 0.736441 5.54514e-12)
(26.0603 0.699737 4.76115e-12)
(23.5693 0.621242 2.70938e-12)
(20.7913 0.51424 4.91284e-12)
(17.7528 0.38178 1.53367e-13)
(14.5667 0.242156 -7.83882e-12)
(11.4217 0.110376 -5.55698e-12)
(8.48049 0.00606708 -1.33244e-11)
(5.88262 -0.0652496 1.95956e-12)
(3.74149 -0.101343 7.93297e-12)
(2.13312 -0.108813 2.38881e-11)
(1.11632 -0.100873 2.73297e-11)
(0.893585 -0.0885276 1.42016e-11)
(0.889831 -0.075002 2.20143e-11)
(0.890674 -0.0642629 2.19785e-11)
(0.89179 -0.0545281 9.59068e-13)
(0.893213 -0.0458685 -6.28823e-13)
(0.89461 -0.0381304 1.39031e-12)
(0.895828 -0.0312781 1.66201e-11)
(0.896864 -0.0252737 8.40528e-12)
(0.897736 -0.0200555 -1.29647e-11)
(0.898459 -0.0155589 -2.70588e-11)
(0.899033 -0.0117246 -3.7787e-11)
(0.899463 -0.00850735 -2.45674e-12)
(0.899767 -0.0058662 2.9274e-11)
(0.899965 -0.00375814 7.85769e-12)
(0.900067 -0.00214042 -1.03617e-11)
(0.90009 -0.00097336 2.26826e-12)
(0.900025 -0.000224837 -3.86019e-12)
(48.5811 0.211879 9.84469e-13)
(45.613 0.416715 -6.96444e-12)
(42.5506 0.513206 2.60441e-12)
(39.6957 0.576204 -9.75998e-13)