/*--------------------------------*- C++ -*----------------------------------*\
| =========                 |                                                 |
| \\      /  F ield         | OpenFOAM: The Open Source CFD Toolbox           |
|  \\    /   O peration     | Version:  1.6.x                                 |
|   \\  /    A nd           | Web:      www.OpenFOAM.org                      |
|    \\/     M anipulation  |                                                 |
\*---------------------------------------------------------------------------*/
FoamFile
{
    version     2.0;
    format      ascii;
    class       volScalarField;
    location    "7000";
    object      volDryCH4;
}
// * * * * * * * * * * * * * * * * * * * * * * * * * * * * * * * * * * * * * //

dimensions      [0 0 0 0 0 0 0];

internalField   nonuniform List<scalar> 
4608
(
0.249598
0.249612
0.24961
0.2424
0.249612
0.249612
0.249612
0.249226
0.238888
0.207473
0.249612
0.249612
0.249612
0.249612
0.249589
0.248696
0.236578
0.204334
0.113537
0.249612
0.249612
0.249612
0.249612
0.24961
0.249534
0.248095
0.234843
0.203767
0.129247
0.00135147
0.0121644
0.249612
0.249612
0.249612
0.249612
0.249603
0.249453
0.24744
0.233048
0.204549
0.136953
0.0471232
0.000140909
7.61091e-06
0.000960013
0.249612
0.249612
0.249612
0.249612
0.24959
0.249339
0.246726
0.231919
0.203002
0.143073
0.0680839
0.00574166
1.58184e-05
1.33067e-06
4.25888e-08
8.54582e-05
0.249612
0.249612
0.249612
0.249612
0.249568
0.249191
0.245988
0.224803
0.207361
0.145596
0.0817807
0.0134446
0.000693238
2.30625e-06
2.0665e-07
1.1051e-08
2.4307e-10
3.55309e-05
0.249612
0.249612
0.249612
0.249612
0.249536
0.249006
0.245073
0.220741
0.208839
0.153589
0.0881129
0.0278739
0.00152936
0.000220686
3.57654e-08
2.19297e-09
8.49069e-11
1.41034e-12
1.46604e-05
0.249612
0.249612
0.249612
0.249612
0.249489
0.248784
0.244156
0.217972
0.206436
0.163
0.097771
0.0366436
0.00314065
0.000472378
7.52367e-05
4.44446e-10
2.06438e-11
6.26236e-13
1.09216e-14
3.73785e-06
0.249612
0.249612
0.249612
0.249612
0.249425
0.248535
0.243242
0.215973
0.20306
0.165661
0.111405
0.0475526
0.00423886
0.000965467
0.000154411
2.2134e-05
4.83815e-12
1.81108e-13
6.27571e-15
1.01969e-16
4.44745e-07
0.249612
0.249612
0.249612
0.249612
0.249344
0.248261
0.242353
0.213755
0.200224
0.165295
0.118366
0.0629389
0.00627653
0.00133577
0.000299132
4.43796e-05
5.19557e-06
4.81628e-14
2.65335e-15
6.86884e-17
9.75109e-19
3.82429e-08
0.249612
0.249612
0.249612
0.249612
0.249244
0.247968
0.241434
0.213634
0.196751
0.164268
0.120992
0.0727325
0.0185452
0.0020712
0.000421452
7.98696e-05
1.2459e-05
5.84669e-07
1.01557e-15
3.84267e-17
7.51869e-19
9.52891e-21
7.36769e-09
0.249612
0.249612
0.249612
0.249612
0.249127
0.247658
0.24058
0.214236
0.196364
0.162263
0.122213
0.0780329
0.02944
0.00639783
0.000665003
0.000111331
2.24974e-05
2.16459e-06
5.15883e-08
1.83996e-17
5.30521e-19
8.25126e-21
9.50145e-23
2.38391e-09
0.249612
0.249612
0.249612
0.249612
0.248992
0.247331
0.236601
0.212861
0.198446
0.161848
0.122062
0.0815591
0.037004
0.0104497
0.00204561
0.000172294
3.1267e-05
5.35162e-06
1.85223e-07
9.61758e-09
3.00107e-19
7.10256e-21
9.09e-23
9.64006e-25
9.32072e-10
0.249612
0.249612
0.249612
0.249612
0.248839
0.246872
0.233275
0.21032
0.197648
0.163802
0.122782
0.0834636
0.0427271
0.0164675
0.0034382
0.00051946
4.6734e-05
8.94362e-06
5.77046e-07
2.39648e-08
3.09432e-09
4.58382e-21
9.32486e-23
1.00409e-24
9.9086e-27
3.74258e-10
0.249612
0.249612
0.249612
0.249612
0.24866
0.246335
0.230448
0.206855
0.195156
0.164402
0.125454
0.085577
0.0466507
0.0216615
0.00571509
0.000913855
0.000131898
1.34804e-05
1.63617e-06
5.25457e-08
6.32214e-09
1.23588e-09
6.69974e-23
1.20696e-24
1.10758e-26
1.02598e-28
1.45189e-10
0.249612
0.249612
0.249612
0.249612
0.248454
0.24574
0.227845
0.203828
0.191552
0.163768
0.127169
0.0891245
0.0502805
0.0260491
0.00816616
0.00157625
0.000242397
3.42839e-05
3.49766e-06
1.30161e-07
1.07786e-08
2.39777e-09
5.13005e-10
9.479e-25
1.53241e-26
1.21404e-28
1.06421e-30
5.32206e-11
0.249612
0.249612
0.249612
0.249612
0.248221
0.245093
0.226216
0.201876
0.188561
0.162141
0.12782
0.0919027
0.0549341
0.0304285
0.012103
0.00241936
0.000428279
6.50205e-05
9.18025e-06
4.00622e-07
1.71707e-08
3.76377e-09
1.02477e-09
2.04854e-10
1.30288e-26
1.89109e-28
1.3189e-30
1.10035e-32
1.8255e-11
0.249612
0.249612
0.249612
0.249612
0.247959
0.244429
0.224989
0.199483
0.186859
0.16056
0.127582
0.0937289
0.0587982
0.0356234
0.0166691
0.00380154
0.000697453
0.000117639
1.80318e-05
1.94753e-06
3.25986e-08
5.10546e-09
1.61376e-09
4.37488e-10
7.62956e-11
1.73843e-28
2.2638e-30
1.41666e-32
1.13047e-34
5.82243e-12
0.249612
0.249612
0.249612
0.249612
0.247672
0.242224
0.22292
0.19665
0.184754
0.159628
0.127217
0.0947455
0.0617419
0.039861
0.0217531
0.00561612
0.00114661
0.00019925
3.36875e-05
4.85661e-06
1.55487e-07
7.07305e-09
2.15528e-09
7.20379e-10
1.7628e-10
2.61584e-11
2.2486e-30
2.62247e-32
1.50373e-34
1.15381e-36
1.71677e-12
0.249612
0.249612
0.249612
0.247263
0.239903
0.2203
0.193453
0.182319
0.158495
0.127257
0.0955175
0.0639182
0.0433523
0.0259981
0.00789683
0.00179234
0.000339623
5.86712e-05
9.50165e-06
8.04264e-07
1.35926e-08
2.74044e-09
1.00016e-09
3.09631e-10
6.53108e-11
8.20069e-12
2.80884e-32
2.91542e-34
1.58338e-36
1.17054e-38
4.65006e-13
0.249612
0.249612
0.246754
0.237663
0.217264
0.190006
0.179577
0.157168
0.127045
0.0965018
0.0657568
0.0461416
0.0298746
0.0100772
0.0026855
0.000557161
0.000102447
1.77598e-05
2.31715e-06
4.78759e-08
3.62307e-09
1.27917e-09
4.5656e-10
1.23242e-10
2.19808e-11
2.33826e-12
3.36234e-34
3.10018e-36
1.6685e-38
1.18014e-40
1.14905e-13
0.249612
0.245557
0.235397
0.213616
0.186194
0.176534
0.155614
0.126604
0.0972114
0.0676631
0.0485592
0.0331201
0.0138214
0.00361484
0.000883666
0.000173331
3.18942e-05
4.94955e-06
2.29647e-07
5.78036e-09
1.56069e-09
6.07995e-10
1.94604e-10
4.45306e-11
6.67498e-12
6.03045e-13
3.8116e-36
3.16386e-38
1.78711e-40
1.18793e-42
2.57156e-14
0.243953
0.232852
0.209246
0.182049
0.173175
0.153756
0.125949
0.0976436
0.0692704
0.0509757
0.0359396
0.0171802
0.00511343
0.00124889
0.000286019
5.51724e-05
9.7535e-06
9.13055e-07
1.33298e-08
1.91384e-09
7.53305e-10
2.74011e-10
7.53963e-11
1.44541e-11
1.81932e-12
1.39852e-13
4.03861e-38
3.1488e-40
1.9652e-42
1.1703e-44
5.17314e-15
0.241997
0.229781
0.204233
0.177667
0.169547
0.15159
0.124999
0.097833
0.0705634
0.053062
0.0386593
0.0201224
0.00667505
0.00181032
0.000423103
9.30281e-05
1.79118e-05
2.46739e-06
5.30509e-08
2.64384e-09
8.87693e-10
3.55146e-10
1.12988e-10
2.61733e-11
4.18687e-12
4.42752e-13
2.89808e-14
3.95122e-40
3.14351e-42
2.24555e-44
9.28298e-16
0.239862
0.225937
0.198732
0.173088
0.165694
0.149148
0.123752
0.0977221
0.0715794
0.0548407
0.0410692
0.0229022
0.00819185
0.00246035
0.000626781
0.00014235
3.10199e-05
5.26038e-06
2.61163e-07
4.72073e-09
1.05545e-09
4.30977e-10
1.54792e-10
4.17914e-11
8.07333e-12
1.07647e-12
9.56738e-14
5.33117e-15
3.58192e-42
3.21355e-44
1.4748e-16
0.237527
0.220998
0.193053
0.168301
0.161648
0.146441
0.122255
0.0973125
0.0722801
0.0563363
0.0432085
0.025471
0.00973445
0.00314767
0.000881104
0.000214829
4.88659e-05
1.00431e-05
9.68026e-07
1.24886e-08
1.34676e-09
5.0623e-10
1.97449e-10
6.07309e-11
1.37085e-11
2.19959e-12
2.4435e-13
1.82507e-14
8.64829e-16
2.94426e-44
2.0592e-17
0.23475
0.214996
0.187049
0.163287
0.157424
0.143489
0.12052
0.0966515
0.0726698
0.0575068
0.0450653
0.0279588
0.0115903
0.00389022
0.00116959
0.000310286
7.49119e-05
1.69524e-05
2.53981e-06
5.22464e-08
2.01919e-09
5.95059e-10
2.39726e-10
8.19026e-11
2.11302e-11
3.95873e-12
5.26495e-13
4.87018e-14
3.05532e-15
1.22902e-16
2.50907e-18
0.23117
0.207917
0.180788
0.158049
0.153001
0.140328
0.118553
0.0957606
0.0727922
0.0583565
0.0465954
0.0302004
0.0140366
0.00477596
0.00149788
0.000425804
0.000110362
2.66926e-05
5.17538e-06
2.51455e-07
4.00053e-09
7.32419e-10
2.83355e-10
1.04338e-10
3.01574e-11
6.46009e-12
1.00051e-12
1.10125e-13
8.47679e-15
4.4621e-16
1.52019e-17
2.65031e-19
0.226193
0.200062
0.174288
0.152562
0.148374
0.136959
0.116382
0.0946439
0.0726733
0.0589266
0.0477981
0.032117
0.0163425
0.00593762
0.00189062
0.000563839
0.00015505
4.00338e-05
9.06447e-06
9.06883e-07
1.0967e-08
1.00635e-09
3.34992e-10
1.27754e-10
4.04917e-11
9.74663e-12
1.72373e-12
2.20089e-13
2.00234e-14
1.28139e-15
5.65162e-17
1.62657e-18
2.41184e-20
0.219091
0.191765
0.167451
0.146796
0.143528
0.133372
0.114019
0.0933212
0.0723255
0.0592431
0.0487096
0.0337028
0.0183651
0.00715101
0.00240262
0.000730414
0.000210068
5.73714e-05
1.44942e-05
2.24035e-06
4.38376e-08
1.62935e-09
4.10078e-10
1.53182e-10
5.18945e-11
1.38003e-11
2.74361e-12
3.99055e-13
4.1917e-14
3.1483e-15
1.67319e-16
6.17313e-18
1.49671e-19
1.88006e-21
0.20897
0.182863
0.160218
0.140735
0.13844
0.129568
0.111464
0.0918056
0.0717677
0.0593298
0.0493552
0.0349901
0.0200902
0.00830751
0.00297786
0.000946091
0.000277929
7.92379e-05
2.15347e-05
4.40775e-06
1.9189e-07
3.29851e-09
5.36966e-10
1.83892e-10
6.44064e-11
1.85743e-11
4.09208e-12
6.68375e-13
7.9716e-14
6.87644e-15
4.25881e-16
1.87746e-17
5.78346e-19
1.17798e-20
1.24887e-22
0.19658
0.17337
0.15262
0.134413
0.133097
0.125542
0.10873
0.090112
0.0710142
0.0592078
0.0497722
0.0360071
0.021545
0.00936964
0.00356559
0.00120129
0.000366188
0.000106606
3.03924e-05
7.41225e-06
6.67746e-07
8.31804e-09
7.76163e-10
2.25996e-10
7.86349e-11
2.40504e-11
5.78664e-12
1.04817e-12
1.40103e-13
1.3669e-14
9.66864e-16
4.93242e-17
1.80129e-18
4.62412e-20
7.89072e-22
7.03604e-24
0.183419
0.163541
0.144787
0.127911
0.127508
0.121286
0.105815
0.0882557
0.0700826
0.0588893
0.0499808
0.0368245
0.0227587
0.0103326
0.00413929
0.00147767
0.00047472
0.000142136
4.15555e-05
1.13283e-05
1.65386e-06
2.75586e-08
1.264e-09
2.89828e-10
9.59996e-11
3.03228e-11
7.83972e-12
1.55598e-12
2.30502e-13
2.51337e-14
2.002e-15
1.15978e-16
4.86828e-18
1.47084e-19
3.14066e-21
4.47826e-23
3.34812e-25
0.170738
0.153752
0.136896
0.121328
0.121726
0.116799
0.102721
0.0862468
0.0689914
0.0583906
0.0499914
0.0374504
0.0238872
0.011206
0.0046896
0.001762
0.000598194
0.000186815
5.59945e-05
1.62203e-05
3.25222e-06
1.06766e-07
2.39331e-09
3.93283e-10
1.18966e-10
3.76942e-11
1.02768e-11
2.20705e-12
3.58649e-13
4.32719e-14
3.83942e-15
2.49309e-16
1.18162e-17
4.07716e-19
1.01778e-20
1.80431e-22
2.14476e-24
1.34052e-26
0.15905
0.144282
0.1291
0.114765
0.115821
0.112095
0.0994431
0.0840898
0.0677617
0.0577305
0.0498175
0.0378813
0.0248777
0.0123668
0.00521731
0.00204785
0.000731246
0.000239557
7.43592e-05
2.2322e-05
5.46203e-06
3.73356e-07
5.3217e-09
5.72363e-10
1.51511e-10
4.6764e-11
1.31648e-11
3.01678e-12
5.32317e-13
7.04315e-14
6.89871e-15
4.97143e-16
2.62849e-17
1.01837e-18
2.88591e-20
5.94481e-22
8.73502e-24
8.63076e-26
4.13218e-28
0.14836
0.135259
0.121509
0.108294
0.109872
0.107209
0.0959772
0.0817793
0.066398
0.0569319
0.0494774
0.0381248
0.025687
0.0135216
0.00586286
0.00233396
0.000870489
0.000298627
9.66273e-05
3.00156e-05
8.27382e-06
9.90507e-07
1.39618e-08
9.05983e-10
2.00104e-10
5.85504e-11
1.66417e-11
4.00662e-12
7.59379e-13
1.09249e-13
1.17197e-14
9.29675e-16
5.43351e-17
2.33717e-18
7.39715e-20
1.72015e-21
2.92066e-23
3.54556e-25
2.66175e-27
3.55388e-30
0.138526
0.126716
0.114179
0.101968
0.103946
0.102192
0.09233
0.0793081
0.0648966
0.0560012
0.0489944
0.0381976
0.0263117
0.0145362
0.00654982
0.00266886
0.00101478
0.000362956
0.000122367
3.94914e-05
1.17966e-05
2.04821e-06
4.54085e-08
1.56487e-09
2.7592e-10
7.46653e-11
2.09576e-11
5.21132e-12
1.04864e-12
1.62605e-13
1.89655e-14
1.64441e-15
1.05454e-16
4.99375e-18
1.74652e-19
4.51314e-21
8.60554e-23
1.19981e-24
1.09139e-26
2.93474e-29
0.129414
0.11864
0.107136
0.0958165
0.0980946
0.0970969
0.0885205
0.0766719
0.0632503
0.0549368
0.0483777
0.038122
0.0267647
0.0153901
0.00720803
0.00303948
0.00118003
0.000432116
0.00015121
5.07059e-05
1.60832e-05
3.61366e-06
1.54901e-07
3.0459e-09
3.96898e-10
9.76501e-11
2.65262e-11
6.69064e-12
1.41103e-12
2.33711e-13
2.94211e-14
2.77056e-15
1.93719e-16
1.00312e-17
3.84659e-19
1.09342e-20
2.30571e-22
3.5884e-24
3.69435e-26
1.29802e-28
0.120919
0.111003
0.100383
0.0898553
0.0923548
0.0919767
0.0845765
0.0738744
0.0614519
0.0537328
0.047628
0.0379106
0.0270671
0.0160907
0.00780947
0.0034178
0.00136714
0.000510751
0.000183034
6.35579e-05
2.11158e-05
5.63471e-06
4.54865e-07
6.61068e-09
6.01437e-10
1.31176e-10
3.4e-11
8.54413e-12
1.86214e-12
3.26229e-13
4.40068e-14
4.47273e-15
3.39062e-16
1.9089e-17
7.97606e-19
2.47589e-20
5.71819e-22
9.78409e-24
1.10869e-25
4.56236e-28
0.11296
0.10377
0.0939158
0.0840903
0.0867499
0.0868743
0.0805308
0.070926
0.0594979
0.0523817
0.0467408
0.0375671
0.0272334
0.0166549
0.00834656
0.00378573
0.00156737
0.000601019
0.00021929
7.8032e-05
2.69309e-05
8.08938e-06
1.05414e-06
1.65142e-08
9.62039e-10
1.81238e-10
4.43332e-11
1.09315e-11
2.4257e-12
4.44677e-13
6.37875e-14
6.9559e-15
5.6857e-16
3.46283e-17
1.56839e-18
5.2861e-20
1.32803e-21
2.47456e-23
3.0427e-25
1.40206e-27
0.105473
0.0969075
0.0877216
0.0785221
0.0812943
0.0818242
0.0764173
0.0678439
0.0573907
0.0508789
0.0457099
0.0370895
0.0272708
0.017097
0.00882102
0.00413454
0.00177213
0.000701099
0.000261223
9.45889e-05
3.35733e-05
1.09563e-05
2.02236e-06
4.84441e-08
1.64498e-09
2.56975e-10
5.89459e-11
1.40954e-11
3.13859e-12
5.95071e-13
9.00273e-14
1.04687e-14
9.18064e-16
6.01936e-17
2.94191e-18
1.07147e-19
2.91257e-21
5.87156e-23
7.76728e-25
3.9179e-27
0.0984053
0.0903845
0.0817863
0.0731464
0.0759947
0.0768512
0.0722675
0.0646496
0.0551376
0.0492243
0.0445304
0.0364731
0.0271796
0.0174248
0.00923619
0.00446129
0.00197568
0.000807797
0.000308794
0.000113808
4.11977e-05
1.42148e-05
3.36775e-06
1.47513e-07
3.07566e-09
3.74183e-10
7.98665e-11
1.83963e-11
4.05724e-12
7.85928e-13
1.24284e-13
1.5312e-14
1.43339e-15
1.0074e-16
5.28981e-18
2.0734e-19
6.07115e-21
1.3175e-22
1.86453e-24
1.01603e-26
0.0917137
0.0841718
0.0760947
0.0679575
0.0708542
0.0719733
0.0681095
0.0613666
0.0527514
0.047422
0.0432007
0.0357131
0.0269571
0.0176407
0.00959318
0.00476526
0.0021751
0.000918042
0.000361124
0.000135935
5.00373e-05
1.78777e-05
5.01658e-06
3.951e-07
6.24214e-09
5.64326e-10
1.10072e-10
2.43537e-11
5.26655e-12
1.02969e-12
1.68571e-13
2.18527e-14
2.17238e-15
1.62956e-16
9.15865e-18
3.84814e-19
1.20916e-20
2.81288e-22
4.24115e-24
2.47591e-26
0.0853605
0.0782439
0.0706312
0.0629482
0.0658715
0.067202
0.0639669
0.0580188
0.0502482
0.0454813
0.041723
0.0348074
0.0266001
0.0177434
0.00989033
0.0050453
0.00236893
0.00103011
0.00041746
0.000160855
6.02792e-05
2.20593e-05
6.92974e-06
8.6811e-07
1.39844e-08
8.83115e-10
1.54298e-10
3.27045e-11
6.89118e-12
1.34476e-12
2.25613e-13
3.05466e-14
3.20728e-15
2.55687e-16
1.53244e-17
6.87899e-19
2.31106e-20
5.74278e-22
9.19439e-24
5.71743e-26
0.0793137
0.0725772
0.0653818
0.0581104
0.0610445
0.0625447
0.0598583
0.0546288
0.0476464
0.043415
0.0401045
0.033757
0.0261063
0.0177305
0.0101242
0.00529901
0.0025558
0.00114296
0.000476852
0.000188346
7.19935e-05
2.68833e-05
9.11285e-06
1.61359e-06
3.58241e-08
1.44372e-09
2.19474e-10
4.45207e-11
9.11073e-12
1.75816e-12
2.99217e-13
4.19767e-14
4.62835e-15
3.90419e-16
2.48623e-17
1.18847e-18
4.25607e-20
1.12584e-21
1.90863e-23
1.25884e-25
0.0735454
0.0671514
0.0603326
0.0534366
0.0563687
0.0580053
0.0557989
0.0512171
0.0449652
0.0412385
0.0383559
0.0325665
0.0254755
0.0175999
0.0102903
0.005523
0.00273391
0.00125567
0.000538598
0.000218084
8.51626e-05
3.24399e-05
1.15883e-05
2.64599e-06
9.81465e-08
2.51395e-09
3.16455e-10
6.12993e-11
1.2183e-11
2.30928e-12
3.94826e-13
5.69122e-14
6.54923e-15
5.819e-16
3.92294e-17
1.99065e-18
7.5765e-20
2.12767e-21
3.80862e-23
2.6554e-25
0.0680316
0.0619475
0.0554709
0.0489194
0.0518397
0.0535858
0.0518003
0.0478013
0.0422238
0.0389693
0.0364904
0.0312439
0.0247111
0.0173511
0.0103846
0.0057132
0.00290087
0.00136708
0.000602092
0.000249784
9.97065e-05
3.87535e-05
1.43746e-05
3.9265e-06
2.51545e-07
4.66143e-09
4.65177e-10
8.51249e-11
1.64703e-11
3.05505e-12
5.2026e-13
7.63977e-14
9.11533e-15
8.4897e-16
6.03671e-17
3.2417e-18
1.30759e-19
3.88803e-21
7.33279e-23
5.38702e-25
0.0627508
0.0569495
0.0507856
0.0445505
0.0474528
0.0492868
0.0478713
0.0443972
0.0394405
0.0366249
0.0345235
0.0298002
0.0238188
0.0169855
0.0104037
0.00586542
0.00305381
0.00147588
0.000666579
0.000283303
0.000115537
4.58225e-05
1.74992e-05
5.41141e-06
5.57432e-07
9.18812e-09
6.99692e-10
1.19091e-10
2.24719e-11
4.07644e-12
6.86783e-13
1.01882e-13
1.25165e-14
1.21574e-15
9.08281e-17
5.14558e-18
2.19368e-19
6.88901e-21
1.36606e-22
1.05497e-24
0.0576853
0.0521425
0.0462654
0.0403223
0.0432023
0.045107
0.0440185
0.0410175
0.0366312
0.0342222
0.0324717
0.0282485
0.0228076
0.0165067
0.0103457
0.00597589
0.00318962
0.00158038
0.000731564
0.000318591
0.000132599
5.36372e-05
2.09989e-05
7.10381e-06
1.05828e-06
2.00549e-08
1.07933e-09
1.67629e-10
3.08822e-11
5.48703e-12
9.10523e-13
1.35404e-13
1.70057e-14
1.71327e-15
1.33945e-16
7.98012e-18
3.58611e-19
1.18653e-20
2.46893e-22
1.99987e-24
0.0528183
0.0475131
0.0418994
0.036227
0.0390826
0.0410452
0.0402479
0.0376737
0.0338113
0.0317777
0.0303512
0.0266035
0.0216876
0.0159207
0.01021
0.00604149
0.00330524
0.00167864
0.0007962
0.000355198
0.000150862
6.21902e-05
2.48999e-05
8.99635e-06
1.78828e-06
4.84243e-08
1.73464e-09
2.36997e-10
4.26496e-11
7.44484e-12
1.21437e-12
1.79852e-13
2.29269e-14
2.38205e-15
1.94053e-16
1.21187e-17
5.72507e-19
1.99108e-20
4.33905e-22
3.67909e-24
0.048135
0.043048
0.0376777
0.0322566
0.0350872
0.0370984
0.0365635
0.0343781
0.0309949
0.0293059
0.0281777
0.0248796
0.0204711
0.0152347
0.00999764
0.00605992
0.00339784
0.00176865
0.000859403
0.00039265
0.000170205
7.14757e-05
2.92154e-05
1.10881e-05
2.73623e-06
1.20173e-07
2.93798e-09
3.37822e-10
5.90417e-11
1.01667e-11
1.63053e-12
2.39318e-13
3.07546e-14
3.27562e-15
2.76802e-16
1.80582e-17
8.94403e-19
3.262e-20
7.43108e-22
6.58328e-24
0.0436214
0.0387358
0.0335897
0.0284028
0.0312106
0.0332641
0.0329678
0.0311399
0.0282005
0.0268224
0.025966
0.0230915
0.0191706
0.0144575
0.00971073
0.00602974
0.00346497
0.0018484
0.000920051
0.00043028
0.000190499
8.14656e-05
3.39426e-05
1.33741e-05
3.86451e-06
2.76301e-07
5.22537e-09
4.88405e-10
8.1853e-11
1.39455e-11
2.20378e-12
3.19584e-13
4.115e-14
4.46581e-15
3.8959e-16
2.64566e-17
1.36997e-18
5.22752e-20
1.24257e-21
1.14815e-23
0.0392646
0.0345639
0.0296253
0.0246572
0.0274459
0.0295391
0.0294627
0.0279655
0.0254423
0.0243518
0.0237319
0.0212532
0.017799
0.0135986
0.00935252
0.00595033
0.00350462
0.00191601
0.00097694
0.000467635
0.000211691
9.21214e-05
3.9079e-05
1.58571e-05
5.14285e-06
5.59889e-07
9.8e-09
7.18456e-10
1.13689e-10
1.91783e-11
2.99573e-12
4.2877e-13
5.50389e-14
6.05021e-15
5.4219e-16
3.81819e-17
2.06107e-18
8.20914e-20
2.03225e-21
1.95528e-23
0.0350516
0.0305208
0.0257732
0.0210116
0.0237868
0.02592
0.0260517
0.0248618
0.0227281
0.0219103
0.0215061
0.0193812
0.0163687
0.0126678
0.00892719
0.00582181
0.00351515
0.00196973
0.00102884
0.000504088
0.00023339
0.000103412
4.46201e-05
1.85542e-05
6.56065e-06
1.00313e-06
2.00278e-08
1.07944e-09
1.58175e-10
2.6409e-11
4.09049e-12
5.7818e-13
7.37194e-14
8.16299e-15
7.47635e-16
5.43815e-17
3.0509e-18
1.26536e-19
3.25637e-21
3.25695e-23
0.0309699
0.0265934
0.022023
0.0174603
0.0202273
0.0224042
0.0227356
0.0218392
0.0200696
0.0195044
0.0193052
0.0175184
0.0148962
0.0116751
0.00843945
0.00564497
0.00349542
0.00200798
0.00107455
0.000538913
0.000255238
0.000115218
5.05594e-05
2.14792e-05
8.10501e-06
1.62952e-06
4.47525e-08
1.67821e-09
2.20437e-10
3.63691e-11
5.60276e-12
7.83455e-13
9.90068e-14
1.09897e-14
1.02348e-15
7.65764e-17
4.45074e-18
1.91743e-19
5.11991e-21
5.3148e-23
0.0270059
0.0227695
0.0183656
0.0140082
0.0167648
0.0189904
0.0195204
0.0189035
0.0174873
0.0171482
0.0171346
0.0156811
0.0134481
0.0106355
0.00789469
0.00542115
0.0034446
0.0020294
0.00111293
0.000571412
0.000276742
0.000127401
5.68628e-05
2.46382e-05
9.76989e-06
2.42513e-06
1.03047e-07
2.72625e-09
3.08854e-10
5.00352e-11
7.68746e-12
1.0661e-12
1.3343e-13
1.47883e-14
1.39359e-15
1.06796e-16
6.40911e-18
2.86071e-19
7.91025e-21
8.5087e-23
0.0231458
0.0190377
0.0148005
0.0106883
0.0134086
0.0156808
0.0164126
0.0160715
0.0149879
0.0148731
0.0150104
0.0138679
0.0120333
0.00966368
0.00730261
0.00515242
0.00336231
0.00203276
0.00114284
0.00060086
0.000297609
0.000139919
6.34817e-05
2.80186e-05
1.15483e-05
3.35797e-06
2.24295e-07
4.61113e-09
4.37199e-10
6.87705e-11
1.05524e-11
1.45548e-12
1.80496e-13
1.99175e-14
1.89067e-15
1.47762e-16
9.12439e-18
4.20819e-19
1.20257e-20
1.33822e-22
0.0193778
0.0153937
0.0113534
0.00761411
0.0101975
0.0124933
0.0134244
0.0133594
0.0126058
0.0126807
0.0129736
0.0121002
0.0106365
0.00874182
0.0067213
0.00484384
0.00324868
0.00201707
0.00116324
0.000626517
0.000317449
0.000152499
7.03815e-05
3.1604e-05
1.34323e-05
4.39726e-06
4.40777e-07
8.1117e-09
6.2694e-10
9.4503e-11
1.44774e-11
1.99148e-12
2.4504e-13
2.68756e-14
2.55977e-15
2.03153e-16
1.28618e-17
6.11198e-19
1.80129e-20
2.07027e-22
0.0156955
0.0118581
0.00812602
0.00513543
0.007253
0.00947468
0.0105929
0.0107907
0.0103661
0.0106254
0.0110198
0.0104399
0.00928828
0.00782727
0.0061557
0.00452303
0.00310563
0.00198162
0.00117314
0.000647641
0.00033582
0.0001649
7.74725e-05
3.53792e-05
1.54264e-05
5.53072e-06
7.76801e-07
1.52068e-08
9.12837e-10
1.29858e-10
1.98407e-11
2.72801e-12
3.33703e-13
3.63539e-14
3.46315e-15
2.77973e-16
1.79773e-17
8.77647e-19
2.66164e-20
3.15418e-22
0.0121169
0.00852324
0.00544571
0.00349605
0.00493156
0.00675443
0.00798234
0.00843261
0.00830336
0.00873414
0.00922223
0.00886149
0.00808867
0.00692972
0.00558762
0.00419924
0.00294528
0.00192668
0.00117169
0.000663491
0.000352261
0.000176839
8.46509e-05
3.93171e-05
1.75332e-05
6.74196e-06
1.25468e-06
3.08729e-08
1.36172e-09
1.78405e-10
2.7146e-11
3.73785e-12
4.55547e-13
4.93073e-14
4.68704e-15
3.79067e-16
2.49503e-17
1.24759e-18
3.88447e-20
4.73799e-22
0.00872965
0.00569756
0.00366267
0.00240377
0.00338297
0.00466197
0.0057479
0.0063673
0.00652982
0.00704723
0.00760632
0.00748368
0.00695425
0.0061033
0.00501924
0.00386692
0.00277478
0.00185698
0.0011585
0.000673378
0.000366306
0.000188052
9.18392e-05
4.33776e-05
1.97517e-05
8.02117e-06
1.86882e-06
6.6348e-08
2.10215e-09
2.45563e-10
3.70584e-11
5.11835e-12
6.22899e-13
6.70513e-14
6.35067e-15
5.15838e-16
3.44304e-17
1.75786e-18
5.60569e-20
7.02462e-22
0.00583172
0.00379527
0.00249946
0.00166693
0.00233925
0.00323841
0.00409189
0.00471877
0.00504136
0.00559784
0.006189
0.00624262
0.00593701
0.00531786
0.00447815
0.0035265
0.00259373
0.00177658
0.00113505
0.000676792
0.00037749
0.000198301
9.89153e-05
4.75202e-05
2.20646e-05
9.35853e-06
2.59549e-06
1.40226e-07
3.36611e-09
3.39918e-10
5.04734e-11
6.99969e-12
8.52403e-13
9.13886e-14
8.61868e-15
7.01236e-16
4.73009e-17
2.458e-18
8.00804e-20
1.02902e-21
0.00386552
0.00257522
0.0017235
0.00116562
0.00162955
0.00226186
0.00290678
0.00345085
0.0038228
0.00436884
0.0049604
0.00513945
0.00501293
0.00459617
0.00395694
0.00319121
0.00240246
0.00168646
0.0011032
0.000673958
0.000385395
0.000207311
0.000105701
5.16907e-05
2.44517e-05
1.07431e-05
3.4031e-06
2.75967e-07
5.55255e-09
4.74737e-10
6.86272e-11
9.55446e-12
1.16659e-12
1.24776e-13
1.17181e-14
9.53091e-16
6.47683e-17
3.41491e-18
1.13369e-19
1.49084e-21
0.00261522
0.00176841
0.00119965
0.000822281
0.00114374
0.00158856
0.00206645
0.002506
0.0028572
0.00334997
0.00390873
0.0041706
0.00418002
0.00393167
0.0034664
0.00286155
0.00220705
0.00158702
0.00106378
0.000665522
0.000389883
0.000214802
0.000112026
5.58149e-05
2.68891e-05
1.21674e-05
4.27422e-06
4.93647e-07
9.51645e-09
6.69853e-10
9.32037e-11
1.30127e-11
1.59555e-12
1.70575e-13
1.59604e-14
1.296e-15
8.8484e-17
4.71906e-18
1.59216e-19
2.13828e-21
0.00179215
0.00122683
0.000843031
0.000585886
0.000809385
0.00112251
0.00147254
0.0018141
0.00211479
0.00253119
0.00302714
0.00333018
0.00343765
0.00332349
0.00300677
0.00254333
0.00200956
0.00148089
0.00101713
0.000651902
0.000391055
0.000220587
0.000117705
5.98114e-05
2.93471e-05
1.36272e-05
5.1937e-06
8.11118e-07
1.73114e-08
9.58711e-10
1.26419e-10
1.76802e-11
2.17955e-12
2.33314e-13
2.1775e-14
1.76378e-15
1.20715e-16
6.49326e-18
2.22048e-19
3.03898e-21
0.00124126
0.000859752
0.00059869
0.000422454
0.000578224
0.000798746
0.00105319
0.00131246
0.00155621
0.00189246
0.00230963
0.00261508
0.0027841
0.00277249
0.0025787
0.00223878
0.00181348
0.0013698
0.000964336
0.000633281
0.000389029
0.000224597
0.000122591
6.36085e-05
3.17906e-05
1.51157e-05
6.14702e-06
1.23647e-06
3.37995e-08
1.40381e-09
1.71319e-10
2.39559e-11
2.97222e-12
3.19108e-13
2.97452e-14
2.40325e-15
1.64567e-16
8.90463e-18
3.07819e-19
4.28367e-21
0.00086867
0.00060912
0.000430455
0.000309112
0.000417846
0.000573133
0.000757081
0.00095089
0.00114197
0.00140537
0.00174252
0.00202303
0.00221895
0.00227939
0.00218387
0.00194947
0.0016211
0.0012558
0.000906409
0.000610061
0.000383857
0.000226811
0.000126609
6.71299e-05
3.4182e-05
1.66212e-05
7.12302e-06
1.75759e-06
6.84252e-08
2.12007e-09
2.32483e-10
3.23611e-11
4.04447e-12
4.36179e-13
4.06662e-14
3.27839e-15
2.2434e-16
1.21806e-17
4.24554e-19
5.99391e-21
0.00061472
0.000437046
0.000314184
0.00023031
0.000306279
0.000415521
0.000547877
0.000691196
0.00083773
0.00103983
0.00130471
0.00154658
0.00174252
0.00184556
0.00182408
0.00167724
0.00143411
0.0011406
0.000844467
0.000582709
0.000375642
0.000227199
0.000129702
7.02832e-05
3.64805e-05
1.81238e-05
8.11136e-06
2.35129e-06
1.3521e-07
3.29654e-09
3.16927e-10
4.35949e-11
5.48958e-12
5.95511e-13
5.56152e-14
4.47692e-15
3.05913e-16
1.66339e-17
5.83057e-19
8.33253e-21
0.000440608
0.00031841
0.000233593
0.000175384
0.0002285
0.000305208
0.000399987
0.000505091
0.000615754
0.000768574
0.000972558
0.00117234
0.00135168
0.00147272
0.00150154
0.00142422
0.00125421
0.00102561
0.000779588
0.000551763
0.000364548
0.000225759
0.000131818
7.30048e-05
3.86402e-05
1.96013e-05
9.09896e-06
2.99259e-06
2.50246e-07
5.24589e-09
4.34925e-10
5.86034e-11
7.43062e-12
8.11723e-13
7.60468e-14
6.11854e-15
4.17364e-16
2.26902e-17
7.98064e-19
1.1517e-20
0.000320709
0.00023635
0.000177572
0.000136957
0.000174157
0.000227881
0.0002954
0.000371927
0.000454553
0.000568887
0.0007237
0.000883829
0.00103883
0.00116058
0.00121867
0.00119275
0.00108332
0.000912169
0.00071274
0.000517806
0.000350785
0.000222508
0.000132916
7.52417e-05
4.06201e-05
2.10308e-05
1.00761e-05
3.66613e-06
4.26581e-07
8.60615e-09
6.0143e-10
7.86396e-11
1.00297e-11
1.10423e-12
1.03917e-13
8.3662e-15
5.69757e-16
3.09329e-17
1.08943e-18
1.58415e-20
0.000237856
0.000179413
0.000138474
0.000109887
0.000136057
0.000173596
0.000221413
0.00027676
0.000337892
0.000422735
0.000538949
0.000664532
0.000793324
0.000905593
0.000976716
0.000985341
0.000923513
0.000801766
0.000644841
0.000481398
0.000334616
0.000217499
0.000132963
7.6949e-05
4.2384e-05
2.23905e-05
1.10352e-05
4.35676e-06
6.76555e-07
1.48119e-08
8.40931e-10
1.05322e-10
1.34993e-11
1.49871e-12
1.41845e-13
1.14408e-14
7.78225e-16
4.21599e-17
1.48414e-18
2.16988e-20
0.000180421
0.000139741
0.00011099
9.05763e-05
0.000109172
0.000135387
0.000169049
0.000208813
0.000253693
0.000316242
0.000402728
0.000499599
0.000603635
0.000701561
0.000774728
0.000803879
0.000777016
0.000696021
0.000576929
0.000443104
0.000316318
0.000210821
0.000131951
7.80777e-05
4.38993e-05
2.36595e-05
1.19688e-05
5.05066e-06
1.00379e-06
2.71115e-08
1.19719e-09
1.40831e-10
1.81132e-11
2.02905e-12
1.93331e-13
1.56408e-14
1.0634e-15
5.74614e-17
2.01886e-18
2.96177e-20
0.000140434
0.000111898
9.14192e-05
7.65105e-05
8.99704e-05
0.000108353
0.000131934
0.000160325
0.000193046
0.000238908
0.000302808
0.000376554
0.00045882
0.000541017
0.000609666
0.000648875
0.000645765
0.000596695
0.000510143
0.000403564
0.000296189
0.000202579
0.00012989
7.86102e-05
4.51477e-05
2.48177e-05
1.2868e-05
5.73757e-06
1.39793e-06
5.1578e-08
1.74828e-09
1.88324e-10
2.42254e-11
2.73959e-12
2.63029e-13
2.13684e-14
1.45333e-15
7.83257e-17
2.74341e-18
4.03103e-20
0.00011239
9.20973e-05
7.71834e-05
6.59568e-05
7.59792e-05
8.90309e-05
0.000105529
0.000125702
0.000149422
0.000182895
0.000229816
0.000285336
0.000349299
0.000416371
0.000477164
0.000519319
0.000530907
0.000505447
0.00044574
0.000363502
0.000274579
0.000192908
0.000126804
7.85326e-05
4.60934e-05
2.58481e-05
1.37201e-05
6.40861e-06
1.84035e-06
9.71093e-08
2.61789e-09
2.52477e-10
3.23022e-11
3.68806e-12
3.57103e-13
2.91629e-14
1.98603e-15
1.06781e-16
3.72547e-18
5.47363e-20
9.24612e-05
7.77118e-05
6.65111e-05
5.77486e-05
6.54869e-05
7.49778e-05
8.65921e-05
0.000100909
0.00011804
0.000142393
0.000176658
0.000218045
0.000267078
0.000320616
0.000372344
0.000413043
0.000432582
0.000423542
0.000384983
0.000323739
0.000251905
0.000181973
0.000122736
7.78381e-05
4.67105e-05
2.6731e-05
1.45123e-05
7.05468e-06
2.31037e-06
1.74042e-07
3.9938e-09
3.39929e-10
4.29636e-11
4.94993e-12
4.83678e-13
3.9746e-14
2.71294e-15
1.45583e-16
5.05692e-18
7.41897e-20
7.79917e-05
6.6937e-05
5.82122e-05
5.11274e-05
5.73358e-05
6.44872e-05
7.28095e-05
8.30281e-05
9.54044e-05
0.000113109
0.000138026
0.000168596
0.000205714
0.000247682
0.000290398
0.000327225
0.00035003
0.00035163
0.000328965
0.000285141
0.000228653
0.000169985
0.000117749
7.65279e-05
4.69802e-05
2.74482e-05
1.52326e-05
7.66688e-06
2.79352e-06
2.91187e-07
6.21236e-09
4.59907e-10
5.70195e-11
6.62362e-12
6.53448e-13
5.40782e-14
3.70325e-15
1.98472e-16
6.86246e-18
1.00416e-19
6.71598e-05
5.85634e-05
5.15164e-05
4.5621e-05
5.07709e-05
5.63925e-05
6.25462e-05
6.99579e-05
7.89629e-05
9.18802e-05
0.000109962
0.000132354
0.000160131
0.000192513
0.000226955
0.000258828
0.000281874
0.000289745
0.000278453
0.000248528
0.000205363
0.000157204
0.000111934
7.46165e-05
4.68905e-05
2.79837e-05
1.58699e-05
8.24024e-06
3.27782e-06
4.55779e-07
9.96837e-09
6.26322e-10
7.54991e-11
8.8368e-12
8.80437e-13
7.34354e-14
5.04991e-15
2.70502e-16
9.31091e-18
1.35771e-19
5.87455e-05
5.18092e-05
4.59464e-05
4.0945e-05
4.53192e-05
4.99202e-05
5.4668e-05
6.0197e-05
6.68582e-05
7.63784e-05
8.95278e-05
0.000105822
0.000126383
0.000151009
0.000178222
0.000204904
0.000226396
0.000237423
0.000233837