/*--------------------------------*- C++ -*----------------------------------*\
| =========                 |                                                 |
| \\      /  F ield         | OpenFOAM: The Open Source CFD Toolbox           |
|  \\    /   O peration     | Version:  1.6.x                                 |
|   \\  /    A nd           | Web:      www.OpenFOAM.org                      |
|    \\/     M anipulation  |                                                 |
\*---------------------------------------------------------------------------*/
FoamFile
{
    version     2.0;
    format      ascii;
    class       volScalarField;
    location    "7000";
    object      volDryH2O;
}
// * * * * * * * * * * * * * * * * * * * * * * * * * * * * * * * * * * * * * //

dimensions      [0 0 0 0 0 0 0];

internalField   nonuniform List<scalar> 
4608
(
1.56317e-05
3.21117e-08
2.30521e-06
0.00831729
6.61477e-11
5.41287e-09
2.26481e-07
0.000445489
0.0144276
0.0485788
1.35402e-13
1.18076e-11
5.6778e-10
2.64888e-08
2.75082e-05
0.00116561
0.0195501
0.0719109
0.144628
2.75123e-16
2.42797e-14
1.30186e-12
8.50825e-11
2.6098e-06
9.65286e-05
0.00208492
0.0239852
0.083872
0.163025
0.171491
0.189685
5.54727e-19
4.80272e-17
2.81378e-15
2.30874e-13
1.13347e-05
0.000208706
0.00318368
0.0286335
0.0877329
0.171581
0.204368
0.170783
0.170508
0.162113
1.10931e-21
9.25264e-20
5.84227e-18
5.7637e-16
2.85446e-05
0.000377647
0.00447236
0.031992
0.0930466
0.17395
0.207872
0.186085
0.170317
0.170495
0.17049
0.113824
2.19883e-24
1.75152e-22
1.18247e-20
1.37647e-18
5.86895e-05
0.000611253
0.00588222
0.0606199
0.086333
0.176236
0.207489
0.213557
0.120421
0.16973
0.170488
0.17049
0.17049
0.0540715
4.31688e-27
3.28072e-25
2.3606e-23
3.21654e-21
0.00010685
0.000916234
0.00839049
0.078184
0.0931753
0.16997
0.207498
0.217133
0.13994
0.0716008
0.170482
0.17049
0.17049
0.17049
0.0253903
8.38553e-30
6.11141e-28
4.6932e-26
7.42861e-24
0.000178711
0.001344
0.0112282
0.0897962
0.105683
0.16396
0.20458
0.21763
0.163806
0.0905118
0.0434479
0.17049
0.17049
0.17049
0.17049
0.00676019
1.60929e-32
1.136e-30
9.36883e-29
1.71075e-26
0.000283805
0.00188769
0.0141984
0.0974045
0.117291
0.16648
0.199662
0.217381
0.183417
0.113461
0.060723
0.0190366
0.17049
0.17049
0.17049
0.17049
0.000790884
3.04533e-35
2.11114e-33
1.8906e-31
3.96315e-29
0.000429923
0.00253833
0.0171482
0.104018
0.125703
0.17119
0.198476
0.21498
0.206939
0.133181
0.0810385
0.0314499
0.0050635
0.17049
0.17049
0.17049
0.17049
6.6178e-05
5.66711e-38
3.92627e-36
3.87828e-34
9.29162e-32
0.000623558
0.00327727
0.0201565
0.103912
0.13348
0.175098
0.199037
0.213337
0.217342
0.157401
0.100076
0.0468229
0.011636
0.000592271
0.17049
0.17049
0.17049
0.17049
1.23442e-05
1.03334e-40
7.31014e-39
8.12547e-37
2.21345e-34
0.00086777
0.00410112
0.0229299
0.102986
0.134181
0.178818
0.199672
0.212495
0.219429
0.185106
0.122701
0.0629079
0.0215092
0.00210115
5.56807e-05
0.17049
0.17049
0.17049
0.17049
3.87481e-06
1.83683e-43
1.363e-41
1.74681e-39
5.36796e-37
0.00116508
0.0049894
0.0382406
0.10776
0.130872
0.179651
0.200475
0.211969
0.219133
0.204723
0.152855
0.0817133
0.033834
0.00572671
0.000184335
1.11333e-05
0.17049
0.17049
0.17049
0.17049
1.4717e-06
3.15885e-46
2.55044e-44
3.87737e-42
1.32884e-39
0.00151652
0.00645819
0.0510378
0.115105
0.133554
0.17761
0.200421
0.211743
0.218837
0.210814
0.177668
0.108912
0.0488893
0.0129337
0.000612474
2.49817e-05
3.76145e-06
0.17049
0.17049
0.17049
0.17049
5.74145e-07
5.19379e-49
4.81296e-47
8.94855e-45
3.37437e-42
0.0019655
0.00827218
0.061712
0.123808
0.139255
0.177486
0.199157
0.211287
0.218464
0.215163
0.193981
0.132611
0.0705833
0.0237036
0.00231379
5.5683e-05
6.92108e-06
1.54729e-06
0.17049
0.17049
0.17049
0.17049
2.16484e-07
8.00275e-52
9.20098e-50
2.16592e-47
8.81307e-45
0.00252453
0.0103259
0.0710499
0.13044
0.1463
0.178607
0.19845
0.210287
0.217818
0.216715
0.206728
0.151277
0.090876
0.0398729
0.00684616
0.000171155
1.16308e-05
2.72794e-06
6.53543e-07
0.17049
0.17049
0.17049
0.17049
7.72163e-08
1.1363e-54
1.8058e-52
5.55735e-50
2.36743e-47
0.00319641
0.0125744
0.0765237
0.13412
0.15152
0.180478
0.198315
0.209525
0.216954
0.216826
0.211579
0.167673
0.108063
0.0560753
0.0173517
0.000731321
2.08898e-05
4.16339e-06
1.19971e-06
2.63506e-07
0.17049
0.17049
0.17049
0.17049
2.58221e-08
1.46924e-57
3.73575e-55
1.50963e-52
6.53533e-50
0.00398075
0.0148718
0.0804092
0.13847
0.154133
0.181915
0.198589
0.209046
0.216348
0.216946
0.213107
0.179787
0.124437
0.0708212
0.0296885
0.00400587
5.18983e-05
5.99649e-06
1.827e-06
5.23238e-07
9.85696e-08
0.17049
0.17049
0.17049
0.17049
8.0506e-09
1.71732e-60
8.43668e-58
4.30271e-55
1.8486e-52
0.00486434
0.0232856
0.0867514
0.14341
0.156957
0.182473
0.198823
0.208794
0.215795
0.217348
0.214817
0.189518
0.1383
0.0852592
0.0417098
0.0111314
0.00030949
9.85788e-06
2.5109e-06
8.322e-07
2.14214e-07
3.3821e-08
0.17049
0.17049
0.17049
0.17049
2.32728e-09
2.19808e-60
1.26148e-57
5.33711e-55
0.00624603
0.0321273
0.0943837
0.148642
0.160096
0.183108
0.198762
0.208586
0.215318
0.217122
0.216681
0.19941
0.150805
0.0985125
0.0536193
0.0199557
0.0018691
2.38708e-05
3.54441e-06
1.16797e-06
3.63886e-07
8.02909e-08
1.0586e-08
0.17049
0.17049
0.17049
0.17049
6.19932e-10
3.73404e-60
1.56711e-57
0.00804121
0.0405543
0.102574
0.153477
0.163508
0.183869
0.19877
0.208287
0.214904
0.216761
0.216919
0.207806
0.163934
0.111213
0.0651468
0.0294419
0.00571149
0.000105194
5.51434e-06
1.59368e-06
5.36669e-07
1.46921e-07
2.72432e-08
3.00936e-09
0.17049
0.17049
0.17049
0.17049
1.51094e-10
4.64685e-60
0.0125674
0.0488879
0.111645
0.15823
0.166856
0.184811
0.198857
0.208055
0.214504
0.216467
0.216811
0.210059
0.175534
0.124887
0.0764795
0.0389309
0.0119694
0.00055943
1.08286e-05
2.17072e-06
7.43497e-07
2.3061e-07
5.37063e-08
8.31807e-09
7.73266e-10
0.17049
0.17049
0.17049
0.17049
3.34397e-11
0.0187002
0.0578955
0.12156
0.162986
0.170188
0.185914
0.199036
0.207885
0.214178
0.216256
0.216764
0.211411
0.184027
0.137259
0.0889131
0.0483738
0.0192238
0.00230255
2.98494e-05
3.07968e-06
9.93478e-07
3.32282e-07
9.00954e-08
1.75932e-08
2.27479e-09
1.78631e-10
0.17049
0.17049
0.17049
0.17049
6.66726e-12
0.0261849
0.0682466
0.13182
0.167628
0.173534
0.187146
0.199338
0.207776
0.213877
0.216089
0.21685
0.212706
0.190907
0.147747
0.100713
0.058705
0.0268209
0.00592104
0.000130774
5.02191e-06
1.29832e-06
4.53405e-07
1.36677e-07
3.15219e-08
5.13222e-09
5.54616e-10
3.68778e-11
0.17049
0.17049
0.17049
1.18796e-12
0.034273
0.080398
0.141732
0.171946
0.176857
0.188487
0.199748
0.207748
0.213601
0.215826
0.216919
0.214122
0.196915
0.156944
0.11126
0.0689215
0.0350704
0.0111054
0.000632293
1.04222e-05
1.75008e-06
5.93068e-07
1.9378e-07
5.0597e-08
9.79081e-09
1.32649e-09
1.19941e-10
6.76039e-12
0.17049
0.17049
1.87677e-13
0.0429355
0.0947363
0.150238
0.176013
0.180022
0.189939
0.200251
0.207807
0.213384
0.215535
0.216741
0.215181
0.20252
0.165284
0.120932
0.0785306
0.0434092
0.0173099
0.0021739
2.93294e-05
2.55158e-06
7.65804e-07
2.60911e-07
7.5178e-08
1.66402e-08
2.68326e-09
3.02255e-10
2.28817e-11
1.09331e-12
0.17049
2.60882e-14
0.0528748
0.110151
0.158051
0.179894
0.18304
0.191453
0.200843
0.207944
0.213245
0.215291
0.216481
0.21544
0.206514
0.173191
0.129966
0.087652
0.0515966
0.0239164
0.00527452
0.000118217
4.25012e-06
1.00121e-06
3.40196e-07
1.05349e-07
2.60057e-08
4.8214e-09
6.45359e-10
6.0405e-11
3.82925e-12
1.54959e-13
3.16757e-15
0.0649494
0.125922
0.165199
0.183577
0.185954
0.192997
0.201516
0.208156
0.213185
0.215127
0.216257
0.215483
0.208121
0.180045
0.138698
0.0964524
0.0595848
0.030556
0.00972905
0.000531318
8.74863e-06
1.36285e-06
4.37342e-07
1.41522e-07
3.81194e-08
7.93184e-09
1.22276e-09
1.35505e-10
1.05329e-11
5.58903e-13
1.91239e-14
3.33653e-16
0.0803972
0.140424
0.171626
0.187087
0.188764
0.194571
0.202247
0.208435
0.213199
0.215046
0.216114
0.215532
0.20926
0.185509
0.146688
0.10513
0.0674269
0.0371406
0.014761
0.00179478
2.33326e-05
2.01249e-06
5.64164e-07
1.84973e-07
5.32134e-08
1.21869e-08
2.11574e-09
2.69851e-10
2.47115e-11
1.59407e-12
7.07398e-14
2.04231e-15
3.0295e-17
0.0998852
0.152742
0.17753
0.190452
0.191479
0.196173
0.203032
0.208766
0.213261
0.215039
0.216056
0.215648
0.210299
0.190187
0.153795
0.113259
0.0752349
0.0437553
0.0200159
0.00421378
8.79677e-05
3.34438e-06
7.4575e-07
2.38434e-07
7.16819e-08
1.77478e-08
3.40871e-09
4.902e-10
5.15416e-11
3.89419e-12
2.08296e-13
7.72107e-15
1.87628e-16
2.3573e-18
0.12308
0.163659
0.18299
0.19366
0.194117
0.197797
0.203861
0.209143
0.213351
0.215046
0.21607
0.215833
0.211305
0.194302
0.160247
0.120763
0.0827796
0.0504327
0.0253797
0.0076581
0.000365599
6.64736e-06
1.02829e-06
3.07434e-07
9.42784e-08
2.47981e-08
5.18716e-09
8.27544e-10
9.80552e-11
8.47579e-12
5.27666e-13
2.33817e-14
7.22858e-16
1.47476e-17
1.56362e-19
0.145188
0.173267
0.18797
0.196665
0.196668
0.199437
0.204732
0.209558
0.213472
0.215051
0.216058
0.216063
0.212281
0.197939
0.166122
0.1278
0.0899919
0.0570207
0.0307991
0.0116387
0.00120087
1.60977e-05
1.51481e-06
4.01267e-07
1.22437e-07
3.35979e-08
7.54167e-09
1.31629e-09
1.73193e-10
1.68394e-11
1.19411e-12
6.1188e-14
2.24373e-15
5.77575e-17
9.86787e-19
8.79903e-21
0.162929
0.181407
0.192391
0.199425
0.199104
0.201091
0.20564
0.210012
0.21362
0.215065
0.216014
0.216139
0.213188
0.201152
0.17145
0.13439
0.0969238
0.0634555
0.0362519
0.0158941
0.00284847
5.0411e-05
2.44312e-06
5.3556e-07
1.58559e-07
4.45684e-08
1.05789e-08
1.99427e-09
2.87769e-10
3.10556e-11
2.47003e-12
1.43464e-13
6.04456e-15
1.83219e-16
3.9205e-18
5.59527e-20
4.18306e-22
0.175857
0.188008
0.196213
0.201917
0.201393
0.202739
0.206585
0.210501
0.213802
0.215101
0.215961
0.216101
0.213614
0.203927
0.176262
0.14052
0.103558
0.0697466
0.0417051
0.0202755
0.00537896
0.000186121
4.46809e-06
7.38642e-07
2.06353e-07
5.83939e-08
1.44407e-08
2.90422e-09
4.54468e-10
5.38328e-11
4.74489e-12
3.08014e-13
1.46348e-14
5.06545e-16
1.26777e-17
2.25114e-19
2.67772e-21
1.67351e-23
0.184934
0.193229
0.199471
0.204147
0.203504
0.204358
0.20756
0.211026
0.214016
0.215169
0.215928
0.216025
0.213761
0.205333
0.180537
0.146188
0.109858
0.0758745
0.0471247
0.0246832
0.00848209
0.000627699
9.50598e-06
1.06685e-06
2.71681e-07
7.61188e-08
1.93347e-08
4.09728e-09
6.88019e-10
8.85723e-11
8.56535e-12
6.147e-13
3.25133e-14
1.26253e-15
3.58699e-17
7.40422e-19
1.08932e-20
1.07686e-22
5.15586e-25
0.19139
0.19736
0.202244
0.206139
0.205439
0.205926
0.208556
0.211583
0.214263
0.215268
0.215924
0.215953
0.213817
0.20615
0.183961
0.151354
0.115793
0.081805
0.0524905
0.0291088
0.0118531
0.00161077
2.39173e-05
1.64726e-06
3.63902e-07
9.93194e-08
2.55654e-08
5.64018e-09
1.00573e-09
1.39436e-10
1.46651e-11
1.15311e-12
6.72273e-14
2.8939e-15
9.17754e-17
2.13867e-18
3.63721e-20
4.41983e-22
3.31969e-24
4.43403e-27
0.196163
0.200685
0.204624
0.207927
0.207202
0.207426
0.209562
0.212174
0.214541
0.215399
0.21595
0.215909
0.213856
0.206775
0.186765
0.155919
0.121313
0.0875283
0.0577743
0.0335738
0.0153624
0.00326266
7.48087e-05
2.75132e-06
4.99813e-07
1.30332e-07
3.35825e-08
7.62317e-09
1.42887e-09
2.11448e-10
2.39954e-11
2.05112e-12
1.30745e-13
6.18283e-15
2.16436e-16
5.60259e-18
1.07013e-19
1.49398e-21
1.36018e-23
3.66012e-26
0.199841
0.203426
0.206696
0.209548
0.208811
0.208847
0.210566
0.21279
0.214853
0.21556
0.216007
0.215892
0.213903
0.207314
0.189154
0.159965
0.126386
0.0929925
0.0629532
0.0380533
0.0189584
0.00549733
0.000248951
5.15591e-06
7.06448e-07
1.72818e-07
4.40438e-08
1.01736e-08
1.9843e-09
3.10756e-10
3.77583e-11
3.4844e-12
2.41153e-13
1.24363e-14
4.76559e-16
1.35594e-17
2.86353e-19
4.46291e-21
4.6e-23
1.61788e-25
0.202795
0.205743
0.208528
0.211025
0.210289
0.210187
0.211556
0.213426
0.215193
0.215752
0.216094
0.215903
0.213964
0.2078
0.191232
0.163591
0.131057
0.0981384
0.0679868
0.0425116
0.0225759
0.00808846
0.000706876
1.08352e-05
1.04216e-06
2.32022e-07
5.79258e-08
1.34736e-08
2.70762e-09
4.44917e-10
5.74643e-11
5.68659e-12
4.24687e-13
2.37348e-14
9.88992e-16
3.0692e-17
7.09499e-19
1.21553e-20
1.37912e-22
5.6822e-25
0.205251
0.20775
0.210172
0.212385
0.211654
0.211449
0.212524
0.214075
0.215558
0.215971
0.21621
0.215935
0.214035
0.208244
0.193052
0.16686
0.13538
0.102993
0.0728313
0.0469186
0.0262156
0.0108689
0.00158939
2.61214e-05
1.61816e-06
3.16591e-07
7.66021e-08
1.77862e-08
3.6475e-09
6.23522e-10
8.4989e-11
8.96343e-12
7.1809e-13
4.32546e-14
1.94879e-15
6.55613e-17
1.64712e-18
3.07175e-20
3.78133e-22
1.74469e-24
0.207352
0.209525
0.211661
0.213642
0.212921
0.212638
0.213463
0.214729
0.215946
0.216216
0.216353
0.215992
0.214117
0.208649
0.194651
0.169811
0.139388
0.107587
0.0774865
0.0512414
0.0298815
0.0137545
0.00298299
7.4066e-05
2.67564e-06
4.39833e-07
1.02087e-07
2.34849e-08
4.87192e-09
8.59085e-10
1.22688e-10
1.37063e-11
1.17167e-12
7.56682e-14
3.66809e-15
1.33089e-16
3.61338e-18
7.2855e-20
9.64558e-22
4.87114e-24
0.209195
0.211117
0.213028
0.214814
0.214098
0.213756
0.214371
0.21538
0.216344
0.216478
0.216516
0.216068
0.214203
0.209015
0.196058
0.172476
0.143095
0.111939
0.0819643
0.0554666
0.0335506
0.0167071
0.0048117
0.000219941
4.82929e-06
6.23771e-07
1.37235e-07
3.11001e-08
6.47629e-09
1.16837e-09
1.73561e-10
2.04147e-11
1.85244e-12
1.27673e-13
6.62788e-15
2.58213e-16
7.54005e-18
1.63497e-19
2.31438e-21
1.26229e-23
0.210842
0.212565
0.21429
0.215905
0.215201
0.214812
0.215244
0.21602
0.216748
0.216752
0.216695
0.216155
0.214288
0.209341
0.197288
0.174887
0.146526
0.116037
0.0862739
0.0595916
0.0371953
0.0196784
0.00691984
0.000574505
9.50255e-06
9.12541e-07
1.86091e-07
4.1375e-08
8.595e-09
1.57424e-09
2.41499e-10
2.97256e-11
2.84854e-12
2.08578e-13
1.15486e-14
4.81045e-16
1.50468e-17
3.49331e-19
5.26425e-21
3.07441e-23
0.212333
0.213896
0.215462
0.216924
0.216232
0.215806
0.21608
0.216645
0.21715
0.217027
0.216881
0.216249
0.214368
0.20962
0.198357
0.177064
0.149705
0.119903
0.0904377
0.0636182
0.0408049
0.0226579
0.00918484
0.0012397
2.06838e-05
1.38483e-06
2.55047e-07
5.53268e-08
1.14161e-08
2.10829e-09
3.31642e-10
4.24572e-11
4.27478e-12
3.31093e-13
1.94756e-14
8.64237e-16
2.88434e-17
7.14259e-19
1.14178e-20
7.09798e-23
0.213698
0.215128
0.216553
0.217877
0.217198
0.216743
0.216875
0.217246
0.217542
0.217299
0.217068
0.216341
0.214434
0.209851
0.199265
0.179018
0.152646
0.123555
0.0944492
0.0675521
0.0443801
0.0256524
0.0115396
0.002285
5.17518e-05
2.19699e-06
3.53468e-07
7.44024e-08
1.51991e-08
2.81433e-09
4.50903e-10
5.96705e-11
6.28005e-12
5.12288e-13
3.18923e-14
1.50248e-15
5.33287e-17
1.40346e-18
2.3727e-20
1.56309e-22
0.214958
0.216271
0.217569
0.218767
0.218099
0.217621
0.217626
0.217822
0.217918
0.217559
0.217247
0.216423
0.214476
0.210021
0.200014
0.180757
0.155357
0.126999
0.0983042
0.07139
0.0479167
0.0286732
0.0139504
0.00368585
0.000139864
3.72226e-06
4.95893e-07
1.00594e-07
2.03045e-08
3.75306e-09
6.08679e-10
8.276e-11
9.05761e-12
7.74835e-13
5.0864e-14
2.53552e-15
9.54085e-17
2.66062e-18
4.74273e-20
3.29936e-22
0.216127
0.217334
0.218518
0.219589
0.218941
0.218444
0.218334
0.218362
0.218269
0.217797
0.21741
0.216487
0.214487
0.210125
0.200605
0.182282
0.157844
0.130234
0.101995
0.0751285
0.0514087
0.0317024
0.0164016
0.00534483
0.000353651
6.75919e-06
7.09593e-07
1.3664e-07
2.72257e-08
5.00839e-09
8.17846e-10
1.13581e-10
1.28595e-11
1.14863e-12
7.92182e-14
4.16506e-15
1.65658e-16
4.88133e-18
9.15318e-20
6.70132e-22
0.217214
0.218326
0.219399
0.220346
0.21972
0.219209
0.218993
0.218868
0.218587
0.218008
0.217549
0.216522
0.214459
0.210153
0.201033
0.183592
0.160107
0.133265
0.105506
0.0787718
0.0548515
0.0347283
0.0188683
0.00715992
0.000773556
1.30905e-05
1.04208e-06
1.86648e-07
3.66292e-08
6.69575e-09
1.0961e-09
1.54629e-10
1.80168e-11
1.67299e-12
1.2078e-13
6.67677e-15
2.79892e-16
8.69126e-18
1.71053e-19
1.31467e-21
0.218225
0.219245
0.22021
0.221034
0.220433
0.219916
0.219604
0.219328
0.21887
0.218184
0.217655
0.216524
0.214381
0.2101
0.201296
0.184682
0.162142
0.136093
0.108853
0.0823281
0.0582435
0.037747
0.021355
0.00907626
0.00145657
2.81155e-05
1.57407e-06
2.56606e-07
4.94341e-08
8.97251e-09
1.46778e-09
2.09289e-10
2.49679e-11
2.39957e-12
1.80677e-13
1.04689e-14
4.61275e-16
1.5056e-17
3.10346e-19
2.49804e-21
0.219167
0.220099
0.220953
0.221645
0.221075
0.220557
0.220154
0.219743
0.219111
0.21832
0.217724
0.216482
0.214249
0.209959
0.201393
0.185553
0.163943
0.138709
0.112032
0.0857784
0.061584
0.040757
0.0238711
0.0110566
0.00243711
6.70813e-05
2.48207e-06
3.54891e-07
6.6901e-08
1.20534e-08
1.96621e-09
2.8217e-10
3.42987e-11
3.39661e-12
2.65747e-13
1.60895e-14
7.43121e-16
2.54331e-17
5.47952e-19
4.6093e-21
0.220037
0.22088
0.221622
0.222174
0.221641
0.221125
0.220638
0.220093
0.2193
0.21841
0.217748
0.216394
0.214056
0.209724
0.201327
0.186203
0.165507
0.141106
0.11503
0.0891059
0.0648652
0.0437525
0.0264178
0.0130872
0.00367222
0.000164773
4.13622e-06
4.95666e-07
9.07064e-08
1.62298e-08
2.63699e-09
3.79576e-10
4.67976e-11
4.75439e-12
3.85075e-13
2.4285e-14
1.17261e-15
4.19808e-17
9.43483e-19
8.27776e-21
0.220838
0.221588
0.222209
0.222607
0.22212
0.221616
0.221045
0.220365
0.219413
0.218445
0.217725
0.216253
0.213798
0.209396
0.201101
0.186633
0.166829
0.143277
0.117842
0.0922823
0.0680826
0.0467274
0.0289816
0.0151544
0.00508977
0.000374588
7.25551e-06
7.03536e-07
1.23213e-07
2.18919e-08
3.54225e-09
5.10118e-10
6.35313e-11
6.59332e-12
5.50734e-13
3.60649e-14
1.81565e-15
6.78383e-17
1.58731e-18
1.44985e-20
0.221568
0.222218
0.222708
0.222929
0.2225
0.222016
0.221363
0.220546
0.219423
0.218381
0.21764
0.216054
0.213472
0.208975
0.20072
0.18685
0.167909
0.145217
0.120459
0.0953147
0.0712424
0.0496759
0.0315538
0.0172421
0.00662885
0.000751549
1.34311e-05
1.01805e-06
1.67859e-07
2.95652e-08
4.76606e-09
6.85556e-10
8.5949e-11
9.07468e-12
7.78788e-13
5.27866e-14
2.7634e-15
1.07504e-16
2.61389e-18
2.48125e-20
0.222218
0.22276
0.223099
0.223113
0.222762
0.222309
0.221577
0.220627
0.219326
0.218194
0.217439
0.215786
0.213074
0.208461
0.200195
0.186863
0.168748
0.146918
0.122872
0.0981954
0.0743169
0.0525956
0.0341304
0.0193543
0.00825036
0.00133964
2.71216e-05
1.50671e-06
2.29401e-07
3.99654e-08
6.42175e-09
9.21899e-10
1.16023e-10
1.24157e-11
1.09067e-12
7.62712e-14
4.14067e-15
1.67337e-16
4.22008e-18
4.15612e-20
0.222781
0.223203
0.223364
0.223123
0.222878
0.222473
0.221669
0.220576
0.219105
0.217885
0.217097
0.21536
0.212593
0.207853
0.199533
0.186679
0.169353
0.148381
0.125072
0.100907
0.0772883
0.0554744
0.0367085
0.0214966
0.00992868
0.00216158
6.00996e-05
2.31001e-06
3.14471e-07
5.40497e-08
8.6624e-09
1.24087e-09
1.56441e-10
1.691e-11
1.51507e-12
1.08958e-13
6.11743e-15
2.5623e-16
6.6897e-18
6.82408e-20
0.223247
0.223524
0.223471
0.2229
0.222808
0.222476
0.221601
0.220375
0.218711
0.217435
0.21662
0.214755
0.211882
0.207142
0.198742
0.186312
0.169732
0.149605
0.127054
0.103441
0.0801207
0.0583003
0.0392805
0.0236704
0.0116536
0.00318898
0.000137398
3.70856e-06
4.33934e-07
7.30828e-08
1.16929e-08
1.67188e-09
2.10856e-10
2.29558e-11
2.09053e-12
1.54118e-13
8.92386e-15
3.8649e-16
1.04269e-17
1.09991e-19
0.223596
0.223696
0.223363
0.222348
0.222487
0.222274
0.221335
0.219967
0.21813
0.216767
0.215986
0.214002
0.210944
0.206065
0.197822
0.185774
0.169893
0.150594
0.128816
0.105794
0.08282
0.0610801
0.0418363
0.0258641
0.0134165
0.00437177
0.000297059
6.21074e-06
6.05882e-07
9.88218e-08
1.57856e-08
2.25463e-09
2.84235e-10
3.10937e-11
2.86907e-12
2.16137e-13
1.2871e-14
5.75035e-16
1.60003e-17
1.74262e-19
0.223802
0.223672
0.22296
0.221272
0.221808
0.221789
0.220813
0.2193
0.21727
0.215889
0.2151
0.213065
0.209839
0.204695
0.196656
0.185067
0.169849
0.151354
0.130355
0.107956
0.0853796
0.063786
0.0443721
0.0280676
0.0151999
0.0056627
0.000580945
1.08326e-05
8.58369e-07
1.33761e-07
2.13044e-08
3.04231e-09
3.83311e-10
4.20586e-11
3.92091e-12
3.00912e-13
1.83782e-14
8.44969e-16
2.42024e-17
2.71715e-19
0.223818
0.223371
0.222086
0.219232
0.220562
0.2209
0.219928
0.218303
0.216068
0.21466
0.213986
0.211801
0.208519
0.20316
0.195256
0.184148
0.169604
0.151892
0.131672
0.109923
0.0877876
0.0664002
0.0468756
0.0302754
0.0170038
0.00703147
0.00102313
2.01664e-05
1.2366e-06
1.81293e-07
2.87392e-08
4.10624e-09
5.17182e-10
5.68482e-11
5.34135e-12
4.16389e-13
2.60097e-14
1.22769e-15
3.61281e-17
4.17432e-19
0.223568
0.222638
0.220352
0.215581
0.218267
0.219371
0.218531
0.216811
0.214436
0.213026
0.212462
0.210291
0.20675
0.201459
0.193689
0.183018
0.169147
0.152213
0.132771
0.111691
0.0900339
0.0688999
0.0493347
0.0324819
0.0188308
0.00845384
0.00165303
4.07874e-05
1.82795e-06
2.46021e-07
3.87401e-08
5.54189e-09
6.9811e-10
7.68164e-11
7.25955e-12
5.73296e-13
3.65261e-14
1.76575e-15
5.32806e-17
6.32543e-19
0.222903
0.221115
0.216931
0.210915
0.214485
0.216674
0.216305
0.214648
0.212124
0.210888
0.210481
0.208249
0.204754
0.199477
0.191967
0.181713
0.16848
0.152314
0.133652
0.113259
0.0921143
0.0712733
0.0517455
0.0346791
0.0206838
0.00991773
0.00246096
8.75342e-05
2.8023e-06
3.34978e-07
5.21637e-08
7.47611e-09
9.42588e-10
1.03797e-10
9.85082e-12
7.86148e-13
5.09529e-14
2.51663e-15
7.77097e-17
9.46382e-19
0.221481
0.217902
0.212329
0.205683
0.209783
0.212699
0.212921
0.211554
0.209161
0.208194
0.208006
0.205852
0.202419
0.197306
0.190046
0.180246
0.167626
0.152203
0.134316
0.114625
0.0940251
0.0735197
0.0540972
0.0368594
0.0225546
0.0114174
0.00341485
0.00018496
4.46662e-06
4.59459e-07
7.01659e-08
1.00779e-08
1.27268e-09
1.40267e-10
1.33528e-11
1.07461e-12
7.06737e-14
3.55791e-15
1.122e-16
1.39938e-18
0.218385
0.213363
0.207085
0.200181
0.204568
0.207949
0.208683
0.207726
0.205625
0.205005
0.205092
0.203099
0.199815
0.1949
0.187958
0.178605
0.166596
0.151894
0.134768
0.115788
0.0957607
0.0756337
0.0563707
0.0390135
0.0244325
0.0129396
0.00447364
0.000364423
7.34821e-06
6.37048e-07
9.4355e-08
1.35708e-08
1.71805e-09
1.89561e-10
1.80878e-11
1.46529e-12
9.75593e-14
4.99424e-15
1.60519e-16
2.04686e-18
0.213881
0.208115
0.201532
0.194595
0.199108
0.202764
0.203902
0.203354
0.201623
0.201376
0.20178
0.200024
0.196955
0.192292
0.185692
0.176806
0.165394
0.151398
0.13502
0.11675
0.0973161
0.0776058
0.0585529
0.0411301
0.0263097
0.0144763
0.00561054
0.000654444
1.25825e-05
8.94053e-07
1.26941e-07
1.82531e-08
2.31806e-09
2.56193e-10
2.44909e-11
1.99429e-12
1.34138e-13
6.96682e-15
2.27753e-16
2.96419e-18
0.208634
0.20253
0.19588
0.189043
0.193577
0.197375
0.198813
0.198628
0.197276
0.19739
0.198115
0.196655
0.19386
0.189494
0.18326
0.174849
0.164029
0.150721
0.135079
0.117517
0.0986915
0.0794277
0.0606273
0.0431988
0.0281784
0.0160265
0.00680299
0.00108315
2.29245e-05
1.27507e-06
1.70854e-07
2.45232e-08
3.12525e-09
3.46192e-10
3.31544e-11
2.71041e-12
1.83832e-13
9.66602e-15
3.20752e-16
4.2535e-18
0.203033
0.196829
0.190254
0.183599
0.188084
0.191931
0.193586
0.193706
0.192703
0.193136
0.194161
0.193026
0.190546
0.186514
0.180672
0.172743
0.162507
0.149874
0.134953
0.118097
0.0998893
0.0810972
0.0625823
0.0452139
0.0300325
0.0175905
0.00803451
0.00166314
4.49785e-05
1.86437e-06
2.30159e-07
3.29039e-08
4.20962e-09
4.67647e-10
4.48735e-11
3.68026e-12
2.51264e-13
1.33488e-14
4.4874e-16
6.0527e-18
0.19731
0.19115
0.184735
0.178304
0.1827
0.186534
0.188339
0.188704
0.188013
0.188709
0.189991
0.189177
0.187038
0.183369
0.177937
0.170496
0.160838
0.148864
0.134651
0.118493
0.100912
0.0826141
0.0644181
0.047168
0.0318645
0.0191671
0.00929617
0.00238204
9.16643e-05
2.81893e-06
3.11054e-07
4.4084e-08
5.66387e-09
6.31381e-10
6.07208e-11
4.99355e-12
3.42737e-13
1.83609e-14
6.24112e-16
8.54755e-18
0.191606
0.185577
0.179368
0.173185
0.177464
0.181246
0.183148
0.183711
0.183284
0.184194
0.185682
0.185166
0.183366
0.180074
0.175066
0.168116
0.159029
0.147701
0.13418
0.118715
0.101764
0.0839785
0.0661326
0.0490454
0.0336666
0.020748
0.0105824
0.00321252
0.000182542
4.39876e-06
4.23192e-07
5.89988e-08
7.61041e-09
8.5183e-10
8.21386e-11
6.77173e-12
4.66749e-13
2.5173e-14
8.63485e-16
1.19876e-17
0.186006
0.180156
0.174178
0.168252
0.172399
0.176103
0.178065
0.178784
0.178582
0.17966
0.181304
0.181051
0.179571
0.176651
0.172071
0.165612
0.157089
0.146393
0.13355
0.118766
0.102449
0.0851908
0.0677228
0.0508372
0.0354293
0.0223241
0.011881
0.00412477
0.000340961
7.0382e-06
5.80843e-07
7.89351e-08
1.02121e-08
1.14821e-09
1.11063e-10
9.17875e-12
6.3481e-13
3.4417e-14
1.18936e-15
1.67065e-17
0.180558
0.174916
0.16918
0.163511
0.167519
0.171127
0.173122
0.173962
0.173949
0.175157
0.176916
0.176891
0.1757
0.173133
0.16897
0.162996
0.155026
0.144949
0.132769
0.118657
0.10297
0.0862515
0.0691861
0.0525365
0.0371434
0.0238871
0.0131851
0.00509856
0.000588049
1.16321e-05
8.0499e-07
1.05624e-07
1.36858e-08
1.54611e-09
1.50086e-10
1.24357e-11
8.625e-13
4.6948e-14
1.6318e-15
2.31547e-17
0.175293
0.169871
0.164378
0.158961
0.162826
0.16633
0.168336
0.16927
0.169416
0.170722
0.172563
0.172729
0.171797
0.169556
0.165788
0.160282
0.152853
0.143378
0.131846
0.118393
0.103335
0.0871627
0.0705191
0.0541376
0.0388016
0.0254306
0.0144924
0.00611522
0.000946147
2.02202e-05
1.13035e-06
1.41339e-07
1.83192e-08
2.07957e-09
2.02679e-10
1.68403e-11
1.17087e-12
6.39212e-14
2.23129e-15
3.1932e-17
0.170223
0.165024
0.159771
0.154598
0.158321
0.161715
0.163718
0.164723
0.165001
0.166379
0.168275
0.168603
0.167898
0.165953
0.162555
0.157492
0.150581
0.141691
0.130789
0.117983
0.103547
0.0879276
0.0717219
0.0556308
0.0403978
0.0269486
0.0158021
0.00716035
0.00142526
3.7494e-05
1.61984e-06
1.89198e-07
2.44888e-08
2.79383e-09
2.73474e-10
2.27925e-11
1.58832e-12
8.68955e-14
3.04226e-15
4.38423e-17
0.165354
0.160376
0.155356
0.150416
0.153999
0.157281
0.15927
0.160329
0.160716
0.162147
0.164076
0.164539
0.164033
0.162355
0.159297
0.15465
0.148231
0.139901
0.12961
0.117436
0.103615
0.0885502
0.0727958
0.0570174
0.0419312
0.0284357
0.0171131
0.00822601
0.00201743
7.23944e-05
2.38755e-06
2.53811e-07
3.26899e-08
3.74874e-09
3.68661e-10
3.08294e-11
2.15319e-12
1.17975e-13
4.13781e-15
5.996e-17
0.160685
0.155922
0.151125
0.146408
0.149855
0.153026
0.154991
0.156092
0.156569
0.158037
0.159981
0.160555
0.160223
0.158786
0.156039
0.151779
0.145821
0.138023
0.12832
0.116761
0.103546
0.0890352
0.0737427
0.0582981
0.0433924
0.0298864
0.0184187
0.00930704
0.00270269
0.000138494
3.61744e-06
3.42135e-07
4.35888e-08
5.02328e-09
4.96477e-10
4.16707e-11
2.91704e-12
1.59996e-13
5.6162e-15
8.1723e-17
0.156212
0.151656
0.147073
0.142567
0.145883
0.148944
0.15088
0.152009
0.152562
0.154053
0.156
0.156666
0.156484
0.155263
0.152801
0.148899
0.143373
0.136077
0.126934
0.115969
0.103347
0.0893885
0.0745655
0.0594725
0.0447758
0.0312947
0.0197117
0.010395
0.00345718
0.000252521
5.59487e-06
4.64243e-07
5.80935e-08
6.72223e-09
6.67869e-10
5.62798e-11
3.94926e-12
2.16779e-13
7.6094e-15
1.11053e-16
0.151929
0.147571
0.143191
0.138886
0.142075
0.145029
0.146932
0.14808
0.148695
0.150198
0.152138
0.15288
0.152829
0.1518
0.149598
0.146027
0.140904
0.13408
0.125467
0.115072
0.103028
0.0896161
0.0752676
0.0605415
0.0460775
0.0326548
0.0209856
0.0114812
0.00426386
0.000430665
8.83877e-06
6.34386e-07
7.74188e-08
8.98503e-09
8.97395e-10
7.59441e-11
5.34301e-12
2.93464e-13
1.02946e-14
1.50518e-16
0.147827
0.143659
0.139471
0.135356
0.138424
0.141274
0.14314
0.144301
0.144966
0.146474
0.148398
0.149202
0.149264
0.148407
0.146442
0.143176
0.138428
0.132048
0.123937
0.114086
0.102601
0.0897258
0.0758534
0.061506
0.0472959
0.0339621
0.0222356
0.0125627
0.0051074
0.000689066
1.44365e-05
8.74391e-07
1.0315e-07
1.19963e-08
1.20441e-09
1.02382e-10
7.22324e-12
3.96959e-13
1.39094e-14
2.03551e-16
0.1439
0.139911
0.135907
0.13197
0.134922
0.137671
0.139499
0.140665
0.141373
0.142878
0.14478
0.145634
0.145794
0.145091
0.143342
0.140358
0.135959
0.129994
0.122357
0.113024
0.102077
0.0897264
0.0763283
0.0623685
0.0484299
0.0352134
0.0234575
0.0136383
0.00597414
0.00104088
2.47771e-05
1.22152e-06
1.37385e-07
1.59982e-08
1.61462e-09
1.37887e-10
9.75734e-12
5.36538e-13
1.87724e-14
2.74735e-16
0.140138
0.13632
0.132488
0.128722
0.131562
0.134215
0.136001
0.137169
0.13791
0.139408
0.141284
0.142178
0.142422
0.141857
0.140303
0.137579
0.133506
0.127929
0.12074
0.111899
0.101468
0.0896276
0.0766989
0.0631317
0.0494794
0.0364052
0.0246482
0.0147082
0.00685519
0.00148578
4.46759e-05
1.74152e-06
1.83088e-07
2.13068e-08
2.16204e-09
1.85513e-10
1.31692e-11
7.24631e-13
2.531e-14
3.70189e-16
0.136534
0.132878
0.129209
0.125603
0.128337
0.130896
0.132643
0.133807
0.134575
0.13606
0.137907
0.138832
0.13915
0.138706
0.137331
0.134846
0.131075
0.125864
0.119096
0.110723
0.100785
0.0894396
0.0769729
0.0638005
0.0504458
0.037536
0.0258039
0.0157693
0.0077457
0.00201319
8.20137e-05
2.54381e-06
2.44579e-07
2.83414e-08
2.89148e-09
2.49325e-10
1.77582e-11
9.77883e-13
3.4093e-14
4.98068e-16
0.13308
0.129577
0.126062
0.122608
0.125241
0.12771
0.129415
0.130574
0.131362
0.132832
0.134646
0.135595
0.135976
0.135641
0.134428
0.132163
0.128674
0.123804
0.117435
0.109505
0.10004
0.0891719
0.0771574
0.0643796
0.0513313
0.0386044
0.0269213
0.0168166
0.00864165
0.00260496
0.000147529
3.79117e-06
3.28096e-07
3.76656e-08
3.86213e-09
3.34717e-10
2.39237e-11
1.31856e-12
4.5884e-14
6.69265e-16
0.129767
0.12641
0.123041
0.11973
0.122266
0.124649
0.126313
0.127462
0.128267
0.129718
0.131498
0.132465
0.1329
0.132662
0.131596
0.129534
0.126306
0.121757
0.115763
0.108255
0.0992412
0.0888333
0.0772604
0.0648748
0.0521391
0.0396108
0.0279983
0.0178458
0.00953534
0.00324554
0.000253108
5.73203e-06
4.42226e-07
5.00362e-08
5.15243e-09
4.48847e-10
3.21984e-11
1.77642e-12
6.17012e-14
8.98292e-16
0.12659
0.123369
0.120139
0.116963
0.119407
0.121707
0.12333
0.124468
0.125284
0.126716
0.128459
0.12944
0.12992
0.129769
0.128836
0.12696
0.123975
0.119726
0.114086
0.106978
0.0983962
0.088432
0.0772891
0.065291
0.0528717
0.0405557
0.0290326
0.0188532
0.0104217
0.00392253
0.00041003
8.80435e-06
5.98913e-07
6.64449e-08
6.86632e-09
6.01205e-10
4.32911e-11
2.39115e-12
8.29028e-14
1.20448e-15
0.12354
0.120449
0.11735
0.114303
0.116659
0.11888
0.120462
0.121586
0.12241
0.12382
0.125527
0.126515
0.127035
0.126961
0.126148
0.124443
0.121683
0.117716
0.11241
0.105681
0.0975123
0.0879754
0.0772507
0.0656343
0.0535325
0.0414416
0.0300237