/*--------------------------------*- C++ -*----------------------------------*\
| =========                 |                                                 |
| \\      /  F ield         | OpenFOAM: The Open Source CFD Toolbox           |
|  \\    /   O peration     | Version:  1.6.x                                 |
|   \\  /    A nd           | Web:      www.OpenFOAM.org                      |
|    \\/     M anipulation  |                                                 |
\*---------------------------------------------------------------------------*/
FoamFile
{
    version     2.0;
    format      ascii;
    class       volScalarField;
    location    "7000";
    object      volDryN2;
}
// * * * * * * * * * * * * * * * * * * * * * * * * * * * * * * * * * * * * * //

dimensions      [0 0 0 0 0 0 0];

internalField   nonuniform List<scalar> 
4608
(
0.59279
0.592773
0.592776
0.601911
0.592773
0.592773
0.592773
0.593262
0.607159
0.646161
0.592773
0.592773
0.592773
0.592773
0.592803
0.593975
0.611038
0.657771
0.760432
0.592773
0.592773
0.592773
0.592773
0.592776
0.592874
0.594824
0.614177
0.662863
0.754651
0.862907
0.86098
0.592773
0.592773
0.592773
0.592773
0.592785
0.592984
0.595788
0.617449
0.66371
0.751622
0.83793
0.863624
0.863631
0.859202
0.592773
0.592773
0.592773
0.592773
0.592801
0.593143
0.596872
0.619674
0.667027
0.747494
0.822014
0.864359
0.863541
0.863631
0.86363
0.83995
0.592773
0.592773
0.592773
0.592773
0.592832
0.593355
0.598024
0.6366
0.660847
0.746275
0.810549
0.868501
0.841825
0.86331
0.863629
0.86363
0.86363
0.815152
0.592773
0.592773
0.592773
0.592773
0.592877
0.593625
0.599745
0.646733
0.662285
0.737267
0.80526
0.857917
0.848611
0.822105
0.863626
0.86363
0.86363
0.86363
0.803248
0.592773
0.592773
0.592773
0.592773
0.592943
0.593973
0.601597
0.6535
0.669095
0.727212
0.796146
0.85078
0.856483
0.829376
0.810611
0.86363
0.86363
0.86363
0.86363
0.795514
0.592773
0.592773
0.592773
0.592773
0.593036
0.594388
0.603496
0.658082
0.67635
0.725989
0.783051
0.841678
0.863102
0.83797
0.817492
0.800565
0.86363
0.86363
0.86363
0.86363
0.793036
0.592773
0.592773
0.592773
0.592773
0.593159
0.594865
0.605368
0.662457
0.68192
0.728087
0.776859
0.828162
0.870537
0.845335
0.825429
0.805597
0.794799
0.86363
0.86363
0.86363
0.86363
0.792735
0.592773
0.592773
0.592773
0.592773
0.593316
0.59539
0.607286
0.662508
0.687761
0.730414
0.774878
0.819493
0.864632
0.854181
0.832804
0.811736
0.797487
0.792953
0.86363
0.86363
0.86363
0.86363
0.792713
0.592773
0.592773
0.592773
0.592773
0.593507
0.595964
0.60906
0.661651
0.688335
0.733461
0.774074
0.814786
0.856581
0.861528
0.841474
0.818098
0.801479
0.793572
0.792731
0.86363
0.86363
0.86363
0.86363
0.79271
0.592773
0.592773
0.592773
0.592773
0.593733
0.596576
0.618254
0.664622
0.685341
0.73409
0.774452
0.811651
0.850284
0.8659
0.852194
0.825473
0.806415
0.795047
0.792784
0.792713
0.86363
0.86363
0.86363
0.86363
0.792709
0.592773
0.592773
0.592773
0.592773
0.593994
0.597521
0.625938
0.669541
0.687021
0.731678
0.773796
0.809953
0.845482
0.863381
0.860775
0.835919
0.812395
0.797958
0.792959
0.792718
0.792709
0.86363
0.86363
0.86363
0.86363
0.792709
0.592773
0.592773
0.592773
0.592773
0.594315
0.598664
0.63239
0.675738
0.691252
0.731114
0.771093
0.808005
0.842106
0.860848
0.865297
0.844909
0.820926
0.802276
0.793648
0.792731
0.792711
0.792709
0.86363
0.86363
0.86363
0.86363
0.792708
0.592773
0.592773
0.592773
0.592773
0.5947
0.599947
0.638139
0.680769
0.696908
0.732038
0.769387
0.804697
0.838869
0.857869
0.868279
0.851683
0.828843
0.808705
0.795474
0.792778
0.792713
0.792709
0.792708
0.86363
0.86363
0.86363
0.86363
0.792708
0.592773
0.592773
0.592773
0.592773
0.595152
0.601349
0.641592
0.683778
0.701354
0.734059
0.768767
0.802107
0.834732
0.85434
0.866972
0.857415
0.835449
0.815105
0.799682
0.793003
0.792717
0.79271
0.792708
0.792708
0.86363
0.86363
0.86363
0.86363
0.792708
0.592773
0.592773
0.592773
0.592773
0.59567
0.602784
0.644099
0.687404
0.703739
0.735874
0.769028
0.8004
0.831337
0.850167
0.863859
0.861029
0.841659
0.820886
0.804593
0.794319
0.792729
0.792711
0.792709
0.792709
0.792708
0.86363
0.86363
0.86363
0.86363
0.792708
0.592773
0.592773
0.592773
0.592773
0.596248
0.60785
0.648247
0.691615
0.70653
0.736821
0.769378
0.799439
0.828707
0.846876
0.860409
0.86336
0.846731
0.826508
0.80935
0.797169
0.792832
0.792712
0.792709
0.792708
0.792708
0.792708
0.86363
0.86363
0.86363
0.86363
0.792708
0.592773
0.592773
0.592773
0.597118
0.613178
0.653344
0.696233
0.70971
0.737962
0.76929
0.798696
0.826727
0.843941
0.857694
0.865386
0.851107
0.831608
0.814041
0.800683
0.793458
0.792718
0.792709
0.792708
0.792708
0.792708
0.792708
0.86363
0.86363
0.86363
0.86363
0.792708
0.592773
0.592773
0.598232
0.618279
0.658993
0.700897
0.713245
0.739309
0.769434
0.79775
0.825048
0.84152
0.854637
0.866903
0.855532
0.836422
0.818555
0.804443
0.794992
0.79275
0.79271
0.792709
0.792709
0.792708
0.792708
0.792708
0.86363
0.86363
0.86363
0.86363
0.792708
0.592773
0.600966
0.623364
0.665481
0.705822
0.716997
0.740911
0.769796
0.797054
0.823323
0.839427
0.851954
0.864754
0.859324
0.841531
0.822963
0.80819
0.797484
0.792932
0.792712
0.792708
0.792708
0.792708
0.792708
0.792708
0.792708
0.86363
0.86363
0.86363
0.86363
0.792708
0.604657
0.628938
0.67288
0.711015
0.720997
0.742821
0.770367
0.79661
0.82187
0.837371
0.849639
0.862561
0.861437
0.846092
0.827768
0.811903
0.800363
0.793627
0.792719
0.792709
0.792708
0.792708
0.792708
0.792708
0.792708
0.792708
0.86363
0.86363
0.86363
0.86363
0.792708
0.609161
0.635462
0.680932
0.716354
0.725219
0.745031
0.771224
0.796385
0.820683
0.835599
0.84746
0.860682
0.862865
0.849752
0.832299
0.81595
0.803368
0.795067
0.79276
0.79271
0.792708
0.792709
0.792708
0.792708
0.792708
0.792708
0.792708
0.86363
0.86363
0.86363
0.792708
0.614045
0.643312
0.689241
0.721724
0.729611
0.747505
0.772366
0.796437
0.819729
0.834039
0.845523
0.858981
0.863986
0.85283
0.836279
0.819939
0.806621
0.797125
0.79296
0.792712
0.792709
0.792709
0.792708
0.792708
0.792708
0.792708
0.792708
0.792708
0.86363
0.86363
0.792708
0.619314
0.652901
0.697141
0.727161
0.734097
0.750237
0.773746
0.796764
0.819054
0.832697
0.843709
0.857312
0.864929
0.85554
0.839872
0.823664
0.809902
0.799582
0.793573
0.79272
0.792709
0.792708
0.792708
0.792708
0.792708
0.792708
0.792708
0.792708
0.792708
0.86363
0.792708
0.625439
0.663768
0.705031
0.732708
0.738668
0.753191
0.775354
0.797326
0.818662
0.831636
0.842092
0.855394
0.864989
0.858037
0.843183
0.827175
0.813112
0.802194
0.794803
0.792755
0.79271
0.792708
0.792709
0.792708
0.792708
0.792708
0.792708
0.792708
0.792708
0.792708
0.792708
0.633047
0.67564
0.712864
0.738356
0.743357
0.756324
0.77718
0.798104
0.818518
0.830866
0.840752
0.85359
0.86364
0.860004
0.846342
0.830542
0.816233
0.804812
0.796569
0.792919
0.792711
0.792709
0.792709
0.792708
0.792708
0.792708
0.792708
0.792708
0.792708
0.792708
0.792708
0.792708
0.643099
0.68764
0.720607
0.744136
0.748169
0.759637
0.779194
0.79909
0.818597
0.830354
0.839708
0.85205
0.862219
0.861204
0.849158
0.833839
0.819284
0.807401
0.79856
0.79342
0.792717
0.792709
0.792709
0.792708
0.792708
0.792708
0.792708
0.792708
0.792708
0.792708
0.792708
0.792708
0.792708
0.656445
0.69914
0.728414
0.750083
0.753121
0.763136
0.781385
0.800263
0.81888
0.830078
0.838933
0.850803
0.860986
0.862053
0.851529
0.836897
0.822313
0.809998
0.800635
0.794379
0.792743
0.792709
0.792708
0.792709
0.792708
0.792708
0.792708
0.792708
0.792708
0.792708
0.792708
0.792708
0.792708
0.792708
0.673673
0.710578
0.736366
0.756203
0.758234
0.766818
0.783747
0.80161
0.819344
0.829991
0.8384
0.849825
0.859981
0.862727
0.853592
0.839667
0.825225
0.812612
0.80275
0.795742
0.792853
0.792711
0.792708
0.792709
0.792708
0.792708
0.792708
0.792708
0.792708
0.792708
0.792708
0.792708
0.792708
0.792708
0.792708
0.692302
0.721976
0.744421
0.762455
0.76352
0.770685
0.786272
0.803117
0.819978
0.830073
0.838043
0.849081
0.859181
0.863289
0.855418
0.842222
0.827988
0.815185
0.804883
0.797316
0.793184
0.792714
0.792709
0.792709
0.792708
0.792708
0.792708
0.792708
0.792708
0.792708
0.792708
0.792708
0.792708
0.792708
0.792708
0.792708
0.70984
0.733067
0.752445
0.768754
0.768957
0.774741
0.788956
0.80477
0.820768
0.830316
0.83784
0.848438
0.858548
0.863764
0.857039
0.844582
0.830624
0.817689
0.807025
0.798997
0.793836
0.792728
0.792709
0.792709
0.792708
0.792708
0.792708
0.792708
0.792708
0.792708
0.792708
0.792708
0.792708
0.792708
0.792708
0.792708
0.792708
0.725104
0.743521
0.760279
0.775011
0.77449
0.778982
0.791798
0.80656
0.8217
0.830715
0.837795
0.847904
0.857794
0.86414
0.858478
0.846756
0.833129
0.820128
0.809163
0.800724
0.794837
0.792781
0.79271
0.792708
0.792708
0.792708
0.792708
0.792708
0.792708
0.792708
0.792708
0.792708
0.792708
0.792708
0.792708
0.792708
0.792708
0.792708
0.738056
0.753174
0.767812
0.781149
0.780054
0.783386
0.794802
0.808484
0.822757
0.831257
0.837906
0.847513
0.857043
0.863749
0.859722
0.848746
0.835495
0.822495
0.811284
0.802459
0.796063
0.792956
0.792712
0.792708
0.792708
0.792708
0.792708
0.792708
0.792708
0.792708
0.792708
0.792708
0.792708
0.792708
0.792708
0.792708
0.792708
0.792708
0.792708
0.749176
0.762039
0.77499
0.787119
0.785582
0.787915
0.797964
0.810545
0.823934
0.831922
0.838162
0.847277
0.856402
0.863132
0.860539
0.850538
0.837711
0.824778
0.813378
0.804199
0.797394
0.793345
0.792718
0.792709
0.792708
0.792708
0.792708
0.792708
0.792708
0.792708
0.792708
0.792708
0.792708
0.792708
0.792708
0.792708
0.792708
0.792708
0.792708
0.792708
0.758945
0.7702
0.781803
0.792891
0.791024
0.792523
0.801276
0.812748
0.825236
0.832708
0.838547
0.847186
0.855904
0.862551
0.861079
0.852055
0.83976
0.826975
0.815436
0.805951
0.798778
0.793999
0.792737
0.792709
0.792709
0.792708
0.792708
0.792708
0.792708
0.792708
0.792708
0.792708
0.792708
0.792708
0.792708
0.792708
0.792708
0.792708
0.792708
0.792708
0.767703
0.777754
0.788264
0.798456
0.796344
0.797162
0.804718
0.815095
0.826667
0.833613
0.839051
0.847228
0.855547
0.862067
0.86148
0.853339
0.841615
0.829064
0.817451
0.807707
0.800193
0.794881
0.792807
0.79271
0.792708
0.792708
0.792708
0.792708
0.792708
0.792708
0.792708
0.792708
0.792708
0.792708
0.792708
0.792708
0.792708
0.792708
0.792708
0.792708
0.775678
0.784788
0.794396
0.803813
0.801523
0.801789
0.808262
0.81758
0.828233
0.834642
0.839676
0.847389
0.855316
0.861686
0.861804
0.854452
0.843295
0.831021
0.819404
0.809453
0.801617
0.795903
0.792987
0.792713
0.792708
0.792708
0.792708
0.792708
0.792708
0.792708
0.792708
0.792708
0.792708
0.792708
0.792708
0.792708
0.792708
0.792708
0.792708
0.792708
0.783025
0.791375
0.800223
0.808964
0.806548
0.806371
0.81188
0.820191
0.829934
0.835802
0.840422
0.847667
0.855201
0.861398
0.862079
0.855433
0.844827
0.832853
0.821279
0.811176
0.803047
0.797
0.793336
0.792718
0.792709
0.792708
0.792708
0.792708
0.792708
0.792708
0.792708
0.792708
0.792708
0.792708
0.792708
0.792708
0.792708
0.792708
0.792708
0.792708
0.789854
0.797571
0.805771
0.813918
0.811415
0.810882
0.815541
0.822911
0.831766
0.837094
0.841294
0.848062
0.855192
0.861193
0.862318
0.856305
0.846231
0.834575
0.823074
0.812863
0.804487
0.798136
0.793886
0.792737
0.792709
0.792709
0.792708
0.792708
0.792708
0.792708
0.792708
0.792708
0.792708
0.792708
0.792708
0.792708
0.792708
0.792708
0.792708
0.792708
0.796242
0.803424
0.811062
0.818683
0.816122
0.815303
0.819219
0.82572
0.833721
0.838514
0.842294
0.848576
0.855289
0.861064
0.862529
0.857083
0.847519
0.836195
0.824793
0.81451
0.805926
0.799299
0.794607
0.792795
0.792709
0.792708
0.792708
0.792708
0.792708
0.792708
0.792708
0.792708
0.792708
0.792708
0.792708
0.792708
0.792708
0.792708
0.792708
0.792708
0.80225
0.808969
0.816116
0.823265
0.82067
0.819623
0.822889
0.828598
0.835786
0.840059
0.843422
0.849211
0.855493
0.86101
0.862718
0.857779
0.848701
0.837713
0.826444
0.816114
0.807354
0.800467
0.795439
0.792935
0.792712
0.792708
0.792708
0.792708
0.792708
0.792708
0.792708
0.792708
0.792708
0.792708
0.792708
0.792708
0.792708
0.792708
0.792708
0.792708
0.807925
0.81424
0.820951
0.827675
0.825064
0.823833
0.826533
0.83152
0.837944
0.841716
0.844672
0.849966
0.855801
0.86103
0.862892
0.858402
0.849788
0.839139
0.828033
0.817677
0.808766
0.801639
0.796332
0.793197
0.792716
0.792709
0.792708
0.792708
0.792708
0.792708
0.792708
0.792708
0.792708
0.792708
0.792708
0.792708
0.792708
0.792708
0.792708
0.792708
0.813304
0.81926
0.825581
0.831922
0.829306
0.827928
0.830132
0.834468
0.840177
0.843472
0.846036
0.850836
0.856216
0.861122
0.863053
0.85896
0.850789
0.840479
0.82956
0.8192
0.810163
0.802815
0.797259
0.79361
0.792728
0.792708
0.792708
0.792708
0.792708
0.792708
0.792708
0.792708
0.792708
0.792708
0.792708
0.792708
0.792708
0.792708
0.792708
0.792708
0.818418
0.824054
0.830022
0.836011
0.833403
0.831906
0.833676
0.837422
0.842467
0.845312
0.847501
0.851816
0.85673
0.861287
0.863208
0.859457
0.851706
0.841738
0.831023
0.820684
0.811544
0.804
0.798208
0.794162
0.792763
0.792709
0.792709
0.792708
0.792708
0.792708
0.792708
0.792708
0.792708
0.792708
0.792708
0.792708
0.792708
0.792708
0.792708
0.792708
0.823292
0.828637
0.834286
0.83995
0.837358
0.835765
0.837153
0.840367
0.844796
0.847218
0.849054
0.852894
0.857341
0.861521
0.863358
0.859898
0.852543
0.842915
0.832419
0.822127
0.812905
0.805188
0.799172
0.794816
0.792847
0.792711
0.792708
0.792708
0.792708
0.792708
0.792708
0.792708
0.792708
0.792708
0.792708
0.792708
0.792708
0.792708
0.792708
0.792708
0.827947
0.833027
0.838381
0.843743
0.841174
0.839506
0.840555
0.843288
0.847146
0.849175
0.850678
0.854059
0.858039
0.861818
0.863505
0.860284
0.853305
0.844015
0.833744
0.823531
0.814246
0.806373
0.800142
0.795531
0.793013
0.792713
0.792708
0.792708
0.792708
0.792708
0.792708
0.792708
0.792708
0.792708
0.792708
0.792708
0.792708
0.792708
0.792708
0.792708
0.832398
0.837235
0.842317
0.847396
0.844855
0.843128
0.843877
0.846172
0.849503
0.851163
0.852359
0.855297
0.858813
0.862175
0.863649
0.860619
0.853991
0.845038
0.835005
0.824898
0.815566
0.807554
0.801118
0.796285
0.793283
0.792719
0.792709
0.792708
0.792708
0.792708
0.792708
0.792708
0.792708
0.792708
0.792708
0.792708
0.792708
0.792708
0.792708
0.792708
0.836663
0.841274
0.846103
0.850914
0.848404
0.84663
0.84711
0.849009
0.851852
0.853171
0.85408
0.856594
0.859653
0.862584
0.86379
0.860903
0.854601
0.845983
0.836199
0.826223
0.816863
0.808731
0.802106
0.797065
0.793669
0.792734
0.792709
0.792708
0.792708
0.792708
0.792708
0.792708
0.792708
0.792708
0.792708
0.792708
0.792708
0.792708
0.792708
0.792708
0.840753
0.845155
0.849745
0.854301
0.851824
0.850011
0.850247
0.851782
0.854179
0.855182
0.855826
0.857936
0.860547
0.863037
0.86393
0.86114
0.855137
0.846849
0.837324
0.827499
0.818137
0.809902
0.803106
0.797863
0.794155
0.792772
0.79271
0.792709
0.792708
0.792708
0.792708
0.792708
0.792708
0.792708
0.792708
0.792708
0.792708
0.792708
0.792708
0.792708
0.84468
0.848885
0.853248
0.857557
0.855115
0.853272
0.853283
0.854479
0.856457
0.857181
0.857585
0.859308
0.861482
0.863526
0.864066
0.861329
0.855599
0.847635
0.838377
0.828715
0.819384
0.811064
0.804111
0.798676
0.794714
0.792856
0.79271
0.792708
0.792708
0.792708
0.792708
0.792708
0.792708
0.792708
0.792708
0.792708
0.792708
0.792708
0.792708
0.792708
0.848453
0.852472
0.856618
0.860687
0.85828
0.85641
0.856213
0.85709
0.858667
0.859131
0.859337
0.860699
0.862449
0.864044
0.864199
0.861473
0.855987
0.848339
0.839357
0.829876
0.820608
0.812215
0.805119
0.799496
0.79532
0.793004
0.792714
0.792708
0.792708
0.792708
0.792708
0.792708
0.792708
0.792708
0.792708
0.792708
0.792708
0.792708
0.792708
0.792708
0.852081
0.855923
0.859861
0.863686
0.861317
0.859424
0.859027
0.859604
0.860799
0.861009
0.861036
0.862088
0.863435
0.864584
0.86433
0.861577
0.856305
0.848961
0.840261
0.830976
0.821798
0.813353
0.806128
0.800326
0.795958
0.793236
0.792719
0.792709
0.792708
0.792708
0.792708
0.792708
0.792708
0.792708
0.792708
0.792708
0.792708
0.792708
0.792708
0.792708
0.855573
0.859245
0.862976
0.866547
0.86422
0.862307
0.861718
0.862003
0.862839
0.862812
0.862661
0.863409
0.864421
0.865137
0.864457
0.861643
0.856555
0.849502
0.841086
0.832012
0.822948
0.814475
0.807138
0.801168
0.796618
0.793559
0.792732
0.792709
0.792708
0.792708
0.792708
0.792708
0.792708
0.792708
0.792708
0.792708
0.792708
0.792708
0.792708
0.792708
0.858934
0.862442
0.86596
0.869245
0.866978
0.865047
0.864268
0.864274
0.86475
0.864519
0.86421
0.86464
0.865298
0.865686
0.86458
0.861675
0.856741
0.849963
0.841831
0.83298
0.824042
0.815575
0.808144
0.802021
0.797297
0.793965
0.792762
0.792709
0.792708
0.792708
0.792708
0.792708
0.792708
0.792708
0.792708
0.792708
0.792708
0.792708
0.792708
0.792708
0.86217
0.865512
0.868795
0.871714
0.869559
0.867629
0.866656
0.866383
0.866523
0.866077
0.865659
0.865793
0.866059
0.866039
0.864689
0.861675
0.856867
0.850346
0.842497
0.833879
0.825085
0.816658
0.809144
0.802881
0.797989
0.79443
0.792825
0.79271
0.792708
0.792708
0.792708
0.792708
0.792708
0.792708
0.792708
0.792708
0.792708
0.792708
0.792708
0.792708
0.865282
0.868442
0.871425
0.873783
0.871889
0.870007
0.868853
0.868296
0.868094
0.867487
0.866941
0.866839
0.866742
0.866236
0.864694
0.861642
0.856938
0.850655
0.843083
0.834706
0.826074
0.817711
0.810135
0.803745
0.79869
0.794938
0.792937
0.792713
0.792708
0.792708
0.792708
0.792708
0.792708
0.792708
0.792708
0.792708
0.792708
0.792708
0.792708
0.792708
0.868259
0.871185
0.873699
0.87498
0.873786
0.872098
0.870785
0.869968
0.869419
0.868652
0.868068
0.86767
0.8673
0.866363
0.864595
0.861535
0.856954
0.850892
0.843591
0.83546
0.827004
0.818727
0.811113
0.804611
0.799399
0.795476
0.793111
0.792716
0.792708
0.792708
0.792708
0.792708
0.792708
0.792708
0.792708
0.792708
0.792708
0.792708
0.792708
0.792708
0.871056
0.873602
0.87518
0.874858
0.874756
0.873699
0.872344
0.871281
0.870435
0.869527
0.868909
0.86834
0.867564
0.866411
0.864431
0.861349
0.856901
0.85106
0.844022
0.83614
0.827873
0.819699
0.812074
0.805475
0.800116
0.796036
0.793359
0.792724
0.792709
0.792708
0.792708
0.792708
0.792708
0.792708
0.792708
0.792708
0.792708
0.792708
0.792708
0.792708
0.873543
0.875284
0.875264
0.873895
0.874511
0.874328
0.873276
0.872097
0.870955
0.870044
0.869428
0.868643
0.867688
0.866294
0.864208
0.8611
0.856773
0.851153
0.844376
0.836747
0.828677
0.820623
0.813015
0.806336
0.800844
0.796611
0.793677
0.792742
0.792709
0.792708
0.792708
0.792708
0.792708
0.792708
0.792708
0.792708
0.792708
0.792708
0.792708
0.792708
0.875325
0.875545
0.874381
0.872422
0.873496
0.87391
0.873285
0.872216
0.870994
0.870153
0.869596
0.868696
0.867586
0.866068
0.863885
0.860794
0.85658
0.851172
0.844654
0.837279
0.829418
0.821496
0.813934
0.80719
0.801578
0.797201
0.794052
0.792781
0.79271
0.792708
0.792708
0.792708
0.792708
0.792708
0.792708
0.792708
0.792708
0.792708
0.792708
0.792708
0.875682
0.874731
0.872934
0.870654
0.872009
0.872825
0.872576
0.871738
0.870591
0.869894
0.869441
0.868502
0.867304
0.865701
0.863481
0.860416
0.856327
0.851121
0.844856
0.837737
0.830093
0.822319
0.814822
0.808034
0.802315
0.797799
0.794469
0.792852
0.792711
0.792708
0.792708
0.792708
0.792708
0.792708
0.792708
0.792708
0.792708
0.792708
0.792708
0.792708
0.874906
0.873307
0.871163
0.868725
0.870245
0.871323
0.871372
0.870784
0.869802
0.869294
0.86899
0.868076
0.866851
0.86521
0.862983
0.859973
0.85601
0.851004
0.844985
0.83812
0.830699
0.823087
0.815674
0.808863
0.803052
0.798403
0.794916
0.792966
0.792713
0.792708
0.792708
0.792708
0.792708
0.792708
0.792708
0.792708
0.792708
0.792708
0.792708
0.792708
0.873494
0.871536
0.869218
0.866724
0.868332
0.869573
0.869847
0.869485
0.868695
0.868392
0.868266
0.867433
0.866234
0.8646
0.862397
0.859458
0.85563
0.850822
0.845044
0.838431
0.831238
0.823798
0.816484
0.809673
0.803785
0.799012
0.795385
0.793134
0.792717
0.792708
0.792708
0.792708
0.792708
0.792708
0.792708
0.792708
0.792708
0.792708
0.792708
0.792708
0.871724
0.86958
0.867193
0.864706
0.86635
0.867687
0.868126
0.867954
0.86735
0.867239
0.867295
0.866587
0.865461
0.863874
0.861724
0.858875
0.855189
0.850577
0.845035
0.838672
0.831709
0.82445
0.817248
0.810462
0.804512
0.799626
0.795869
0.793363
0.792726
0.792709
0.792708
0.792708
0.792708
0.792708
0.792708
0.792708
0.792708
0.792708
0.792708
0.792708
0.869764
0.86754
0.865149
0.862707
0.864354
0.86574
0.866297
0.866277
0.86584
0.865894
0.866116
0.865556
0.864543
0.863038
0.860968
0.858224
0.854687
0.85027
0.844961
0.838846
0.832114
0.825044
0.817967
0.811227
0.805231
0.800246
0.796365
0.793646
0.792744
0.792709
0.792708
0.792708
0.792708
0.792708
0.792708
0.792708
0.792708
0.792708
0.792708
0.792708
0.867715
0.865477
0.863123
0.86075
0.862377
0.86378
0.864419
0.864519
0.864226
0.864415
0.864778
0.864368
0.863487
0.862096
0.860133
0.857509
0.854126
0.849905
0.844825
0.838954
0.832455
0.825579
0.818637
0.811963
0.805938
0.800866
0.796871
0.793972
0.79278
0.79271
0.792708
0.792708
0.792708
0.792708
0.792708
0.792708
0.792708
0.792708
0.792708
0.792708
0.865643
0.863432
0.861139
0.858847
0.860441
0.86184
0.862534
0.862728
0.862554
0.86285
0.863326
0.863055
0.862315
0.861056
0.859218
0.856731
0.853509
0.849483
0.844629
0.838998
0.832731
0.826056
0.81926
0.812664
0.806629
0.801485
0.797381
0.794331
0.792843
0.792711
0.792709
0.792708
0.792708
0.792708
0.792708
0.792708
0.792708
0.792708
0.792708
0.792708
0.863589
0.861429
0.859212
0.857007
0.858559
0.859938
0.860669
0.860935
0.860859
0.861239
0.861802
0.861654
0.861049
0.859928
0.858231
0.855892
0.852838
0.849008
0.844376
0.838981
0.832947
0.826474
0.819835
0.81333
0.807301
0.802099
0.797894
0.794714
0.792939
0.792713
0.792708
0.792708
0.792708
0.792708
0.792708
0.792708
0.792708
0.792708
0.792708
0.792708
0.861577
0.859483
0.857348
0.855233
0.856737
0.858089
0.858841
0.859162
0.859167
0.85961
0.860238
0.860195
0.859715
0.858731
0.85718
0.854995
0.852114
0.84848
0.844067
0.838906
0.833102
0.826836
0.820357
0.813958
0.807951
0.802705
0.798407
0.795114
0.79308
0.792716
0.792708
0.792708
0.792708
0.792708
0.792708
0.792708
0.792708
0.792708
0.792708
0.792708
0.859622
0.857602
0.855553
0.853527
0.854981
0.856299
0.857061
0.857424
0.857495
0.857986
0.85866
0.858706
0.858336
0.857482
0.856074
0.854048
0.851342
0.847903
0.843707
0.838776
0.8332
0.827141
0.820831
0.814544
0.808578
0.803301
0.798923
0.795525
0.793269
0.792723
0.792709
0.792708
0.792708
0.792708
0.792708
0.792708
0.792708
0.792708
0.792708
0.792708
0.857732
0.85579
0.853826
0.851889
0.853291
0.854571
0.855336
0.85573
0.855855
0.85638
0.857087
0.857205
0.856933
0.856198
0.854929
0.853059
0.850526
0.847281
0.843298
0.838593
0.833243
0.827392
0.821254
0.815089
0.80918
0.803885
0.799438
0.795944
0.793502
0.792737
0.792709
0.792708
0.792708
0.792708
0.792708
0.792708
0.792708
0.792708
0.792708
0.792708
0.855912
0.854049
0.852168
0.850316
0.851668
0.852908
0.85367
0.854087
0.854255
0.854805
0.855533
0.855711
0.855523
0.854896
0.853757
0.852037
0.849674
0.846619
0.842844
0.83836
0.833233
0.82759
0.821628
0.815591
0.809753
0.804455
0.79995
0.796369
0.793771
0.792763
0.792709
0.792708
0.792708
0.792708
0.792708
0.792708
0.792708
0.792708
0.792708
0.792708
0.854163
0.852377
0.850578
0.848808
0.85011
0.851309
0.852064
0.852497
0.852701
0.853268
0.854006
0.854234
0.854118
0.853588
0.85257
0.850993
0.848793
0.845922
0.84235
0.838082
0.833173
0.827738
0.821955
0.816053
0.810296
0.805008
0.800459
0.796796
0.794068
0.792807
0.792711
0.792709
0.792708
0.792708
0.792708
0.792708
0.792708
0.792708
0.792708
0.792708
0.852484
0.850774
0.849054
0.847362
0.848615
0.849774
0.850517
0.850962
0.851194
0.851772
0.852516
0.852782
0.852729
0.852285
0.851377
0.849934
0.847891
0.845197
0.84182
0.837762
0.833066
0.827836
0.822234
0.816475
0.810808
0.805542
0.800959
0.797223
0.794385
0.792877
0.792711
0.792708
0.792708
0.792708
0.792708
0.792708
0.792708
0.792708
0.792708
0.792708
0.850875
0.849238
0.847592
0.845975
0.84718
0.848299
0.84903
0.849482
0.849737
0.85032
0.851064
0.851362
0.851361
0.850994
0.850188
0.84887
0.846975
0.84445
0.841261
0.837404
0.832918
0.82789
0.822469
0.816855
0.811287
0.806056
0.80145
0.797649
0.794717
0.792979
0.792714
0.792708
0.792708
0.792708
0.792708
0.792708
0.792708
0.792708
0.792708
0.792708
0.849333
0.847765
0.846191
0.844644
0.845804
0.846884
0.847601
0.848056
0.84833
0.848915
0.849654
0.849977
0.850022
0.849722
0.849007
0.847805
0.84605
0.843686
0.840678
0.837016
0.832731
0.827902
0.822661
0.817196
0.811733
0.806547
0.80193
0.798071
0.795058
0.793118
0.792718
0.792708
0.792708
0.792708
0.792708
0.792708
0.792708
0.792708
0.792708
0.792708
0.847855
0.846354
0.844848
0.843366
0.844483
0.845525
0.846227
0.846684
0.846972
0.847556
0.848288
0.84863
0.848714
0.848474
0.847842
0.846747
0.845122
0.842911
0.840075
0.8366
0.83251
0.827874
0.822813
0.817498
0.812146
0.807016
0.802398
0.798492
0.795404
0.793293
0.792725
0.792709
0.792708
0.792708
0.792708
0.792708
0.792708
0.792708
0.792708
0.792708
0.846438
0.845001
0.843558
0.84214
0.843215
0.844221
0.844907
0.845363
0.845663
0.846244
0.846966
0.847323
0.847439
0.847251
0.846694
0.845698
0.844196
0.842129
0.839457
0.836161
0.832259
0.827811
0.822927
0.817764
0.812527
0.807461
0.802853
0.798909
0.795755
0.7935
0.79274
0.792709
0.792708
0.792708
0.792708
0.792708
0.792708
0.792708
0.792708
0.792708
0.845081
0.843703
0.842321
0.840962
0.841997
0.842968
0.843638
0.844092
0.844401
0.844977
0.845687
0.846056
0.846199
0.846058
0.845568
0.844663
0.843274
0.841344
0.838827
0.835703
0.831983
0.827717
0.823005
0.817995
0.812876
0.807881
0.803292
0.799321
0.796107
0.793733
0.792766
0.792709
0.792708
0.792708
0.792708
0.792708
0.792708
0.792708
0.792708
0.792708
0.843778
0.842457
0.841133
0.83983
0.840828
0.841765
0.842418
0.842869
0.843184
0.843754
0.844451
0.844829
0.844995
0.844895
0.844466
0.843643
0.84236
0.840558
0.838188
0.835229
0.831683
0.827595
0.823052
0.818193
0.813195
0.808277
0.803715
0.799725
0.796458
0.793985
0.792808
0.792711
0.792709
0.792708
0.792708
0.792708
0.792708
0.792708
0.792708
0.792708
0.842528
0.841262
0.839991
0.838742
0.839703
0.840608
0.841246
0.841692
0.842012
0.842574
0.843258
0.843641
0.843827
0.843763
0.843389
0.842642
0.841457
0.839774
0.837546
0.834742
0.831364
0.827447
0.82307
0.818361
0.813485
0.808649
0.804122
0.800122
0.796807
0.794251
0.792869
0.792711
0.792708
0.792708
0.792708
0.792708
0.792708
0.792708
0.792708
0.792708
0.841329
0.840113
0.838894
0.837695
0.838621
0.839495
0.840117
0.840559
0.840882
0.841436
0.842106
0.842493
0.842695
0.842662
0.842338
0.84166
0.840566
0.838996
0.8369
0.834245
0.831027
0.827276
0.823061
0.818499
0.813747
0.808998
0.804512
0.800508
0.797152
0.794527
0.792956
0.792713
0.792708
0.792708
0.792708
0.792708
0.792708
0.792708
0.792708
0.792708
0.840177
0.83901
0.837839
0.836687
0.837581
0.838425
0.839031
0.839468
0.839793
0.840337
0.840993
0.841383
0.841598
0.841593
0.841313
0.840699
0.839689
0.838224
0.836252
0.83374
0.830677
0.827086
0.823029
0.818611
0.813983
0.809325
0.804885
0.800885
0.797493
0.794808
0.793071
0.792717
0.792708
0.792708
0.792708
0.792708
0.792708
0.792708
0.792708
0.792708
0.83907
0.837948
0.836824
0.835717
0.83658
0.837395
0.837986
0.838416
0.838742
0.839277
0.839918
0.840309
0.840536
0.840555
0.840315
0.839759
0.838826
0.83746
0.835606
0.833228
0.830314
0.826877
0.822973
0.818699
0.814193
0.80963
0.805242
0.80125
0.797831
0.795093
0.793214
0.792724
0.792709
0.792708
0.792708
0.792708
0.792708
0.792708
0.792708
0.792708
0.838005
0.836928
0.835846
0.834783
0.835615
0.836404
0.83698
0.837403
0.837729
0.838254
0.838881
0.839271
0.839507
0.839548
0.839344
0.83884
0.83798
0.836705
0.834962
0.832712
0.829939
0.826651
0.822897
0.818764
0.814381
0.809914
0.80558
0.801606
0.798165
0.795379
0.793383
0.792735
0.792709
0.792708
0.792708
0.792708
0.792708
0.792708
0.792708
0.792708
0.836982
0.835945
0.834906
0.833882
0.834686
0.835449
0.836009
0.836426
0.836751
0.837267
0.837879
0.838267
0.838511
0.838572
0.8384
0.837945
0.83715
0.835961
0.834322
0.832194
0.829555
0.826412
0.822802
0.818807
0.814546
0.810177
0.805903
0.80195
0.798494
0.795667
0.793571
0.792754
0.792709
0.792708
0.792708
0.792708
0.792708
0.792708
0.792708
0.792708
0.835997
0.834999
0.833998
0.833013
0.833791
0.834528
0.835075
0.835484
0.835808
0.836313
0.83691
0.837297
0.837548
0.837624
0.837482
0.837071
0.836338
0.835227
0.833687
0.831674
0.829164
0.826159
0.822691
0.818831
0.814691
0.81042
0.806209
0.802282
0.798818
0.795953
0.793774
0.792784
0.79271
0.792708
0.792708
0.792708
0.792708
0.792708
0.792708
0.792708
0.835049
0.834087
0.833124
0.832174
0.832926
0.83364
0.834173
0.834575
0.834897
0.835392
0.835976
0.836359
0.836614
0.836705
0.83659
0.836219
0.835543
0.834506
0.833058
0.831154
0.828768
0.825894
0.822563
0.818835
0.814816
0.810644
0.8065
0.802603
0.799135
0.796236
0.79399
0.792828
0.792711
0.792709
0.792708
0.792708
0.792708
0.792708
0.792708
0.792708
0.834134
0.833209
0.832279
0.831363
0.832091
0.832784
0.833303
0.833698
0.834017
0.834502
0.835071
0.835451
0.835711
0.835814
0.835723
0.83539
0.834765
0.833798
0.832435
0.830634
0.828365
0.825621
0.82242
0.818822
0.814921
0.810849
0.806774
0.802912
0.799444
0.796517
0.794214
0.79289
0.792712
0.792708
0.792708
0.792708
0.792708
0.792708
0.792708
0.792708
0.833253
0.83236
0.831463
0.830578
0.831284
0.831956
0.832462
0.832851
0.833167
0.833642
0.834197
0.834573
0.834835
0.83495
0.83488
0.834581
0.834006
0.833102
0.831821
0.830116
0.827959
0.825337
0.822264
0.818792
0.815008
0.811036
0.807033
0.803209
0.799746
0.796795
0.794443
0.792973
0.792714
0.792708
0.792708
0.792708
0.792708
0.792708
0.792708
0.792708
0.832402
0.831539
0.830673
0.829819
0.830504
0.831156
0.83165
0.832032
0.832346
0.83281
0.833352
0.833724
0.833988
0.834113
0.834062
0.833795
0.833263
0.83242
0.831214
0.829602
0.82755
0.825045
0.822096
0.818747
0.815078
0.811205
0.807278
0.803494
0.800042
0.797069
0.794675
0.793078
0.792718
0.792708
0.792708
0.792708
0.792708
0.792708
0.792708
0.792708
0.83158
0.830747
0.829909
0.829082
0.829748
0.830381
0.830865
0.83124
0.831551
0.832006
0.832535
0.832902
0.833166
0.8333
0.833267
0.833029
0.832539