/*--------------------------------*- C++ -*----------------------------------*\
| =========                 |                                                 |
| \\      /  F ield         | OpenFOAM: The Open Source CFD Toolbox           |
|  \\    /   O peration     | Version:  1.6.x                                 |
|   \\  /    A nd           | Web:      www.OpenFOAM.org                      |
|    \\/     M anipulation  |                                                 |
\*---------------------------------------------------------------------------*/
FoamFile
{
    version     2.0;
    format      ascii;
    class       volScalarField;
    location    "7000";
    object      YStar(CO2);
}
// * * * * * * * * * * * * * * * * * * * * * * * * * * * * * * * * * * * * * //

dimensions      [0 0 0 0 0 0 0];

internalField   nonuniform List<scalar> 
4608
(
0.135199
0.135198
0.135198
0.135565
0.135198
0.135198
0.135198
0.135218
0.135704
0.137238
0.135198
0.135198
0.135198
0.135198
0.1352
0.135244
0.135775
0.137022
0.141253
0.135198
0.135198
0.135198
0.135198
0.135198
0.135202
0.13527
0.135819
0.136851
0.140011
0.112323
0.138538
0.135198
0.135198
0.135198
0.135198
0.135199
0.135206
0.135298
0.135863
0.136741
0.139433
0.143926
0.110181
0.109822
0.106563
0.135198
0.135198
0.135198
0.135198
0.135199
0.135211
0.135326
0.135885
0.136763
0.139066
0.142828
0.127963
0.109729
0.109805
0.1098
0.0764058
0.135198
0.135198
0.135198
0.135198
0.1352
0.135218
0.135354
0.135865
0.136605
0.138923
0.142193
0.146262
0.0818176
0.109372
0.109799
0.1098
0.1098
0.0378862
0.135198
0.135198
0.135198
0.135198
0.135202
0.135226
0.135375
0.135835
0.136388
0.138596
0.141969
0.145603
0.0955828
0.0500362
0.109795
0.1098
0.1098
0.1098
0.0181716
0.135198
0.135198
0.135198
0.135198
0.135204
0.135234
0.13539
0.135823
0.136336
0.138151
0.14157
0.145302
0.112688
0.0631282
0.0308842
0.1098
0.1098
0.1098
0.1098
0.00490697
0.135198
0.135198
0.135198
0.135198
0.135207
0.135242
0.135402
0.135832
0.13637
0.137969
0.140909
0.144806
0.12606
0.0789189
0.0429619
0.013758
0.1098
0.1098
0.1098
0.1098
0.000576754
0.135198
0.135198
0.135198
0.135198
0.13521
0.13525
0.135413
0.135875
0.136428
0.137944
0.14057
0.143997
0.142547
0.0920895
0.0570097
0.0226506
0.00369654
0.1098
0.1098
0.1098
0.1098
4.82947e-05
0.135198
0.135198
0.135198
0.135198
0.135214
0.135258
0.135425
0.135894
0.136545
0.137979
0.140467
0.143505
0.147325
0.108137
0.0698791
0.0335697
0.00849116
0.000433735
0.1098
0.1098
0.1098
0.1098
9.01048e-06
0.135198
0.135198
0.135198
0.135198
0.135218
0.135266
0.135438
0.135877
0.136579
0.138085
0.140449
0.143277
0.146627
0.130662
0.0848837
0.044814
0.0156689
0.00154309
4.07716e-05
0.1098
0.1098
0.1098
0.1098
2.82889e-06
0.135198
0.135198
0.135198
0.135198
0.135222
0.135274
0.135446
0.135895
0.13651
0.138141
0.140515
0.143146
0.146215
0.147556
0.105622
0.0577174
0.0245453
0.00421564
0.000135443
8.14815e-06
0.1098
0.1098
0.1098
0.1098
1.07465e-06
0.135198
0.135198
0.135198
0.135198
0.135227
0.135281
0.135454
0.135951
0.136533
0.138086
0.140534
0.143108
0.145916
0.148101
0.122459
0.0761546
0.0352381
0.00951539
0.000452063
1.83361e-05
2.75202e-06
0.1098
0.1098
0.1098
0.1098
4.19332e-07
0.135198
0.135198
0.135198
0.135198
0.135232
0.135287
0.135465
0.136052
0.136623
0.138083
0.140434
0.143049
0.145735
0.147685
0.135146
0.091828
0.0503712
0.0173755
0.00171439
4.1038e-05
5.07525e-06
1.13187e-06
0.1098
0.1098
0.1098
0.1098
1.58146e-07
0.135198
0.135198
0.135198
0.135198
0.135237
0.135293
0.135485
0.136162
0.136769
0.138142
0.140384
0.14289
0.14557
0.147402
0.145819
0.104337
0.064192
0.0290158
0.00507797
0.000126815
8.55595e-06
1.99922e-06
4.78046e-07
0.1098
0.1098
0.1098
0.1098
5.64206e-08
0.135198
0.135198
0.135198
0.135198
0.135242
0.135299
0.135507
0.136249
0.136907
0.138257
0.140393
0.142773
0.145325
0.147151
0.148655
0.115442
0.075749
0.0404625
0.0128244
0.000544496
1.54356e-05
3.05869e-06
8.78887e-07
1.92744e-07
0.1098
0.1098
0.1098
0.1098
1.88722e-08
0.135198
0.135198
0.135198
0.135198
0.135247
0.135306
0.135529
0.136358
0.137001
0.138377
0.140453
0.142712
0.145123
0.146829
0.148338
0.124561
0.0866419
0.0507112
0.0218066
0.00298933
3.857e-05
4.42008e-06
1.34107e-06
3.83215e-07
7.21021e-08
0.1098
0.1098
0.1098
0.1098
5.88513e-09
0.135198
0.135198
0.135198
0.135198
0.135251
0.135313
0.135569
0.13649
0.137122
0.138466
0.14052
0.142699
0.144981
0.146564
0.14797
0.132768
0.0959977
0.0605941
0.0304395
0.00828504
0.000231416
7.30208e-06
1.84786e-06
6.10486e-07
1.56861e-07
2.4741e-08
0.1098
0.1098
0.1098
0.1098
1.70165e-09
0.135198
0.135198
0.135198
0.135256
0.135321
0.135627
0.136644
0.137262
0.138568
0.140561
0.142697
0.144888
0.146368
0.147656
0.141608
0.104628
0.0695931
0.0388746
0.0147857
0.00140057
1.77996e-05
2.61848e-06
8.5861e-07
2.66821e-07
5.87875e-08
7.74463e-09
0.1098
0.1098
0.1098
0.1098
4.53375e-10
0.135198
0.135198
0.135261
0.135331
0.135707
0.136827
0.13742
0.13868
0.140615
0.142678
0.144813
0.146222
0.147413
0.149173
0.113833
0.0781837
0.0469409
0.0217007
0.00427589
7.88446e-05
4.09536e-06
1.17512e-06
3.94203e-07
1.07695e-07
1.99457e-08
2.20183e-09
0.1098
0.1098
0.1098
0.1098
1.10521e-10
0.135198
0.135265
0.135346
0.135819
0.13704
0.137603
0.138805
0.140683
0.142674
0.144727
0.146098
0.147224
0.14887
0.122034
0.0873943
0.0547888
0.0285427
0.00893312
0.000420313
8.08768e-06
1.60713e-06
5.47461e-07
1.69287e-07
3.93578e-08
6.08978e-09
5.65826e-10
0.1098
0.1098
0.1098
0.1098
2.44646e-11
0.13527
0.135369
0.135972
0.137279
0.137811
0.138948
0.140762
0.142685
0.144658
0.145967
0.14706
0.148622
0.129105
0.0956835
0.0633057
0.0352799
0.0142901
0.00173072
2.23946e-05
2.29062e-06
7.33886e-07
2.44406e-07
6.61059e-08
1.28906e-08
1.66541e-09
1.30725e-10
0.1098
0.1098
0.1098
0.1098
4.87857e-12
0.135276
0.135408
0.136169
0.137538
0.138038
0.139112
0.140859
0.14271
0.144609
0.145856
0.146896
0.148403
0.135267
0.102962
0.0712987
0.0425682
0.0198521
0.00444431
9.83993e-05
3.75296e-06
9.62633e-07
3.34359e-07
1.00447e-07
2.31201e-08
3.75993e-09
4.06051e-10
2.69905e-11
0.1098
0.1098
0.1098
8.69383e-13
0.135285
0.135474
0.136411
0.13782
0.138283
0.139293
0.140974
0.142754
0.144576
0.145767
0.146752
0.148191
0.140822
0.109487
0.0784532
0.0496912
0.0258343
0.00831291
0.0004764
7.82213e-06
1.30286e-06
4.38682e-07
1.4271e-07
3.71604e-08
7.17911e-09
9.71726e-10
8.78152e-11
4.94837e-12
0.1098
0.1098
1.37365e-13
0.135298
0.135584
0.136695
0.138122
0.138547
0.139491
0.141104
0.142815
0.144563
0.145698
0.146633
0.148002
0.146147
0.115475
0.0850215
0.0563382
0.0318202
0.0129115
0.001638
2.20808e-05
1.90743e-06
5.68388e-07
1.92629e-07
5.53074e-08
1.22149e-08
1.96707e-09
2.21406e-10
1.67537e-11
8.00349e-13
0.1098
1.90969e-14
0.135322
0.135759
0.137019
0.138445
0.138826
0.139706
0.141248
0.142891
0.144569
0.145649
0.146535
0.147842
0.149338
0.12122
0.091153
0.0626054
0.0376435
0.0177695
0.00396898
8.91747e-05
3.18936e-06
7.45816e-07
2.51885e-07
7.76624e-08
1.91164e-08
3.53778e-09
4.73029e-10
4.42462e-11
2.80388e-12
1.13447e-13
2.31896e-15
0.135368
0.136012
0.137376
0.138789
0.139122
0.139935
0.141407
0.142981
0.144591
0.14562
0.146458
0.147704
0.149135
0.126492
0.0970781
0.0686117
0.0432766
0.0226127
0.00730277
0.000401182
6.5863e-06
1.0189e-06
3.24831e-07
1.04578e-07
2.8068e-08
5.82679e-09
8.96941e-10
9.93093e-11
7.71518e-12
4.09266e-13
1.40019e-14
2.44288e-16
0.13546
0.136352
0.137765
0.139155
0.139436
0.140178
0.141578
0.143084
0.144626
0.145607
0.1464
0.147588
0.148955
0.131298
0.102571
0.0744978
0.0487604
0.0273782
0.0110469
0.00135513
1.76065e-05
1.50986e-06
4.20407e-07
1.37051e-07
3.9259e-08
8.96494e-09
1.55346e-09
1.97898e-10
1.8109e-11
1.16763e-12
5.18032e-14
1.49545e-15
2.21829e-17
0.135644
0.136769
0.138189
0.139543
0.139767
0.140437
0.141762
0.1432
0.144676
0.145609
0.146361
0.147492
0.148798
0.135694
0.107639
0.0800019
0.0541761
0.0321274
0.0149322
0.00317805
6.64797e-05
2.51685e-06
5.57574e-07
1.77174e-07
5.3003e-08
1.30768e-08
2.50564e-09
3.59779e-10
3.77915e-11
2.85355e-12
1.52576e-13
5.65451e-15
1.37397e-16
1.72623e-18
0.135996
0.137259
0.13865
0.139956
0.140117
0.14071
0.141958
0.143328
0.144739
0.145627
0.146337
0.147416
0.148663
0.139666
0.112355
0.0851187
0.0593752
0.0368837
0.0188717
0.00576446
0.000276501
5.01518e-06
7.71273e-07
2.29143e-07
6.98848e-08
1.83056e-08
3.81803e-09
6.07945e-10
7.19444e-11
6.21374e-12
3.86642e-13
1.71274e-14
5.29411e-16
1.08002e-17
1.14511e-19
0.136547
0.137818
0.139148
0.140391
0.140487
0.140999
0.142165
0.143467
0.144815
0.145658
0.146329
0.147357
0.148548
0.143219
0.116705
0.0899455
0.0643285
0.0415416
0.0228254
0.00873978
0.000908274
1.21667e-05
1.13948e-06
2.99999e-07
9.10027e-08
2.48536e-08
5.55966e-09
9.68069e-10
1.27175e-10
1.23522e-11
8.75324e-13
4.48336e-14
1.64359e-15
4.23031e-17
7.2271e-19
6.44434e-21
0.137237
0.138428
0.139673
0.140844
0.140876
0.141304
0.142383
0.143616
0.144901
0.145703
0.146337
0.147315
0.148452
0.146381
0.120681
0.0944775
0.0690771
0.0460628
0.0267769
0.011904
0.00215292
3.8146e-05
1.84228e-06
4.01584e-07
1.18185e-07
3.30454e-08
7.81232e-09
1.46856e-09
2.11504e-10
2.27956e-11
1.8115e-12
1.05156e-13
4.42891e-15
1.34216e-16
2.87161e-18
4.09815e-20
3.06383e-22
0.137977
0.139063
0.140213
0.141306
0.141282
0.141625
0.142613
0.143774
0.144998
0.145759
0.146358
0.14729
0.148375
0.149163
0.124294
0.0986969
0.0736076
0.0504583
0.0307034
0.0151442
0.00405969
0.000140934
3.37582e-06
5.55354e-07
1.54248e-07
4.34049e-08
1.06851e-08
2.14176e-09
3.34377e-10
3.95452e-11
3.48185e-12
2.25862e-13
1.07264e-14
3.71148e-16
9.28726e-18
1.64895e-19
1.96134e-21
1.22581e-23
0.138712
0.139698
0.140754
0.141771
0.141699
0.141961
0.142855
0.143941
0.145103
0.145825
0.146391
0.147279
0.148316
0.149505
0.127541
0.1026
0.0778947
0.0547159
0.034582
0.018386
0.00638972
0.000475415
7.19245e-06
8.04005e-07
2.0364e-07
5.67289e-08
1.43372e-08
3.02655e-09
5.06827e-10
6.51226e-11
6.28946e-12
4.50969e-13
2.38386e-14
9.25312e-16
2.62822e-17
5.42426e-19
7.97956e-21
7.88809e-23
3.77671e-25
0.139418
0.140319
0.141288
0.142232
0.142122
0.142311
0.143109
0.144117
0.145215
0.145899
0.146434
0.147281
0.148272
0.149411
0.130441
0.10617
0.0819201
0.0588137
0.0383989
0.0216233
0.00891052
0.00121963
1.81143e-05
1.24386e-06
2.73461e-07
7.42169e-08
1.90015e-08
4.17384e-09
7.41878e-10
1.02624e-10
1.07765e-11
8.46438e-13
4.93115e-14
2.1216e-15
6.726e-17
1.56702e-18
2.66466e-20
3.23778e-22
2.43178e-24
3.24798e-27
0.140089
0.140916
0.141809
0.142685
0.142546
0.142671
0.143375
0.144304
0.145336
0.145981
0.146486
0.147294
0.148241
0.149333
0.133028
0.10942
0.0856565
0.0627467
0.042135
0.0248718
0.0115234
0.00246827
5.66965e-05
2.08076e-06
3.76446e-07
9.76442e-08
2.50211e-08
5.65255e-09
1.05561e-09
1.55801e-10
1.76478e-11
1.50658e-12
9.59481e-14
4.53447e-15
1.58664e-16
4.10592e-18
7.84108e-20
1.09453e-21
9.9644e-24
2.68116e-26
0.140724
0.141488
0.142312
0.143127
0.142965
0.143037
0.143652
0.144501
0.145466
0.146071
0.146546
0.147315
0.148221
0.149268
0.135328
0.112389
0.0891119
0.066484
0.0457752
0.0281127
0.0141888
0.00415337
0.000188747
3.90404e-06
5.33106e-07
1.29791e-07
3.28972e-08
7.5599e-09
1.46842e-09
2.29265e-10
2.77963e-11
2.56119e-12
1.77068e-13
9.12452e-15
3.49466e-16
9.93953e-18
2.09854e-19
3.27009e-21
3.37015e-23
1.18521e-25
0.141324
0.142033
0.142796
0.143555
0.143377
0.143406
0.143939
0.144708
0.145605
0.14617
0.146614
0.147345
0.148211
0.149215
0.137365
0.115102
0.0923235
0.0699973
0.0492934
0.0313206
0.0168578
0.00610133
0.000535968
8.21163e-06
7.87709e-07
1.74639e-07
4.33722e-08
1.00348e-08
2.00739e-09
3.28708e-10
4.23483e-11
4.18325e-12
3.1202e-13
1.74224e-14
7.255e-16
2.25047e-17
5.20068e-19
8.90794e-21
1.01051e-22
4.16292e-25
0.141891
0.142551
0.143261
0.14397
0.143781
0.143773
0.144232
0.144925
0.145754
0.146277
0.14669
0.147384
0.148211
0.149173
0.139161
0.117575
0.0953161
0.073312
0.0526643
0.0344741
0.0195307
0.00818437
0.00120472
1.98093e-05
1.22467e-06
2.38753e-07
5.74904e-08
1.32775e-08
2.70956e-09
4.61379e-10
6.27067e-11
6.59972e-12
5.27945e-13
3.17675e-14
1.43017e-15
4.80875e-17
1.20765e-18
2.25154e-20
2.77106e-22
1.27832e-24
0.142428
0.143044
0.143707
0.144371
0.144173
0.144137
0.14453
0.145151
0.145912
0.146395
0.146775
0.14743
0.148218
0.14914
0.14074
0.119823
0.0981024
0.07645
0.0558923
0.0375519
0.0222103
0.0103383
0.00225933
5.61948e-05
2.02707e-06
3.32236e-07
7.67826e-08
1.75721e-08
3.62669e-09
6.36762e-10
9.064e-11
1.01019e-11
8.62073e-13
5.56055e-14
2.69315e-15
9.76523e-17
2.65002e-18
5.34131e-20
7.06971e-22
3.56949e-24
0.142935
0.143513
0.144134
0.144757
0.144554
0.144495
0.14483
0.145384
0.146081
0.146522
0.14687
0.147486
0.148234
0.149117
0.142124
0.121863
0.100687
0.0794213
0.0589879
0.0405464
0.0248796
0.012534
0.0036404
0.000166919
3.66167e-06
4.71813e-07
1.03417e-07
2.33224e-08
4.83141e-09
8.67581e-10
1.28408e-10
1.50626e-11
1.3641e-12
9.38823e-14
4.8687e-15
1.89535e-16
5.53156e-18
1.19896e-19
1.69664e-21
9.25119e-24
0.143417
0.14396
0.144543
0.14513
0.144924
0.144846
0.14513
0.145624
0.146258
0.146659
0.146975
0.14755
0.148259
0.149102
0.143326
0.123714
0.103084
0.0822175
0.0619585
0.0434575
0.0275193
0.0147348
0.00522845
0.000436025
7.2095e-06
6.91006e-07
1.40468e-07
3.10932e-08
6.426e-09
1.17122e-09
1.78948e-10
2.19589e-11
2.09955e-12
1.53484e-13
8.48811e-15
3.53255e-16
1.10425e-17
2.56244e-19
3.86e-21
2.25357e-23
0.143874
0.144387
0.144935
0.14549
0.145282
0.14519
0.145429
0.145867
0.146444
0.146806
0.147089
0.147625
0.148293
0.149096
0.14435
0.125389
0.105307
0.0848523
0.0648199
0.0462879
0.0301223
0.0169334
0.00692977
0.000940655
1.57e-05
1.04958e-06
1.92791e-07
4.16578e-08
8.55346e-09
1.57169e-09
2.46154e-10
3.14051e-11
3.15396e-12
2.43829e-13
1.43231e-14
6.34958e-16
2.11757e-17
5.24089e-19
8.3741e-21
5.20388e-23
0.144309
0.144794
0.145312
0.145837
0.145629
0.145525
0.145726
0.146114
0.146636
0.146961
0.147214
0.14771
0.148337
0.149099
0.145195
0.126893
0.107367
0.0873385
0.0675683
0.0490418
0.0326895
0.0191346
0.00869318
0.00173282
3.92967e-05
1.66635e-06
2.67505e-07
5.61162e-08
1.14113e-08
2.10233e-09
3.35265e-10
4.42004e-11
4.63859e-12
3.77592e-13
2.34706e-14
1.10446e-15
3.91683e-17
1.03014e-18
1.74066e-20
1.14622e-22
0.144723
0.145183
0.145674
0.146172
0.145965
0.145851
0.146019
0.146362
0.146834
0.147124
0.147347
0.147804
0.148392
0.149112
0.145856
0.128226
0.109268
0.0896812
0.070202
0.0517181
0.0352186
0.0213467
0.010493
0.0027928
0.000106228
2.82489e-06
3.75657e-07
7.59828e-08
1.52734e-08
2.80927e-09
4.53417e-10
6.13973e-11
6.69822e-12
5.71642e-13
3.74598e-14
1.86491e-15
7.0107e-17
1.95362e-18
3.4804e-20
2.42001e-22
0.145119
0.145556
0.146023
0.146496
0.14629
0.146169
0.146307
0.146611
0.147036
0.147294
0.147489
0.147909
0.148456
0.149136
0.146327
0.129384
0.11101
0.0918792
0.0727165
0.054315
0.0377055
0.0235564
0.012317
0.0040456
0.000268626
5.13208e-06
5.37978e-07
1.0334e-07
2.05152e-08
3.75633e-09
6.10389e-10
8.43994e-11
9.52213e-12
8.48276e-13
5.83882e-14
3.06539e-15
1.21788e-16
3.58567e-18
6.71914e-20
4.91654e-22
0.145498
0.145914
0.146358
0.146809
0.146604
0.146478
0.146591
0.146858
0.147242
0.14747
0.147639
0.148022
0.14853
0.14917
0.146601
0.130362
0.112592
0.0939369
0.0751022
0.0568363
0.0401473
0.0257552
0.0141467
0.00541315
0.000587518
9.94295e-06
7.90579e-07
1.4131e-07
2.76434e-08
5.03132e-09
8.19632e-10
1.15097e-10
1.33596e-11
1.23688e-12
8.90986e-14
4.91732e-15
2.05883e-16
6.3871e-18
1.2561e-19
9.64798e-22
0.14586
0.146258
0.146682
0.147112
0.14691
0.146778
0.146869
0.147105
0.14745
0.14765
0.147795
0.148144
0.148615
0.149214
0.146676
0.131154
0.114009
0.0958529
0.0773707
0.0592888
0.0425435
0.0279406
0.0159856
0.00685347
0.00110591
2.13617e-05
1.19483e-06
1.94448e-07
3.73571e-08
6.75389e-09
1.09964e-09
1.56057e-10
1.85414e-11
1.77618e-12
1.3341e-13
7.71587e-15
3.39504e-16
1.10697e-17
2.27985e-19
1.83381e-21
0.146209
0.146589
0.146994
0.147406
0.147206
0.147071
0.147142
0.147349
0.147659
0.147835
0.147957
0.148274
0.148708
0.149268
0.14655
0.131754
0.115253
0.0976212
0.0795203
0.0616596
0.044894
0.0301111
0.0178398
0.00833807
0.00184933
5.09794e-05
1.88491e-06
2.69123e-07
5.06149e-08
9.0873e-09
1.47576e-09
2.1078e-10
2.55104e-11
2.51738e-12
1.96422e-13
1.18679e-14
5.47295e-16
1.87089e-17
4.02698e-19
3.3848e-21
0.146543
0.146908
0.147296
0.147691
0.147493
0.147355
0.14741
0.147591
0.14787
0.148022
0.148124
0.148411
0.14881
0.149331
0.146225
0.132161
0.116321
0.0992362
0.0815418
0.0639383
0.047194
0.0322632
0.0197103
0.00985622
0.00278442
0.000125239
3.1423e-06
3.76106e-07
6.8692e-08
1.22532e-08
1.98266e-09
2.84051e-10
3.48634e-11
3.52849e-12
2.84931e-13
1.79285e-14
8.64197e-16
3.08986e-17
6.93688e-19
6.08086e-21
0.146866
0.147217
0.147589
0.147969
0.147772
0.147633
0.147672
0.14783
0.14808
0.148211
0.148295
0.148553
0.14892
0.149404
0.145706
0.132373
0.117207
0.100693
0.0834319
0.0661063
0.0494406
0.0343923
0.021587
0.0113976
0.00385577
0.000284725
5.51376e-06
5.3411e-07
9.33858e-08
1.65486e-08
2.66758e-09
3.82416e-10
4.74088e-11
4.90026e-12
4.07983e-13
2.66498e-14
1.33911e-15
4.99598e-17
1.16761e-18
1.06547e-20
0.147177
0.147515
0.147873
0.148238
0.148044
0.147903
0.147929
0.148066
0.14829
0.148402
0.148469
0.148701
0.149036
0.149486
0.145003
0.132393
0.117909
0.101984
0.0851859
0.0681689
0.0516387
0.0364946
0.0234635
0.0129499
0.00501666
0.000571185
1.02096e-05
7.73219e-07
1.27312e-07
2.23729e-08
3.59445e-09
5.14811e-10
6.42459e-11
6.75454e-12
5.7764e-13
3.90451e-14
2.03972e-15
7.92221e-17
1.92374e-18
1.82418e-20
0.147478
0.147803
0.148149
0.148501
0.148309
0.148166
0.14818
0.148299
0.148499
0.148593
0.148645
0.148853
0.149159
0.149575
0.144124
0.132226
0.118426
0.103108
0.0867961
0.0701218
0.0537695
0.0385686
0.0253368
0.0145159
0.00623713
0.00101783
2.06208e-05
1.14478e-06
1.74089e-07
3.02707e-08
4.84951e-09
6.93406e-10
8.68723e-11
9.25563e-12
8.10026e-13
5.64762e-14
3.05892e-15
1.23399e-16
3.10753e-18
3.05686e-20
0.147769
0.148084
0.148417
0.148758
0.148568
0.148424
0.148427
0.148529
0.148706
0.148785
0.148823
0.149008
0.149287
0.149672
0.143081
0.131879
0.118761
0.10406
0.0882576
0.0719532
0.0558211
0.0406059
0.0272048
0.0160997
0.00749754
0.00164153
4.57024e-05
1.75567e-06
2.38765e-07
4.09704e-08
6.54916e-09
9.3472e-10
1.17328e-10
1.26259e-11
1.12676e-12
8.07709e-14
4.52338e-15
1.89088e-16
4.92897e-18
5.02151e-20
0.148051
0.148356
0.148679
0.149009
0.148821
0.148676
0.148669
0.148755
0.148913
0.148977
0.149002
0.149166
0.14942
0.149775
0.141887
0.131361
0.118918
0.104841
0.0895669
0.0736592
0.0577699
0.0425984
0.0290617
0.017702
0.00878997
0.00242018
0.000104495
2.81939e-06
3.29606e-07
5.54344e-08
8.84933e-09
1.26113e-09
1.5839e-10
1.71673e-11
1.55696e-12
1.14384e-13
6.60494e-15
2.85439e-16
7.6873e-18
8.09778e-20
0.148325
0.148621
0.148934
0.149255
0.149068
0.148922
0.148906
0.148979
0.149118
0.149168
0.149182
0.149327
0.149557
0.148447
0.140552
0.130681
0.118903
0.105453
0.0907214
0.0752359
0.0596202
0.0445512
0.0309009
0.0193141
0.0101076
0.00331525
0.000225928
4.72276e-06
4.60379e-07
7.50001e-08
1.19572e-08
1.7028e-09
2.13834e-10
2.329e-11
2.13991e-12
1.60616e-13
9.53626e-15
4.25041e-16
1.18042e-17
1.28364e-19
0.148592
0.14888
0.149185
0.149496
0.149311
0.149164
0.14914
0.149199
0.149321
0.149359
0.149362
0.14949
0.149698
0.146414
0.139091
0.129848
0.118721
0.105896
0.0917199
0.0766788
0.0613682
0.046445
0.0327192
0.0209286
0.0114374
0.00429051
0.000441801
8.23895e-06
6.52435e-07
1.01566e-07
1.61497e-08
2.30024e-09
2.88777e-10
3.15517e-11
2.9288e-12
2.23907e-13
1.36314e-14
6.25118e-16
1.78679e-17
2.00262e-19
0.148853
0.149133
0.14943
0.149581
0.149549
0.149401
0.149369
0.149416
0.149523
0.14955
0.149543
0.149654
0.149306
0.144296
0.137517
0.128873
0.11838
0.106177
0.0925624
0.0779842
0.0630065
0.0482681
0.0345082
0.0225412
0.0127792
0.0053227
0.000777906
1.53406e-05
9.40176e-07
1.37714e-07
2.17997e-08
3.10768e-09
3.90138e-10
4.27104e-11
3.99578e-12
3.10252e-13
1.9314e-14
9.09115e-16
2.66926e-17
3.07846e-19
0.149107
0.149381
0.149671
0.145325
0.14877
0.149634
0.149595
0.149631
0.149722
0.149739
0.149723
0.14971
0.146672
0.142104
0.135841
0.127772
0.117888
0.106297
0.0932504
0.0791502
0.0645288
0.0500051
0.0362594
0.0241481
0.0141345
0.00639322
0.00125636
3.10314e-05
1.3901e-06
1.86948e-07
2.94019e-08
4.19776e-09
5.27243e-10
5.77948e-11
5.43884e-12
4.27755e-13
2.71556e-14
1.30884e-15
3.93968e-17
4.66783e-19
0.149357
0.149625
0.146303
0.141231
0.144561
0.14752
0.148795
0.148721
0.14754
0.147559
0.148097
0.146683
0.143996
0.139848
0.134073
0.126554
0.117257
0.106264
0.0937846
0.0801762
0.0659327
0.0516482
0.0379704
0.0257431
0.0155057
0.00749277
0.00186943
6.66036e-05
2.13151e-06
2.54622e-07
3.96087e-08
5.66705e-09
7.1264e-10
7.81985e-11
7.39097e-12
5.87395e-13
3.79283e-14
1.86737e-15
5.75088e-17
6.98853e-19
0.149602
0.147022
0.142154
0.137281
0.140508
0.143368
0.144655
0.144748
0.143851
0.14407
0.144774
0.143638
0.141285
0.137535
0.132224
0.125229
0.1165
0.106086
0.0941679
0.0810608
0.0672159
0.0531979
0.0396336
0.0273209
0.0168863
0.00861682
0.0025924
0.00014074
3.39807e-06
3.49337e-07
5.32999e-08
7.64414e-09
9.63113e-10
1.05805e-10
1.00326e-11
8.04059e-13
5.26756e-14
2.64289e-15
8.31072e-17
1.03411e-18
0.147385
0.142834
0.13815
0.133475
0.1366
0.139372
0.140665
0.140871
0.140197
0.140595
0.141454
0.140576
0.138542
0.135172
0.130303
0.123808
0.115622
0.105773
0.0944072
0.0818042
0.0683753
0.0546506
0.0412361
0.0288749
0.0182686
0.00975536
0.00339374
0.000277287
5.59117e-06
4.84475e-07
7.16998e-08
1.02992e-08
1.30123e-09
1.43151e-10
1.36085e-11
1.09791e-12
7.28094e-14
3.71405e-15
1.19009e-16
1.51373e-18
0.143178
0.138791
0.134291
0.12981
0.132833
0.135522
0.136821
0.137112
0.136612
0.137148
0.138142
0.137505
0.135773
0.132764
0.128316
0.122298
0.114635
0.105333
0.0945103
0.0824099
0.0694083
0.0560005
0.042769
0.0303971
0.0196464
0.0109022
0.00425286
0.000497896
9.57515e-06
6.80067e-07
9.64912e-08
1.38593e-08
1.75696e-09
1.93668e-10
1.84494e-11
1.49633e-12
1.00241e-13
5.18707e-15
1.69022e-16
2.19388e-18
0.139116
0.134894
0.130576
0.126287
0.129208
0.131815
0.133116
0.133479
0.13312
0.133757
0.134851
0.134434
0.132983
0.130317
0.12627
0.120707
0.113546
0.104774
0.0944828
0.0828832
0.0703158
0.0572427
0.0442211
0.0318802
0.0210145
0.0120565
0.00515246
0.000823845
1.74474e-05
9.70066e-07
1.29905e-07
1.86278e-08
2.37028e-09
2.61944e-10
2.50053e-11
2.03636e-12
1.3756e-13
7.20541e-15
2.38285e-16
3.15078e-18
0.1352
0.131142
0.127004
0.1229
0.125721
0.128247
0.129548
0.129973
0.129732
0.130443
0.131605
0.131373
0.130181
0.127836
0.124171
0.119043
0.112363
0.104103
0.0943313
0.0832284
0.0711004
0.0583762
0.045585
0.0333206
0.022368
0.0132185
0.00607993
0.00126452
3.42353e-05
1.41863e-06
1.75037e-07
2.50027e-08
3.19448e-09
3.54134e-10
3.38811e-11
2.76856e-12
1.88267e-13
9.9629e-15
3.33721e-16
4.48748e-18
0.13143
0.127536
0.123573
0.119646
0.122369
0.124815
0.126114
0.126593
0.126455
0.127222
0.128426
0.128342
0.127376
0.12533
0.122024
0.117313
0.111094
0.103328
0.0940625
0.0834502
0.0717648
0.0594017
0.0468614
0.0347129
0.0237018
0.0143872
0.0070284
0.00181022
6.97741e-05
2.14529e-06
2.36607e-07
3.35085e-08
4.30011e-09
4.78473e-10
4.58923e-11
3.76108e-12
2.57139e-13
1.37208e-14
4.64653e-16
6.343e-18
0.127806
0.124071
0.120277
0.11652
0.119148
0.121517
0.12281
0.123336
0.12329
0.124099
0.125328
0.125362
0.124586
0.122808
0.119839
0.115522
0.109745
0.102456
0.0936828
0.0835537
0.0723117
0.06032
0.0480494
0.0360465
0.0250102
0.0155564
0.00799354
0.00243993
0.00013895
3.34798e-06
3.21965e-07
4.48576e-08
5.78039e-09
6.45949e-10
6.2136e-11
5.1062e-12
3.50621e-13
1.88348e-14
6.43592e-16
8.9043e-18
0.124325
0.120745
0.117112
0.113517
0.116053
0.118346
0.119631
0.120198
0.120233
0.121076
0.12232
0.122449
0.121831
0.120285
0.117624
0.113679
0.108324
0.101494
0.093199
0.0835441
0.0727444
0.0611317
0.0491476
0.0373154
0.0262864
0.0167192
0.00896613
0.00313076
0.000259524
5.35748e-06
4.41978e-07
6.00298e-08
7.75933e-09
8.71189e-10
8.40853e-11
6.92856e-12
4.7745e-13
2.57833e-14
8.87497e-16
1.24217e-17
0.120983
0.117551
0.114072
0.110631
0.113078
0.115298
0.116573
0.117175
0.117283
0.118154
0.119404
0.119611
0.119125
0.117779
0.115393
0.111793
0.106838
0.100449
0.0926175
0.083427
0.0730665
0.0618381
0.0501546
0.0385153
0.0275241
0.0178696
0.00994093
0.00386719
0.000447537
8.85517e-06
6.12622e-07
8.03433e-08
1.0402e-08
1.17367e-09
1.13713e-10
9.39628e-12
6.49452e-13
3.5214e-14
1.21907e-15
1.72338e-17
0.117775
0.114485
0.111153
0.107858
0.110219
0.112368
0.113631
0.114263
0.114435
0.115328
0.11658
0.116853
0.11648
0.115306
0.113162
0.109875
0.105296
0.0993279
0.0919445
0.083208
0.073282
0.0624409
0.0510688
0.0396425
0.0287184
0.0190029
0.0109161
0.00463492
0.000719903
1.53941e-05
8.60336e-07
1.0753e-07
1.39275e-08
1.5793e-09
1.53659e-10
1.27357e-11
8.82618e-13
4.80024e-14
1.66889e-15
2.37916e-17
0.114696
0.111541
0.108348
0.105192
0.107471
0.109551
0.1108
0.111457
0.111686
0.112596
0.113846
0.114176
0.113901
0.112878
0.110946
0.10794
0.103709
0.0981392
0.0911871
0.0828928
0.0733956
0.0629428
0.0518906
0.0406906
0.0298649
0.020115
0.0118914
0.00542294
0.00108409
2.85466e-05
1.23304e-06
1.43964e-07
1.86227e-08
2.12256e-09
2.07452e-10
1.72512e-11
1.19854e-12
6.53311e-14
2.2781e-15
3.27005e-17
0.111739
0.108713
0.105653
0.102627
0.104828
0.106842
0.108075
0.108753
0.109031
0.109956
0.111201
0.11158
0.111392
0.110501
0.108758
0.106004
0.102089
0.096893
0.090353
0.0824877
0.0734121
0.063347
0.0526215
0.0416612
0.0309633
0.0212017
0.0128655
0.00622518
0.00153387
5.51205e-05
1.8176e-06
1.93155e-07
2.48646e-08
2.84898e-09
2.79801e-10
2.33513e-11
1.62634e-12
8.87969e-14
3.10205e-15
4.47708e-17
0.1089
0.105997
0.103061
0.10016
0.102285
0.104235
0.105452
0.106146
0.106469
0.107402
0.10864
0.109063
0.108952
0.10818
0.106605
0.104078
0.100451
0.0956012
0.0894513
0.0819996
0.0733366
0.0636572
0.0532632
0.042555
0.0320074
0.0222595
0.0138337
0.00703766
0.00205386
0.000105448
2.75412e-06
2.60405e-07
3.31609e-08
3.81871e-09
3.76978e-10
3.15837e-11
2.20525e-12
1.20553e-13
4.21517e-15
6.10876e-17
0.106173
0.103385
0.100569
0.0977849
0.099837
0.101726
0.102925
0.103633
0.103993
0.104933
0.106162
0.106623
0.106581
0.105916
0.104494
0.102172
0.0988075
0.0942763
0.0884926
0.0814365
0.0731752
0.0638774
0.0538182
0.0433723
0.0329935
0.023284
0.0147906
0.00785402
0.00262577
0.000192257
4.25991e-06
3.53382e-07
4.42028e-08
5.11156e-09
5.07319e-10
4.26816e-11
2.98802e-12
1.63502e-13
5.71749e-15
8.31027e-17
0.103552
0.100874
0.0981702
0.0954982
0.0974806
0.0993107
0.100491
0.101209
0.101602
0.102546
0.103763
0.104257
0.104278
0.103711
0.102427
0.100292
0.0971675
0.09293
0.0874881
0.0808078
0.0729348
0.0640124
0.0542892
0.0441141
0.033919
0.0242713
0.0157316
0.00866767
0.00323652
0.000327852
6.73019e-06
4.82941e-07
5.89157e-08
6.83371e-09
6.81905e-10
5.7625e-11
4.04553e-12
2.2155e-13
7.7434e-15
1.12758e-16
0.101032
0.098459
0.0958617
0.0932961
0.0952112
0.0969841
0.0981448
0.0988702
0.0992923
0.100237
0.101441
0.101964
0.102041
0.101562
0.100406
0.0984424
0.0955384
0.0915721
0.0864487
0.0801232
0.072623
0.0640677
0.0546794
0.0447814
0.0347832
0.0252181
0.016653
0.00947649
0.00387439
0.000524474
1.0993e-05
6.65706e-07
7.85074e-08
9.1258e-09
9.15478e-10
7.7722e-11
5.47285e-12
2.99947e-13
1.04733e-14
1.52652e-16
0.0986076
0.0961346
0.0936393
0.0911742
0.0930251
0.0947425
0.0958831
0.0966132
0.0970599
0.0980026
0.0991927
0.0997403
0.0998675
0.0994701
0.0984314
0.0966258
0.0939256
0.0902105
0.0853839
0.0793926
0.0722485
0.0640496
0.0549929
0.045376
0.0355856
0.0261222
0.017552
0.0102795
0.00452892
0.000792053
1.88676e-05
9.30053e-07
1.04575e-07
1.21722e-08
1.22761e-09
1.04718e-10
7.39734e-12
4.05746e-13
1.41488e-14
2.06256e-16
0.0962753
0.0938974
0.0914986
0.0891292
0.0909181
0.0925824
0.093702
0.0944346
0.094902
0.0958412
0.0970158
0.0975844
0.0977567
0.0974333
0.0965026
0.0948436
0.0923323
0.0888509
0.0843016
0.0786247
0.0718197
0.0639652
0.0552347
0.0459006
0.0363264
0.0269817
0.0184263
0.011077
0.00519338
0.00113022
3.40211e-05
1.32605e-06
1.39376e-07
1.62137e-08
1.6442e-09
1.40939e-10
9.98941e-12
5.48398e-13
1.90941e-14
2.78204e-16
0.0940306
0.0917429
0.0894361
0.0871578
0.0888871
0.0904996
0.0915983
0.092331
0.0928158
0.0937496
0.0949077
0.0954939
0.0957065
0.0954506
0.0946194
0.0930963
0.090761
0.0874977
0.0832079
0.0778273
0.0713445
0.0638216
0.0554101
0.0463585
0.0370069
0.0277953
0.0192732
0.0118665
0.00586405
0.00153081
6.24538e-05
1.93704e-06
1.86202e-07
2.15695e-08
2.19939e-09
1.8948e-10
1.34769e-11
7.40567e-13
2.57428e-14
3.74686e-16
0.0918692
0.0896675
0.0874484
0.0852569
0.0869288
0.0884911
0.0895683
0.0902998
0.0907985
0.0917253
0.092866
0.0934668
0.0937152
0.0935208
0.0927813
0.0913843
0.0892131
0.086154
0.0821079
0.0770067
0.07083
0.0636254
0.0555247
0.0467536
0.0376291
0.0285626
0.0200906
0.0126446
0.00653788
0.0019799
0.00011234
2.887e-06
2.49804e-07
2.86691e-08
2.93825e-09
2.54449e-10
1.81639e-11
9.99195e-13
3.46744e-14
5.03962e-16
0.0897873
0.0876678
0.0855322
0.0834233
0.08504
0.0865538
0.087609
0.0883373
0.0888478
0.0897659
0.0908883
0.091501
0.0917811
0.0916427
0.0909876
0.0897078
0.0876898
0.0848219
0.0810053
0.076168
0.0702824
0.063383
0.055584
0.0470898
0.0381953
0.0292838
0.0208768
0.0134078
0.00720907
0.00246555
0.000192723
4.36509e-06
3.36719e-07
3.80888e-08
3.92051e-09
3.41295e-10
2.44559e-11
1.34692e-12
4.66631e-14
6.77049e-16
0.0877815
0.0857404
0.0836843
0.0816539
0.0832177
0.0846846
0.0857176
0.0864413
0.0869608
0.0878694
0.0889727
0.0895945
0.0899026
0.089815
0.0892377
0.0880666
0.0861917
0.0835034
0.0799028
0.0753155
0.0697067
0.0630999
0.0555932
0.0473712
0.0387076
0.0299597
0.0216306
0.0141536
0.00787382
0.0029783
0.000312171
6.7049e-06
4.56047e-07
5.05839e-08
5.22535e-09
4.57246e-10
3.28925e-11
1.81395e-12
6.27419e-14
9.08624e-16
0.0858485
0.083882
0.0819016
0.079946
0.0814589
0.0828807
0.0838914
0.0846091
0.0851354
0.086033
0.0871171
0.0877455
0.0880782
0.0880366
0.0875307
0.0864605
0.0847192
0.0821996
0.078803
0.0744523
0.0691073
0.0627811
0.0555573
0.0476021
0.0391687
0.0305922
0.0223517
0.0148801
0.00853089
0.00350889
0.000480111
1.05688e-05
6.21478e-07
6.71285e-08
6.95694e-09
6.11888e-10
4.41916e-11
2.44058e-12