/*--------------------------------*- C++ -*----------------------------------*\
| =========                 |                                                 |
| \\      /  F ield         | OpenFOAM: The Open Source CFD Toolbox           |
|  \\    /   O peration     | Version:  1.6.x                                 |
|   \\  /    A nd           | Web:      www.OpenFOAM.org                      |
|    \\/     M anipulation  |                                                 |
\*---------------------------------------------------------------------------*/
FoamFile
{
    version     2.0;
    format      ascii;
    class       volScalarField;
    location    "7000";
    object      YStar(CH4);
}
// * * * * * * * * * * * * * * * * * * * * * * * * * * * * * * * * * * * * * //

dimensions      [0 0 0 0 0 0 0];

internalField   nonuniform List<scalar> 
4608
(
0.106809
0.106816
0.106815
0.103065
0.106816
0.106816
0.106816
0.106613
0.101651
0.0859728
0.106816
0.106816
0.106816
0.106816
0.106804
0.106355
0.100937
0.0882364
0.0449428
0.106816
0.106816
0.106816
0.106816
0.106815
0.106776
0.106082
0.100515
0.0900568
0.0578797
0
0
0.106816
0.106816
0.106816
0.106816
0.106811
0.106737
0.105803
0.100093
0.0912787
0.0640714
0.0192757
0
0
0
0.106816
0.106816
0.106816
0.106816
0.106805
0.106684
0.105517
0.0999107
0.0912097
0.0681581
0.0314876
-4.34846e-19
0
0
0
6.79447e-21
0.106816
0.106816
0.106816
0.106816
0.106795
0.106618
0.105236
0.100132
0.0929006
0.0700801
0.0390239
0.00310074
-5.43558e-20
0
0
0
0
0
0.106816
0.106816
0.106816
0.106816
0.106779
0.106538
0.10503
0.100469
0.0951088
0.0737617
0.04257
0.011512
0
0
0
0
0
0
0
0.106816
0.106816
0.106816
0.106816
0.106758
0.106453
0.104885
0.100629
0.0957202
0.0784144
0.0474604
0.0163047
0
0
0
0
0
0
3.57378e-15
0
0.106816
0.106816
0.106816
0.106816
0.10673
0.10637
0.104767
0.100609
0.0955278
0.0804854
0.0543156
0.0221337
0
0
0
0
0
0
2.49353e-15
5.00154e-17
0
0.106816
0.106816
0.106816
0.106816
0.106697
0.106288
0.104663
0.100272
0.0951385
0.0810845
0.0581048
0.0300387
0
0
0
0
0
0
1.1993e-15
3.37259e-17
4.79773e-19
0
0.106816
0.106816
0.106816
0.106816
0.10666
0.10621
0.104551
0.100173
0.0942375
0.0811373
0.0597254
0.0351095
0.00658388
0
0
0
0
0
4.84133e-16
1.88851e-17
3.69938e-19
4.68856e-21
0
0.106816
0.106816
0.106816
0.106816
0.106618
0.106133
0.104441
0.100414
0.0941087
0.0805645
0.0605462
0.0378829
0.0128072
0
0
0
0
0
0
9.04813e-18
2.61031e-19
4.05991e-21
4.67505e-23
2.07351e-25
0.106816
0.106816
0.106816
0.106816
0.106573
0.106058
0.104373
0.100321
0.0948776
0.0804561
0.0606031
0.0397419
0.0167915
0
0
0
0
0
0
0
1.47662e-19
3.49471e-21
4.4726e-23
4.74325e-25
0
0.106816
0.106816
0.106816
0.106816
0.106526
0.105992
0.104318
0.0999023
0.0948238
0.0812854
0.0610083
0.040759
0.0198082
0.00410326
0
0
0
0
0
0
0
2.2554e-21
4.58816e-23
4.94048e-25
4.87538e-27
0
0.106816
0.106816
0.106816
0.106816
0.106477
0.105932
0.104235
0.0991164
0.0942024
0.0816266
0.062327
0.0418508
0.0218496
0.00777602
0
0
0
0
0
0
0
0
3.29651e-23
5.93866e-25
5.44969e-27
5.04819e-29
0
0.106816
0.106816
0.106816
0.106816
0.106429
0.105875
0.104075
0.0982762
0.0931118
0.0814344
0.0631949
0.043646
0.0236846
0.0104329
0
0
0
0
0
0
0
0
0
4.664e-25
7.54e-27
5.9735e-29
5.23631e-31
0
0.106816
0.106816
0.106816
0.106816
0.106381
0.105816
0.103912
0.0976384
0.0921106
0.0807713
0.0635481
0.0450608
0.0260397
0.0127922
0.00195233
0
0
0
0
0
0
0
0
0
6.41064e-27
9.30485e-29
6.48946e-31
5.41411e-33
0
0.106816
0.106816
0.106816
0.106816
0.106333
0.105753
0.103749
0.0968363
0.0914835
0.080063
0.0634575
0.0459969
0.0280262
0.015598
0.00469209
0
0
0
0
0
0
0
0
0
0
8.55368e-29
1.11387e-30
6.97046e-33
5.56229e-35
0
0.106816
0.106816
0.106816
0.106816
0.106285
0.105692
0.103441
0.0958593
0.0906446
0.0795962
0.0632861
0.0465211
0.0295259
0.0179566
0.00774942
0
0
0
0
0
0
0
0
0
0
0
1.10639e-30
1.29035e-32
7.39888e-35
5.67716e-37
0
0.106816
0.106816
0.106816
0.10624
0.105624
0.102987
0.0947119
0.089658
0.0790222
0.0632969
0.0469162
0.0306242
0.0197913
0.0103957
0
0
2.71779e-20
0
0
0
0
0
0
2.59189e-26
0
0
1.38205e-32
1.43449e-34
7.7908e-37
5.75949e-39
0
0.106816
0.106816
0.106196
0.105542
0.102357
0.0933501
0.0885345
0.0783542
0.0631735
0.0474146
0.0315519
0.0212248
0.0125124
7.3202e-05
0
0
0
0
0
0
0
-1.03675e-25
0
0
1.61993e-27
-2.02491e-28
1.65439e-34
1.5254e-36
8.2096e-39
5.8067e-41
0
0.106816
0.106153
0.105425
0.101483
0.0917602
0.087222
0.0775828
0.0629314
0.0477708
0.0325214
0.022474
0.0142256
0.00253523
0
0
0
0
-4.24655e-22
0
0
0
0
0
0
0
0
1.87544e-36
1.55673e-38
8.79323e-41
5.84505e-43
1.54957e-15
0.106108
0.105236
0.100294
0.0899799
0.0857218
0.07666
0.0625819
0.0479826
0.0333426
0.0237421
0.015727
0.00460209
0
0
0
0
0
0
0
0
0
0
0
0
0
0
1.98714e-38
1.54932e-40
9.6695e-43
5.75828e-45
2.36154e-15
0.106054
0.104919
0.0987692
0.0880524
0.0840715
0.0755779
0.0620835
0.048068
0.0339962
0.024842
0.0172055
0.00643737
0
0
0
0
0
0
0
0
0
0
0
0
0
0
0
1.94414e-40
1.54672e-42
1.10489e-44
4.99776e-16
0.105981
0.104393
0.0969046
0.0859685
0.0822931
0.0743554
0.0614334
0.0479992
0.0345026
0.0257571
0.0185161
0.00821171
0
0
0
0
0
0
0
0
0
0
0
0
0
0
-6.32785e-30
2.41743e-15
1.76243e-42
1.58118e-44
8.16216e-17
0.10587
0.103516
0.0947249
0.0837353
0.0803845
0.0729987
0.0606558
0.0477779
0.0348471
0.0265138
0.019633
0.00980006
0
0
0
0
-3.39724e-21
0
0
0
0
0
0
0
0
0
0
3.72767e-15
4.66665e-16
1.44868e-44
1.14468e-17
0.105676
0.10214
0.0922642
0.0813543
0.0783579
0.0715141
0.0597588
0.0474291
0.0350351
0.0271036
0.0205827
0.0111806
0.000595019
0
0
0
0
0
0
0
0
0
0
0
0
0
0
0
1.51957e-15
6.8077e-17
1.39563e-18
0.105304
0.100164
0.0895706
0.078827
0.0762105
0.069918
0.0587442
0.0469651
0.0350906
0.0275347
0.0213646
0.0123865
0.00223475
0
0
0
0
0
0
0
0
0
0
0
0
0
0
0
3.32948e-15
2.44379e-16
8.45214e-18
1.47432e-19
0.104567
0.0975349
0.0866501
0.0761455
0.0739391
0.0682125
0.0576261
0.0463868
0.0350269
0.0278299
0.0219867
0.0134219
0.00370016
4.34846e-19
0
0
0
-3.39724e-21
0
0
-8.29404e-25
0
-2.59189e-26
0
-3.23986e-27
0
0
0
3.40507e-15
6.81146e-16
3.13775e-17
9.04786e-19
1.34166e-20
0.103117
0.0943332
0.0834766
0.0732969
0.0715393
0.0663928
0.0564098
0.0457029
0.0348461
0.0280013
0.0224686
0.0142951
0.004994
0
0
0
0
0
0
0
0
0
0
0
0
0
0
0
-3.16392e-30
1.56016e-15
9.25372e-17
3.43328e-18
8.32594e-20
1.04585e-21
0.100369
0.0905984
0.0800326
0.0702737
0.0690022
0.0644597
0.0550962
0.0449202
0.0345549
0.0280497
0.0228212
0.0150234
0.006123
0
0
0
0
0
-1.69862e-21
0
0
0
0
0
0
-1.61993e-27
0
0
0
2.91317e-15
2.33412e-16
1.04372e-17
3.21719e-19
6.55291e-21
6.94727e-23
0.0961111
0.0863654
0.0763339
0.06709
0.0663192
0.0624114
0.0536913
0.0440464
0.0341612
0.0279832
0.0230448
0.0156158
0.00710183
0
0
0
2.71779e-20
0
0
0
0
0
0
0
0
0
0
0
0
3.99988e-15
5.1982e-16
2.73914e-17
1.00197e-18
2.57233e-20
4.38949e-22
3.91404e-24
0.0908208
0.0817686
0.072446
0.0637864
0.0634946
0.0602435
0.0521959
0.0430904
0.0336757
0.0278115
0.0231484
0.0160704
0.00793772
0
0
1.08712e-19
0
0
0
-8.49309e-22
0
0
1.03675e-25
0
0
0
0
1.01246e-28
0
1.79657e-15
1.03637e-15
6.42571e-17
2.70769e-18
8.18202e-20
1.7471e-21
2.49119e-23
1.86251e-25
0.0851959
0.0770174
0.0684664
0.0604179
0.0605525
0.0579534
0.0506108
0.0420577
0.033109
0.027546
0.0231434
0.0163984
0.00862751
0
0
0
0
0
0
0
0
0
0
0
0
3.23986e-27
-8.09965e-28
0
0
0
1.85147e-15
1.37488e-16
6.57045e-18
2.26803e-19
5.66177e-21
1.00371e-22
1.1931e-24
7.45709e-27
0.0796648
0.0722945
0.0644878
0.0570411
0.057531
0.0555477
0.0489326
0.0409511
0.0324729
0.0271985
0.023042
0.016614
0.00918564
0.000751966
0
0
0
0
0
0
0
0
0
0
0
0
0
0
0
0
2.91964e-15
2.71786e-16
1.46086e-17
5.66486e-19
1.60538e-20
3.30701e-22
4.85916e-24
4.80116e-26
2.29867e-28
0.0743918
0.0677099
0.0605817
0.0537019
0.0544739
0.053043
0.0471592
0.0397684
0.0317701
0.0267818
0.0228564
0.0167305
0.00962853
0.00153929
0
0
0
0
-6.79447e-21
0
0
0
0
0
0
0
0
0
0
0
3.87013e-15
5.00493e-16
3.01689e-17
1.30003e-18
4.11491e-20
9.56894e-22
1.62472e-23
1.97234e-25
1.48069e-27
1.97697e-30
0.0694159
0.0633184
0.0567924
0.0504328
0.0514209
0.0504658
0.0452927
0.0385054
0.0309991
0.0262996
0.0225995
0.0167603
0.00996971
0.0022109
-4.34846e-19
0
0
-2.71779e-20
0
0
0
0
0
0
0
0
0
0
0
0
3.61218e-15
8.62599e-16
5.84481e-17
2.77747e-18
9.71557e-20
2.51059e-21
4.78713e-23
6.67434e-25
6.07126e-27
1.63255e-29
0.064737
0.0591402
0.0531438
0.0472545
0.0484034
0.0478458
0.0433428
0.0371595
0.0301563
0.0257513
0.0222765
0.0167159
0.0102212
0.00277898
0
0
0
0
0
0
0
0
0
0
0
0
0
0
0
0
0
1.39316e-15
1.07039e-16
5.57825e-18
2.13977e-19
6.08252e-21
1.28263e-22
1.99617e-24
2.05511e-26
7.22069e-29
0.0603407
0.0551774
0.0496459
0.0441787
0.045444
0.0452119
0.0413237
0.035732
0.0292375
0.0251337
0.0218876
0.0166041
0.0103949
0.00325448
0
0
0
0
0
0
0
0
0
0
0
0
0
0
0
0
0
2.10223e-15
1.86397e-16
1.06119e-17
4.43684e-19
1.3773e-20
3.18094e-22
5.44274e-24
6.16746e-26
2.53797e-28
0.0562078
0.0514231
0.0463003
0.0412105
0.0425578
0.0425885
0.0392527
0.0342281
0.0282404
0.0244424
0.0214304
0.0164262
0.0104986
0.00364843
0
0
0
0
0
0
0
0
0
0
0
0
0
-8.09965e-28
0
0
0
2.93617e-15
3.10051e-16
1.924e-17
8.72421e-19
2.94057e-20
7.38765e-22
1.37656e-23
1.69261e-25
7.79943e-28
0.052318
0.0478662
0.0431034
0.0383509
0.0397538
0.039995
0.037148
0.0326563
0.0271656
0.0236746
0.020901
0.0161809
0.0105352
0.00396918
0
0
0
0
0
0
0
0
0
0
0
0
0
0
0
-5.06228e-29
0
3.70962e-15
4.94447e-16
3.34149e-17
1.63637e-18
5.96039e-20
1.62022e-21
3.26626e-23
4.32082e-25
2.17947e-27
0.0486512
0.0444933
0.0400489
0.0355982
0.0370365
0.0374455
0.0350266
0.0310274
0.0260163
0.0228292
0.0202962
0.0158648
0.0105042
0.00422092
0
0
0
0
0
0
0
0
0
0
0
0
6.47972e-27
0
0
0
0
3.9954e-15
7.5774e-16
5.58443e-17
2.9421e-18
1.15339e-19
3.37729e-21
7.32907e-23
1.03721e-24
5.65201e-27
0.0451879
0.0412908
0.037129
0.0329487
0.0344074
0.0349497
0.0329032
0.0293536
0.0247982
0.0219075
0.0196142
0.0154746
0.0104032
0.00440438
0
0
0
0
-2.71779e-20
0
0
0
-4.24655e-22
0
0
0
0
0
0
0
0
2.94508e-15
1.11743e-15
9.01378e-17
5.0932e-18
2.14063e-19
6.72637e-21
1.56476e-22
2.35929e-24
1.37731e-26
0.0419102
0.0382455
0.0343353
0.0303979
0.0318657
0.0325137
0.0307902
0.0276469
0.0235191
0.0209132
0.018855
0.0150079
0.0102292
0.00451818
0
0
0
0
0
0
0
0
0
0
0
0
0
0
0
0
0
0
1.58574e-15
1.40974e-16
8.5202e-18
3.82658e-19
1.28561e-20
3.19462e-22
5.1147e-24
3.18052e-26
0.0388015
0.0353446
0.0316596
0.027941
0.0294094
0.0301409
0.028697
0.0259187
0.0221879
0.0198521
0.0180212
0.0144636
0.00997932
0.00455975
0
0
0
0
0
0
0
0
0
0
0
0
0
0
0
0
0
0
2.16148e-15
2.14244e-16
1.38186e-17
6.611e-19
2.36758e-20
6.26288e-22
1.06174e-23
7.00274e-26
0.0358468
0.0325766
0.0290936
0.0255727
0.0270355
0.0278328
0.0266311
0.0241789
0.0208137
0.0187313
0.0171169
0.0138427
0.00965196
0.00452646
0
0
0
0
0
0
0
0
-8.49309e-22
0
0
0
0
0
0
0
0
0
2.81589e-15
3.17171e-16
2.1793e-17
1.1073e-18
4.21468e-20
1.18359e-21
2.11868e-23
1.47716e-25
0.0330326
0.0299305
0.0266296
0.0232875
0.0247405
0.0255895
0.0245978
0.0224364
0.0194057
0.0175586
0.0161481
0.0131479
0.00924695
0.00441625
0
0
0
0
0
0
0
0
0
0
0
0
0
0
0
0
0
6.32785e-30
3.46802e-15
4.58367e-16
3.3511e-17
1.80311e-18
7.27387e-20
2.16285e-21
4.07912e-23
2.99672e-25
0.0303466
0.0273965
0.02426
0.0210795
0.0225204
0.0234102
0.0226009
0.0206985
0.0179724
0.0163423
0.0151216
0.0123837
0.00876575
0.00422818
0
0
0
0
0
0
0
0
0
0
0
0
0
0
0
0
0
0
3.94087e-15
6.47787e-16
5.03672e-17
2.8619e-18
1.2203e-19
3.83225e-21
7.59921e-23
5.86866e-25
0.0277779
0.0249656
0.0219774
0.0189427
0.0203703
0.0212928
0.0206428
0.0189709
0.0165216
0.0150904
0.0140449
0.0115555
0.00821137
0.00396273
0
0
-2.17423e-19
0
0
0
0
0
0
0
0
0
0
0
0
0
0
0
3.88177e-15
8.96445e-16
7.41655e-17
4.43799e-18
1.99487e-19
6.6005e-21
1.37343e-22
1.1125e-24
0.0253165
0.0226287
0.0197742
0.0168707
0.0182851
0.0192344
0.0187244
0.0172585
0.01506
0.0138103
0.0129256
0.0106698
0.00758809
0.00362176
0
-4.34846e-19
0
0
0
0
0
0
0
0
0
0
0
0
0
0
0
0
2.61479e-15
1.21565e-15
1.07222e-16
6.73859e-18
3.18471e-19
1.1076e-20
2.41375e-22
2.04662e-24
0.0229529
0.0203775
0.0176429
0.0148569
0.0162596
0.0172314
0.0168454
0.0155641
0.0135935
0.012509
0.0117708
0.00973323
0.0069012
0.00320838
0
4.34846e-19
0
0
-5.43558e-20
0
0
0
0
8.49309e-22
2.12327e-22
0
0
0
0
0
0
0
0
1.61521e-15
1.52503e-16
1.00392e-17
4.97528e-19
1.81459e-20
4.1338e-22
3.66218e-24
0.020678
0.0182035
0.0155758
0.0128935
0.0142877
0.01528
0.0150046
0.0138893
0.0121261
0.0111926
0.0105875
0.00875272
0.0061566
0.00272678
0
0
0
0
0
0
0
-6.79447e-21
0
0
0
0
0
0
0
0
0
0
3.16392e-30
2.09957e-15
2.13795e-16
1.47039e-17
7.62055e-19
2.90798e-20
6.91222e-22
6.38696e-24
0.0184829
0.0160981
0.0135644
0.010972
0.0123625
0.0133754
0.0132004
0.012235
0.0106605
0.00986513
0.00938184
0.00773481
0.00536046
0.00218191
0
0
0
0
0
0
0
0
0
0
0
0
0
0
0
0
0
0
0
2.65957e-15
2.95942e-16
2.12119e-17
1.14646e-18
4.56661e-20
1.13051e-21
1.08769e-23
0.0163586
0.0140523
0.0115992
0.00908206
0.0104759
0.0115121
0.0114302
0.0106017
0.00919929
0.00852991
0.00815798
0.0066855
0.00451888
0.00157912
0
0
0
0
0
0
0
0
0
0
0
0
0
0
0
0
0
0
-6.32785e-30
3.25564e-15
4.05116e-16
3.01946e-17
1.69699e-18
7.03895e-20
1.81147e-21
1.81179e-23
0.0142959
0.0120558
0.00966921
0.00721305
0.00861857
0.00968329
0.00969042
0.00898835
0.0077446
0.00719035
0.00691965
0.005609
0.00363753
0.00092391
0
0
0
0
0
0
0
0
0
0
0
0
0
0
0
0
0
0
0
3.78381e-15
5.4914e-16
4.24852e-17
2.4755e-18
1.06664e-19
2.84813e-21
2.95654e-23
0.0122841
0.0100973
0.00776287
0.00535411
0.00678039
0.00788088
0.00797609
0.00739342
0.00629655
0.00584926
0.00567085
0.00450958
0.00272062
0.000221379
-4.34846e-19
0
0
0
0
0
0
0
0
0
0
0
0
0
0
0
0
0
0
4.00813e-15
7.37772e-16
5.91889e-17
3.5645e-18
1.59136e-19
4.40035e-21
4.73326e-23
0.0103117
0.00816463
0.0058682
0.00350127
0.00495159
0.00609639
0.00628155
0.00581356
0.00485531
0.0045073
0.00441484
0.00339193
0.00177297
0
0
0
0
0
0
0
0
0
0
0
0
0
0
0
0
0
0
0
0
3.42775e-15
9.82801e-16
8.17767e-17
5.07415e-18
2.34091e-19
6.68969e-21
7.4443e-23
0.00836614
0.00624486
0.00397969
0.0016706
0.00312929
0.00432187
0.00460079
0.00424551
0.00341882
0.0031657
0.00315277
0.00225978
0.000799686
0
0
0
0
0
0
0
0
0
0
0
0
0
0
0
0
0
0
0
0
1.01814e-15
1.29757e-15
1.12215e-16
7.15165e-18
3.39993e-19
1.00203e-20
1.15166e-22
0.00643418
0.0043314
0.0021119
0
0.00132978
0.00255581
0.00292924
0.00268568
0.00198643
0.00182303
0.00188663
0.00111502
0
0
0
0
2.17423e-19
0
0
0
0
0
0
0
0
0
0
0
0
0
0
0
2.53114e-29
0
1.69516e-15
1.53142e-16
9.99427e-18
4.88207e-19
1.48063e-20
1.75462e-22
0.00450861
0.00243731
0.000346319
0
0
0.000812169
0.00126786
0.00113334
0.000556515
0.00048039
0.000615653
0
0
0
0
0
0
0
0
0
0
-1.35889e-20
0
0
0
0
0
0
1.03675e-25
1.29594e-26
0
0
0
0
2.18358e-15
2.08098e-16
1.38675e-17
6.93986e-19
2.16087e-20
2.63567e-22
0.00260166
0.00064127
0
0
2.17423e-19
0
0
0
-4.34846e-19
0
0
0
4.34846e-19
4.34846e-19
0
0
0
0
0
0
2.71779e-20
0
6.79447e-21
0
0
0
0
0
0
0
0
0
0
0
2.75484e-15
2.81821e-16
1.91303e-17
9.77811e-19
3.11835e-20
3.90769e-22
0.000790003
0
0
0
0
2.17423e-19
0
0
0
0
0
0
0
0
0
0
0
0
0
0
0
0
0
0
1.69862e-21
0
0
0
0
0
0
0
0
0
3.36163e-15
3.80602e-16
2.62697e-17
1.36724e-18
4.45473e-20
5.72429e-22
0
0
0
0
0
0
0
0
0
0
0
0
0
0
0
0
0
0
0
0
0
0
0
0
0
0
0
0
0
0
0
-8.09965e-28
0
0
3.86996e-15
5.12668e-16
3.59487e-17
1.89944e-18
6.3065e-20
8.29332e-22
0
1.08712e-19
0
0
0
1.08712e-19
0
0
0
0
0
0
0
0
0
0
0
0
0
0
0
1.35889e-20
0
0
0
0
0
0
0
0
0
0
-1.01246e-28
-1.26557e-29
3.96496e-15
6.88546e-16
4.90713e-17
2.62471e-18
8.85689e-20
1.18949e-21
0
0
0
0
0
0
-1.08712e-19
0
0
0
2.17423e-19
0
-2.17423e-19
0
0
0
0
0
0
0
0
0
0
0
0
0
0
0
0
0
0
0
0
0
2.96725e-15
9.21156e-16
6.68706e-17
3.61128e-18
1.23521e-19
1.69054e-21
0
0
0
-2.71779e-20
0
0
0
0
0
0
0
0
0
0
0
0
0
0
0
0
0
0
0
0
0
0
4.24655e-22
-1.06164e-22
0
0
0
0
0
0
0
1.22548e-15
9.10238e-17
4.95198e-18
1.71233e-19
2.38294e-21
0
0
0
0
0
0
0
0
0
0
0
0
0
0
0
0
0
0
0
0
0
0
0
0
0
0
0
0
0
0
0
0
0
0
0
1.61641e-15
1.23826e-16
6.773e-18
2.36169e-19
3.33432e-21
0
0
0
0
0
0
0
0
-5.43558e-20
0
0
0
0
0
0
0
0
0
0
0
0
0
0
0
0
0
0
0
0
0
0
0
0
0
0
2.10384e-15
1.6837e-16
9.24782e-18
3.2434e-19
4.63526e-21
2.71779e-20
0
0
0
0
0
0
0
0
0
0
0
0
0
0
0
0
0
0
0
0
0
0
0
0
0
0
0
0
0
0
0
0
0
0
2.68154e-15
2.28813e-16
1.26123e-17
4.43939e-19
6.40673e-21
0
0
0
0
0
0
0
-2.71779e-20
0
0
0
0
0
0
0
0
0
0
0
0
-2.71779e-20
0
0
0
-3.39724e-21
0
0
0
0
0
5.18377e-26
6.47972e-27
0
0
0
3.30389e-15
3.10685e-16
1.71891e-17
6.06011e-19
8.81238e-21
0
0
0
6.79447e-21
0
0
0
0
0
2.71779e-20
0
0
0
0
0
0
0
-5.43558e-20
0
0
0
0
0
0
0
0
8.49309e-22
0
5.30818e-23
0
0
0
0
0
0
3.83957e-15
4.21233e-16
2.34186e-17
8.25564e-19
1.20707e-20
1.35889e-20
0
0
0
0
0
0
0
0
0
0
0
0
0
0
0
0
5.43558e-20
0
0
0
0
0
0
0
0
0
0
0
0
0
0
0
0
0
3.98199e-15
5.6974e-16
3.19012e-17
1.12299e-18
1.64758e-20
0
0
0
0
0
0
0
0
0
0
0
2.71779e-20
0
0
0
0
0
0
0
0
0
0
0
0
0
0
0
0
0
0
0
0
0
0
0
3.07943e-15
7.67722e-16
4.34531e-17
1.52597e-18
2.2424e-20
0
0
0
0
0
0
0
0
0
0
0
0
0
0
0
0
0
0
0
2.71779e-20
0
1.35889e-20
0
0
0
0
0
0
0
0
-2.07351e-25
0
0
0
2.53114e-29
0
1.02872e-15
5.91806e-17
2.07215e-18
3.04489e-20
0
0
0
-3.39724e-21
0
0
0
0
0
0
0
0
0
0
0
0
0
0
2.71779e-20
0
0
0
0
0
3.39724e-21
0
0
0
0
0
0
0
0
0
0
0
1.3672e-15
8.05769e-17
2.81259e-18
4.12705e-20
0
0
0
0
0
0
0
0
-6.79447e-21
0
0
0
0
0
0
0
0
0
0
0
0
0
0
0
0
0
0
0
0
0
0
0
0
0
0
0
1.79553e-15
1.09647e-16
3.81657e-18
5.58598e-20
0
0
0
0
0
0
0
0
0
0
0
0
0
0
0
0
0
0
0
0
0
0
0
0
0
0
0
0
0
0
0
5.18377e-26
6.47972e-27
0
0
6.32785e-30
2.31729e-15
1.49064e-16
5.17785e-18
7.55267e-20
0
0
0
0
0
0
0
0
0
0
0
0
0
0
0
0
0
0
0
0
0
0
0
0
-3.39724e-21
0
0
0
0
0
0
0
0
0
0
0
2.91341e-15
2.02367e-16
7.02307e-18
1.02038e-19
0
0
0
0
0
3.39724e-21
3.39724e-21
0
0
0
0
0
-6.79447e-21
0
0
0
-1.35889e-20
0
0
0
0
0
0
0
0
0
0
0
0
0
0
0
0
0
0
0
3.51521e-15
2.74183e-16
9.52298e-18
1.37771e-19
0
0
0
0
0
0
3.39724e-21
3.39724e-21
0
0
0
0
0
0
0
0
0
0
0
0
0
0
0
0
0
0
0
0
0
-1.06164e-22
0
0
0
0
0
0
3.95318e-15
3.70488e-16
1.29071e-17
1.85929e-19
0
0
0
0
0
0
0
0
3.39724e-21
0
-3.39724e-21
0
0
0
0
0
0
0
0
0
0
0
0
0
0
0
0
0
4.24655e-22
0
0
0
0
0
0
0
3.86251e-15
4.98843e-16
1.74832e-17
2.50815e-19
0
0
0
0
0
0
0
0
0
0
0
-3.39724e-21
0
0
0
0
-6.79447e-21
0
0
0
0
0
0
0
-3.39724e-21
-1.69862e-21
0
-8.49309e-22
0
0
0
0
2.59189e-26
0
0
0
2.51142e-15
6.6856e-16
2.36625e-17
3.38207e-19
0
0
0
0
0
0
0
0
0
0
0
-3.39724e-21
3.39724e-21
0
0
0
0
0
0
0
0
0
0
0
0
0
0
0
4.24655e-22
0
0
0
0
0
0
0
0
8.90631e-16
3.19924e-17
4.55847e-19
0
0
0
0
-1.69862e-21
-1.69862e-21
0
0
0
0
0
0
0
0
0
0
0
0
0
0
0
0
0
0
0
0
0
0
0
0
2.65409e-23
0
0
0
0
0
0
1.17715e-15
4.31994e-17
6.1408e-19
0
0
1.69862e-21
0
0
0
0
0
0
0
0
0
0
0
3.39724e-21
0
0
0
0
0
0
0
0
-3.39724e-21
0
0
0
0
0
2.12327e-22
0
0
0
6.47972e-27
0
0
0
1.53969e-15
5.82428e-17
8.2671e-19
0
0
-1.69862e-21
0
0
0
0
0
0
0
0
0
0
0
0
0
0
3.39724e-21
0
0
0
0
0
0
0
0
0
0
0
0
-5.30818e-23
1.65881e-24
0
0
0
0
0
1.98576e-15
7.83835e-17
1.1121e-18
0
1.69862e-21
0
0
0
1.69862e-21
0
-1.69862e-21
1.69862e-21
-1.69862e-21
0
0
0
0
0
0
0
0
0
0
0
0
3.39724e-21
0
0
0
0
8.49309e-22
0
0
0
0
0
0
0
1.01246e-28
0
2.51162e-15
1.0527e-16
1.49463e-18
-1.69862e-21
0
0
0
0
0
0
0
0
0
0
0
0
0
0
0
0
0
0
0
-3.39724e-21
0
0
0
0
0
0
-8.49309e-22
0
0
0
0
0
0
0
0
0
3.08869e-15
1.41041e-16
2.00658e-18
0
0
0
0
0
0
0
-1.69862e-21
1.69862e-21
0
-1.69862e-21
0
0
0
0
0
0
0
0
0
0
0
0
0
-1.69862e-21
0
0
-8.49309e-22
0
0
0
0
-2.07351e-25
0
1.61993e-27
2.02491e-28
0
3.63856e-15
1.88453e-16
2.69056e-18
0
0
0
0
0
0
0
0
0
0
-1.69862e-21
0
0
0
0
0
0
0
0
0
0
0
0
0
0
0
0
-8.49309e-22
0
0
0
-1.32705e-23
0
0
0
0
0
3.98911e-15
2.51009e-16
3.60266e-18
0
0
0
0
0
0
0
0
0
0
1.69862e-21
0
-1.69862e-21
1.69862e-21
0
0
0
0
0
0
0
0
0
0
0
0
0
0
0
0
0
0
0
0
3.23986e-27
0
0
3.79633e-15
3.33161e-16
4.81624e-18
0
0
0
0
0
0
0
0
0
0
0
0
1.69862e-21
1.69862e-21
0
0
0
0
0
0
0
0
0
0
0
0
0
0
0
0
0
0
0
0
0
4.04982e-28
0
2.41144e-15
4.40388e-16
6.42822e-18
0
0
0
0
0
0
0
0
0
0
0
0
0
-1.69862e-21
0
1.69862e-21
0
0
0
0
0
0
0
0
0
0
0
0
0
0
0
0
0
0
0
0
0
0
5.7934e-16
8.5641e-18
0
0
0
0
0
0
0
0
0
0
0
0
0
0
0
0
0
0
0
0
0
0
0
0
0
0
0
0
0
0
0
0
0
0
0
0
0
0
7.57831e-16
1.13874e-17
0
0
0
0
0
0
0
0
0
0
0
0
0
0
0
0
0
0
0
0
0
0
0
0
0
8.49309e-22
8.49309e-22
0
0
0
0
0
0
0
0
0
0
0
9.84593e-16
1.51101e-17
0
0
0
0
0
0
0
0
0
0
0
0
0
0
0
0
0
0
0
0
0
0
0
0
0
8.49309e-22
0
0
0
0
0
0
0
0
0
0
0
0
1.26861e-15
2.00057e-17
0
0
0
0
0
0
0
0
0
0
0
0
0
0
0
0
0
0
0
0
0
0
0
8.49309e-22
0
-8.49309e-22
0
0
0
0
0
0
0
0
0
0
0
0
1.61766e-15
2.64264e-17
0
0
0
0
-8.49309e-22
0
0
0
0
0
0
0
0
0
0
0
0
0
0
0
0
0
0
0
0
0
0
0
0
0
2.12327e-22
0
0
0
0
0
0
0
2.03552e-15
3.48227e-17
0
-8.49309e-22
-8.49309e-22
0
0
0
0
-8.49309e-22
8.49309e-22
0
0
0
0
0
0
0
0
0
0
0
0
0
8.49309e-22
0
0
0
0
0
4.24655e-22
0
0
0
0
0
0
0
0
0
2.51693e-15
4.57695e-17
0
0
0
0
0
0
0
0
0
0
0
0
0
0
0
0
0
0
0
0
-8.49309e-22
0
0
0
0
0
0
0
4.24655e-22
0
0
0
0
0
0
0
0
-1.26557e-29
3.03885e-15
5.99959e-17
0
0
0
0
0
0
0
0
0
0
0
0
0
0
0
0
0
0
0
0
0
0
0
0
0
0
0
0
0
0
0
0
0
0
0
0
0
0
3.54572e-15
7.84219e-17
0
0
0
0
0
0
0
0
0
0
0
-8.49309e-22
8.49309e-22
8.49309e-22
0
0
0
-8.49309e-22
0
-8.49309e-22
0
-8.49309e-22
0
0
0
0
0
0
0
0
0
0
2.65409e-23
0
0
0
0
0
3.9252e-15
1.02202e-16
8.49309e-22
0
0
0
0
-8.49309e-22
8.49309e-22
0
8.49309e-22
0
0
0
0
0
0
0
0
0
0
0
0
-8.49309e-22
0
0
0
0
4.24655e-22
0
0
0
-2.12327e-22
0
0
0
0
0
0
0
3.96882e-15
1.32775e-16
0
0
0
0
0
0
8.49309e-22
0
0
0
0
0
-8.49309e-22
0
8.49309e-22
0
0
0
0
0
0
0
0
0
0
0
0
0
0
0
0
0
0
0
0
0
0
0
3.30956e-15
1.71919e-16
0
0
0
0
0
0
0
0
0
0
8.49309e-22
0
0
0
0
0
0
8.49309e-22
0
0
0
0
0
0
0
0
0
0
0
0
0
0
0
0
0
0
0
0
1.32372e-15
2.21814e-16
0
0
0
0
0
0
0
0
0
0
0
0
-8.49309e-22
0
0
0
0
0
0
8.49309e-22
0
0
0
0
0
0
0
0
0
0
0
-1.06164e-22
0
0
0
0
0
0
0
2.851e-16
0
0
0
0
0
0
0
0
8.49309e-22
0
8.49309e-22
0
0
-8.49309e-22
-8.49309e-22
0
0
0
0
-8.49309e-22
0
0
0
0
0
-4.24655e-22
4.24655e-22
0
0
2.12327e-22
0
0
5.30818e-23
0
2.07351e-25
0
0
0
0
3.64937e-16
0
0
0
0
0
0
0
0
0
0
0
0
0
0
0
0
0
0
0
0
0
0
0
0
0
-4.24655e-22
0
0
0
0
0
0
0
0
2.07351e-25
0
0
0
0
4.65045e-16
0
0
0
0
0
0
0
0
0
0
0
0
0
0
0
0
0
0
8.49309e-22
0
0
0
0
0
0
0
0
0
0
0
0
0
0
0
0
0
0
0
0
5.89715e-16
0
0
0
0
0
0
0
0
0
0
0
8.49309e-22
0
0
0
-8.49309e-22
0
0
0
0
0
0
0
0
0
-4.24655e-22
0
0
0
0
0
0
0
0
0
0
0
0
0
7.43757e-16
0
0
0
0
0
0
0
0
0
0
0
8.49309e-22
0
0
0
0
0
0
0
0
0
0
0
0
-4.24655e-22
0
0
0
0
0
0
0
0
0
0
0
0
0
9.32345e-16
0
0
0
0
0
0
0
0
0
0
0
8.49309e-22
0
0
8.49309e-22
0
0
0
0
0
0
0
0
0
0
0
0
0
0
0
0
0
0
0
0
0
1.16069e-15
0
0
0
0
0
0
0
0
0
0
0
8.49309e-22
0
0
0
0
0
0
0
4.24655e-22
0
0
0
0
-2.12327e-22
0
0
0
0
0
0
0
0
0
1.43337e-15
0
0
0
0
0
0
0
0
0
0
0
0
0
0
0
0
0
0
0
0
0
0
0
0
0
0
0
-1.65881e-24
0
0
0
0
1.75359e-15
0
0
0
0
0
0
0
0
0
0
0
0
0
0
0
0
0
0
0
0
0
0
0
0
0
0
0
0
0
0
0
2.12122e-15
0
0
0
0
0
0
0
0
0
0
0
0
0
0
0
0
0
0
0
0
0
0
0
0
-2.65409e-23
0
0
0
0
0
2.53053e-15
0
0
0
0
0
0
0
0
0
0
0
0
0
0
-4.24655e-22
0
0
0
0
0
0
0
0
0
0
0
0
0
0
2.9663e-15
0
0
0
0
0
0
0
0
0
0
0
0
0
0
0
0
2.12327e-22
0
0
0
1.06164e-22
0
0
0
0
0
0
0
3.39798e-15
0
0
0
0
0
0
0
0
0
0
0
0
0
0
0
0
0
0
0
0
0
0
0
0
0
0
5.06228e-29
3.77089e-15
0
0
0
0
0
0
0
0
0
0
0
0
0
0
0
-2.12327e-22
0
0
0
0
0
0
0
0
0
0
3.9934e-15
0
0
0
0
0
0
0
0
0
0
0
0
0
0
0
0
0
-1.06164e-22
0
0
0
4.14702e-25
0
0
0
3.91801e-15
0
0
0
0
0
0
0
0
0
0
0
0
0
0
0
0
0
0
0
0
0
0
0
0
3.31406e-15
0
0
0
0
0
0
0
0
0
0
0
0
2.12327e-22
0
0
0
0
0
0
0
0
0
0
1.8279e-15
0
0
0
0
0
0
4.24655e-22
0
0
0
0
0
0
0
0
0
0
0
0
0
0
0
0
0
0
0
0
0
0
0
0
0
0
0
0
0
-1.06164e-22
0
0
0
0
0
0
0
0
0
0
0
0
0
0
0
0
0
0
0
0
-1.06164e-22
0
0
0
0
0
0
0
0
0
0
0
0
0
0
0
0
0
0
0
1.06164e-22
0
0
0
0
0
0
0
0
0
0
0
4.24655e-22
0
0
0
0
0
0
1.06164e-22
0
0
0
0
0
-6.47972e-27
0
0
0
0
0
0
0
0
0
0
0
0
0
-5.30818e-23
0
0
0
0
0
0
0
0
0
0
0
0
0
0
0
0
0
0
0
0
0
0
0
0
0
0
0
0
2.12327e-22
0
0
0
0
0
0
0
0
0
0
0
0
0
0
-2.12327e-22
0
0
0
0
0
0
0
0
0
0
0
0
0
2.12327e-22
0
0
0
-5.30818e-23
0
0
0
0
0
0
0
0
0
0
0
0
0
0
0
0
0
0
0
0
0
0
0
0
0
0
0
0
0
0
0
0
0
0
0
0
0
0
0
0
0
2.53114e-29
0
0
0
0
0
0
-1.65881e-24
0
0
0
0
0
0
0
0
0
0
0
0
0
0
0
0
0
0
0
0
0
0
0
0
0
0
0
0
0
0
0
0
0
0
0
2.07351e-25
0
0
6.63523e-24
0
0
0
0
-6.47972e-27
0
0
0
-2.02491e-28
)
;

boundaryField
{
    wallTube
    {
        type            zeroGradient;
    }
    outlet
    {
        type            zeroGradient;
    }
    inletPilot
    {
        type            zeroGradient;
    }
    inletAir
    {
        type            zeroGradient;
    }
    wallOutside
    {
        type            zeroGradient;
    }
    inletCH4
    {
        type            zeroGradient;
    }
    frontAndBack_pos
    {
        type            wedge;
    }
    frontAndBack_neg
    {
        type            wedge;
    }
}


// ************************************************************************* //
