/*--------------------------------*- C++ -*----------------------------------*\
| =========                 |                                                 |
| \\      /  F ield         | OpenFOAM: The Open Source CFD Toolbox           |
|  \\    /   O peration     | Version:  1.6.x                                 |
|   \\  /    A nd           | Web:      www.OpenFOAM.org                      |
|    \\/     M anipulation  |                                                 |
\*---------------------------------------------------------------------------*/
FoamFile
{
    version     2.0;
    format      ascii;
    class       volScalarField;
    location    "7000";
    object      YStar(O2);
}
// * * * * * * * * * * * * * * * * * * * * * * * * * * * * * * * * * * * * * //

dimensions      [0 0 0 0 0 0 0];

internalField   nonuniform List<scalar> 
4608
(
0
0
0
0
0
0
0
0
0
0
0
0
0
0
0
0
0
0
0
0
0
0
0
0
0
0
0
0
0
0.0501993
0.0108626
0
0
0
0
0
0
0
0
0
0
0
0.0534314
0.0539673
0.0596326
0
0
0
0
0
0
0
0
0
0
0
0.0277374
0.0541242
0.0539926
0.0539997
0.107617
0
0
0
0
0
0
0
0
0
0
0
0
0.0997979
0.054689
0.0540013
0.0539999
0.054
0.16932
0
0
0
0
0
0
0
0
0
0
0
0
0.079163
0.150274
0.0540074
0.054
0.054
0.054
0.200897
0
0
0
0
0
0
0
0
0
0
0
0
0.0534095
0.130143
0.180746
0.054
0.054
0.054
0.054
0.222142
0
0
0
0
0
0
0
0
0
0
0
0
0.033338
0.106025
0.161915
0.208047
0.054
0.054
0.054
0.054
0.229077
0
0
0
0
0
0
0
0
0
0
0
0
0.00842795
0.0860315
0.140253
0.194046
0.224101
0.054
0.054
0.054
0.054
0.229923
0
0
0
0
0
0
0
0
0
0
0
0
0
0.0616175
0.120556
0.177043
0.216507
0.229308
0.054
0.054
0.054
0.054
0.229986
0
0
0
0
0
0
0
0
0
0
0
0
0
0.0272546
0.0976217
0.159674
0.205241
0.227546
0.229935
0.054
0.054
0.054
0.054
0.229995
0
0
0
0
0
0
0
0
0
0
0
0
0
0.00154467
0.0658972
0.139828
0.191418
0.22333
0.229785
0.229987
0.054
0.054
0.054
0.054
0.229998
0
0
0
0
0
0
0
0
0
0
0
0
0
0
0.0402035
0.1115
0.174863
0.215024
0.229284
0.229971
0.229996
0.054
0.054
0.054
0.054
0.229999
0
0
0
0
0
0
0
0
0
0
0
0
0
0
0.0208871
0.0874952
0.151509
0.202779
0.2273
0.229935
0.229992
0.229998
0.054
0.054
0.054
0.054
0.23
0
0
0
0
0
0
0
0
0
0
0
0
0
0
0.0046512
0.0683838
0.130259
0.184732
0.222038
0.2298
0.229986
0.229997
0.229999
0.054
0.054
0.054
0.054
0.23
0
0
0
0
0
0
0
0
0
0
0
0
0
0
0
0.0514344
0.112541
0.16706
0.209976
0.229146
0.229975
0.229995
0.229999
0.23
0.054
0.054
0.054
0.054
0.23
0
0
0
0
0
0
0
0
0
0
0
0
0
0
0
0.0375332
0.095859
0.151286
0.19605
0.225331
0.22994
0.229993
0.229998
0.229999
0.23
0.054
0.054
0.054
0.054
0.23
0
0
0
0
0
0
0
0
0
0
0
0
0
0
0
0.0250279
0.081551
0.136103
0.182712
0.217094
0.229639
0.229988
0.229997
0.229999
0.23
0.23
0.054
0.054
0.054
0.054
0.23
0
0
0
0
0
0
0
0
0
0
0
0
0
0
0.0115445
0.0683598
0.122298
0.169711
0.207016
0.227818
0.229972
0.229996
0.229999
0.23
0.23
0.23
0.054
0.054
0.054
0.054
0.23
0
0
0
0
0
0
0
0
0
0
0
0
0
0
0.0542862
0.109131
0.157301
0.196323
0.22335
0.229877
0.229994
0.229998
0.229999
0.23
0.23
0.23
0.054
0.054
0.054
0.054
0.23
0
0
0
0
0
0
0
0
0
0
0
0
0
0.0417557
0.0950138
0.145242
0.185767
0.21613
0.229346
0.229988
0.229998
0.229999
0.23
0.23
0.23
0.23
0.054
0.054
0.054
0.054
0.23
0
0
0
0
0
0
0
0
0
0
0
0
0.0309625
0.082321
0.132161
0.175389
0.207844
0.227312
0.229966
0.229997
0.229999
0.23
0.23
0.23
0.23
0.23
0.054
0.054
0.054
0.054
0.23
0
0
0
0
0
0
0
0
0
0
0
0
0.0215639
0.0711855
0.119896
0.164173
0.199255
0.223107
0.229848
0.229994
0.229998
0.229999
0.23
0.23
0.23
0.23
0.23
0.054
0.054
0.054
0.23
0
0
0
0
0
0
0
0
0
0
0
0
0.0130948
0.0612107
0.108928
0.153222
0.190031
0.217121
0.229261
0.229988
0.229998
0.229999
0.23
0.23
0.23
0.23
0.23
0.23
0.054
0.054
0.23
0
0
0
0
0
0
0
0
0
0
0
0
0.00497663
0.0520611
0.0988661
0.143013
0.180811
0.210017
0.227462
0.229966
0.229997
0.229999
0.23
0.23
0.23
0.23
0.23
0.23
0.23
0.054
0.23
0
0
0
0
0
0
0
0
0
0
0
0
0
0.0432843
0.0894786
0.133395
0.171851
0.202521
0.223856
0.229862
0.229995
0.229999
0.229999
0.23
0.23
0.23
0.23
0.23
0.23
0.23
0.23
0
0
0
0
0
0
0
0
0
0
0
0
0
0.0352334
0.0804098
0.124182
0.163191
0.195056
0.218704
0.229379
0.22999
0.229998
0.229999
0.23
0.23
0.23
0.23
0.23
0.23
0.23
0.23
0.23
0
0
0
0
0
0
0
0
0
0
0
0
0
0.0278964
0.0720062
0.115158
0.154767
0.187718
0.212924
0.227904
0.229973
0.229997
0.229999
0.23
0.23
0.23
0.23
0.23
0.23
0.23
0.23
0.23
0.23
0
0
0
0
0
0
0
0
0
0
0
0
0
0.0211894
0.0642571
0.106724
0.146452
0.180411
0.206932
0.225087
0.229897
0.229996
0.229999
0.229999
0.23
0.23
0.23
0.23
0.23
0.23
0.23
0.23
0.23
0.23
0
0
0
0
0
0
0
0
0
0
0
0
0
0.0151313
0.0570486
0.0988875
0.138473
0.173098
0.200862
0.221093
0.229573
0.229992
0.229999
0.229999
0.23
0.23
0.23
0.23
0.23
0.23
0.23
0.23
0.23
0.23
0.23
0
0
0
0
0
0
0
0
0
0
0
0
0
0.00971482
0.0504012
0.0914978
0.130876
0.165941
0.194775
0.216502
0.228597
0.229981
0.229998
0.229999
0.23
0.23
0.23
0.23
0.23
0.23
0.23
0.23
0.23
0.23
0.23
0.23
0
0
0
0
0
0
0
0
0
0
0
0
0
0.0048969
0.0443286
0.0845619
0.123596
0.158997
0.188695
0.211624
0.226675
0.229941
0.229997
0.229999
0.23
0.23
0.23
0.23
0.23
0.23
0.23
0.23
0.23
0.23
0.23
0.23
0.23
0
0
0
0
0
0
0
0
0
0
0
0
0
0.000661039
0.0388114
0.0781065
0.116653
0.15225
0.182658
0.206633
0.223732
0.229783
0.229995
0.229999
0.23
0.23
0.23
0.23
0.23
0.23
0.23
0.23
0.23
0.23
0.23
0.23
0.23
0.23
0
0
0
0
0
0
0
0
0
0
0
0
0
0
0.0338561
0.0721363
0.110085
0.145717
0.176697
0.201642
0.220139
0.229266
0.229989
0.229999
0.23
0.23
0.23
0.23
0.23
0.23
0.23
0.23
0.23
0.23
0.23
0.23
0.23
0.23
0.23
0
0
0
0
0
0
0
0
0
0
0
0
0
0
0.0294319
0.0666792
0.10392
0.139432
0.170834
0.196662
0.216254
0.228118
0.229972
0.229998
0.23
0.23
0.23
0.23
0.23
0.23
0.23
0.23
0.23
0.23
0.23
0.23
0.23
0.23
0.23
0.23
0
0
0
0
0
0
0
0
0
0
0
0
0
0
0.025487
0.0617127
0.0981994
0.133401
0.165097
0.191666
0.212229
0.226192
0.229913
0.229997
0.229999
0.23
0.23
0.23
0.23
0.23
0.23
0.23
0.23
0.23
0.23
0.23
0.23
0.23
0.23
0.23
0
0
0
0
0
0
0
0
0
0
0
0
0
0
0.021981
0.0571764
0.0929111
0.127672
0.159509
0.186684
0.208126
0.223594
0.229709
0.229994
0.229999
0.23
0.23
0.23
0.23
0.23
0.23
0.23
0.23
0.23
0.23
0.23
0.23
0.23
0.23
0.23
0
0
0
0
0
0
0
0
0
0
0
0
0
0
0.0188783
0.0530328
0.0879973
0.122289
0.15411
0.181755
0.20402
0.220593
0.229174
0.229987
0.229999
0.23
0.23
0.23
0.23
0.23
0.23
0.23
0.23
0.23
0.23
0.23
0.23
0.23
0.23
0.23
0
0
0
0
0
0
0
0
0
0
0
0
0
0
0.0161442
0.0492566
0.0834196
0.117211
0.148939
0.176912
0.199909
0.217385
0.228143
0.22997
0.229998
0.23
0.23
0.23
0.23
0.23
0.23
0.23
0.23
0.23
0.23
0.23
0.23
0.23
0.23
0.23
0
0
0
0
0
0
0
0
0
0
0
0
0
0
0.0137409
0.0458261
0.0791585
0.112405
0.143989
0.172186
0.195789
0.214069
0.226517
0.229914
0.229997
0.229999
0.23
0.23
0.23
0.23
0.23
0.23
0.23
0.23
0.23
0.23
0.23
0.23
0.23
0.23
0
0
0
0
0
0
0
0
0
0
0
0
0
0
0.0116357
0.0427129
0.0752066
0.107855
0.139243
0.167589
0.191687
0.21069
0.22439
0.229743
0.229994
0.229999
0.23
0.23
0.23
0.23
0.23
0.23
0.23
0.23
0.23
0.23
0.23
0.23
0.23
0.23
0
0
0
0
0
0
0
0
0
0
0
0
0
0
0.0098089
0.0398884
0.0715432
0.103574
0.13469
0.163122
0.187631
0.207305
0.221944
0.229328
0.229989
0.229999
0.23
0.23
0.23
0.23
0.23
0.23
0.23
0.23
0.23
0.23
0.23
0.23
0.23
0.23
0
0
0
0
0
0
0
0
0
0
0
0
0
0
0.00825408
0.0373337
0.068145
0.0995413
0.130305
0.15878
0.183633
0.203924
0.219325
0.228551
0.229976
0.229998
0.23
0.23
0.23
0.23
0.23
0.23
0.23
0.23
0.23
0.23
0.23
0.23
0.23
0.23
0
0
0
0
0
0
0
0
0
0
0
0
0
0
0.00697279
0.0350415
0.0649968
0.0957365
0.126093
0.154555
0.179692
0.20054
0.216611
0.22733
0.22994
0.229998
0.23
0.23
0.23
0.23
0.23
0.23
0.23
0.23
0.23
0.23
0.23
0.23
0.23
0.23
0
0
0
0
0
0
0
0
0
0
0
0
0
0
0.00597266
0.0330106
0.0620935
0.0921518
0.122059
0.150451
0.175809
0.197141
0.213842
0.225698
0.229836
0.229996
0.229999
0.23
0.23
0.23
0.23
0.23
0.23
0.23
0.23
0.23
0.23
0.23
0.23
0.23
0
0
0
0
0
0
0
0
0
0
0
0
0
0
0.00526338
0.0312463
0.059432
0.088789
0.118207
0.146469
0.171992
0.193746
0.211037
0.22377
0.229586
0.229992
0.229999
0.23
0.23
0.23
0.23
0.23
0.23
0.23
0.23
0.23
0.23
0.23
0.23
0.23
0
0
0
0
0
0
0
0
0
0
0
0
0
0
0.00485388
0.0297576
0.0570156
0.0856412
0.114553
0.142604
0.168245
0.190369
0.208224
0.221665
0.229095
0.229985
0.229999
0.23
0.23
0.23
0.23
0.23
0.23
0.23
0.23
0.23
0.23
0.23
0.23
0.23
0
0
0
0
0
0
0
0
0
0
0
0
0
0
0.00474995
0.0285539
0.0548528
0.0827106
0.111079
0.138845
0.164569
0.187013
0.205398
0.219449
0.228297
0.229967
0.229998
0.23
0.23
0.23
0.23
0.23
0.23
0.23
0.23
0.23
0.23
0.23
0.23
0.23
0
0
0
0
0
0
0
0
0
0
0
0
0
0
0.0049531
0.0276426
0.0529529
0.0800063
0.107788
0.135211
0.160963
0.183681
0.202549
0.217166
0.227153
0.229922
0.229997
0.23
0.23
0.23
0.23
0.23
0.23
0.23
0.23
0.23
0.23
0.23
0.23
0.23
0
0
0
0
0
0
0
0
0
0
0
0
0
0
0.00546004
0.0270281
0.0513241
0.0775368
0.104693
0.131719
0.157436
0.180377
0.199675
0.214831
0.225714
0.229807
0.229995
0.229999
0.23
0.23
0.23
0.23
0.23
0.23
0.23
0.23
0.23
0.23
0.23
0.23
0
0
0
0
0
0
0
0
0
0
0
0
0
0
0.00626277
0.0267111
0.0499734
0.0753103
0.101799
0.128396
0.15399
0.17711
0.196792
0.212462
0.224065
0.229562
0.229992
0.229999
0.23
0.23
0.23
0.23
0.23
0.23
0.23
0.23
0.23
0.23
0.23
0.23
0
0
0
0
0
0
0
0
0
0
0
0
0
0
0.00734911
0.0266878
0.0489046
0.0733358
0.0991144
0.125236
0.15062
0.173884
0.19391
0.210076
0.22228
0.229121
0.229984
0.229999
0.23
0.23
0.23
0.23
0.23
0.23
0.23
0.23
0.23
0.23
0.23
0.23
0
0
0
0
0
0
0
0
0
0
0
0
0
0
0.00870355
0.0269508
0.048118
0.0716194
0.0966499
0.122244
0.147352
0.170701
0.191034
0.207669
0.220403
0.228434
0.229968
0.229998
0.23
0.23
0.23
0.23
0.23
0.23
0.23
0.23
0.23
0.23
0.23
0.23
0
0
0
0
0
0
0
0
0
0
0
0
0
0
0.0103085
0.0274893
0.0476104
0.0701646
0.0944134
0.119439
0.144207
0.167576
0.188166
0.205236
0.218465
0.227474
0.22993
0.229997
0.23
0.23
0.23
0.23
0.23
0.23
0.23
0.23
0.23
0.23
0.23
0.23
0
0
0
0
0
0
0
0
0
0
0
0
0
0
0.0121453
0.0282899
0.0473756
0.0689721
0.0924101
0.116826
0.14122
0.164519
0.185316
0.202775
0.216478
0.226276
0.229839
0.229996
0.23
0.23
0.23
0.23
0.23
0.23
0.23
0.23
0.23
0.23
0.23
0.23
0
0
0
0
0
0
0
0
0
0
0
0
0
0.00208915
0.014197
0.0293381
0.0474051
0.0680399
0.0906439
0.114411
0.138383
0.161524
0.182493
0.200299
0.214453
0.224899
0.229652
0.229993
0.229999
0.23
0.23
0.23
0.23
0.23
0.23
0.23
0.23
0.23
0.23
0.23
0
0
0
0
0
0
0
0
0
0
0
0
0
0.00521089
0.0164425
0.0306207
0.0476884
0.0673641
0.0891169
0.112201
0.135704
0.158619
0.179702
0.197819
0.212409
0.2234
0.22932
0.229987
0.229999
0.23
0.23
0.23
0.23
0.23
0.23
0.23
0.23
0.23
0.23
0.23
0
0
0
0.000221338
0
0
0
0
0
0
0
0
0.000778272
0.00846258
0.0188612
0.0321192
0.0482167
0.0669384
0.0878288
0.110202
0.133193
0.155823
0.176957
0.195343
0.210348
0.221813
0.228803
0.229977
0.229999
0.23
0.23
0.23
0.23
0.23
0.23
0.23
0.23
0.23
0.23
0.23
0
0
0
0.0067484
0.0014733
0
0
0
0
0
0
0.000157563
0.00482052
0.0118278
0.0214352
0.0338127
0.0489758
0.0667581
0.0867777
0.108417
0.13086
0.153159
0.17427
0.192876
0.208266
0.220167
0.228067
0.229952
0.229998
0.23
0.23
0.23
0.23
0.23
0.23
0.23
0.23
0.23
0.23
0.23
0
0
0.00524139
0.0130331
0.00792824
0.00340685
0.00148627
0.00162976
0.00346133
0.00344273
0.00262488
0.00479996
0.00892499
0.0152904
0.02415
0.0356837
0.0499467
0.0668139
0.085962
0.106846
0.128709
0.15064
0.171645
0.190428
0.206159
0.218477
0.227125
0.229898
0.229997
0.23
0.23
0.23
0.23
0.23
0.23
0.23
0.23
0.23
0.23
0.23
0
0.00413306
0.0116111
0.0190984
0.0141477
0.00977202
0.00782502
0.00771074
0.00911019
0.0087871
0.0077172
0.00946892
0.0130844
0.0188393
0.0269881
0.0377194
0.0511126
0.0670905
0.0853776
0.105492
0.126743
0.148264
0.169093
0.188006
0.204039
0.21675
0.226013
0.229784
0.229995
0.23
0.23
0.23
0.23
0.23
0.23
0.23
0.23
0.23
0.23
0.23
0.00357344
0.0105629
0.0177603
0.0249457
0.0201488
0.0159019
0.0139383
0.0136475
0.0147041
0.0141084
0.012804
0.0141623
0.0172893
0.0224651
0.0299371
0.0399031
0.0524618
0.067573
0.0850139
0.104355
0.124967
0.146037
0.166635
0.185621
0.201916
0.215
0.224781
0.229574
0.229991
0.229999
0.23
0.23
0.23
0.23
0.23
0.23
0.23
0.23
0.23
0.23
0.0100327
0.0167725
0.0236891
0.0305754
0.0259333
0.0218112
0.0198343
0.0194067
0.0201938
0.019387
0.0178762
0.0188664
0.0215349
0.0261575
0.0329865
0.0422213
0.0539796
0.068251
0.0848589
0.103429
0.123384
0.143967
0.164283
0.183285
0.199801
0.213238
0.22346
0.229234
0.229985
0.229999
0.23
0.23
0.23
0.23
0.23
0.23
0.23
0.23
0.23
0.23
0.0162721
0.0227606
0.0293969
0.0359903
0.0315029
0.0275041
0.0255184
0.0249767
0.0255448
0.0245813
0.022916
0.023571
0.0258103
0.0299099
0.036125
0.0446628
0.0556524
0.069112
0.0849039
0.102705
0.121994
0.142063
0.162056
0.181009
0.1977
0.211465
0.222078
0.228733
0.229973
0.229999
0.23
0.23
0.23
0.23
0.23
0.23
0.23
0.23
0.23
0.23
0.0222897
0.0285253
0.0348858
0.0411952
0.0368606
0.0329841
0.0309946
0.0303543
0.0307373
0.0296583
0.0278875
0.0282596
0.030104
0.0337125
0.0393442
0.0472156
0.0574689
0.0701435
0.085139
0.102178
0.120793
0.140325
0.159964
0.178798
0.195622
0.209681
0.220652
0.228055
0.229947
0.229998
0.23
0.23
0.23
0.23
0.23
0.23
0.23
0.23
0.23
0.23
0.0280827
0.034068
0.04016
0.0461962
0.0420115
0.0382555
0.0362673
0.0355411
0.0357628
0.0345965
0.0327586
0.0329021
0.0344005
0.0375533
0.0426346
0.0498699
0.0594167
0.0713347
0.0855537
0.10184
0.119776
0.138753
0.158007
0.176662
0.193575
0.207886
0.219195
0.227217
0.229893
0.229997
0.23
0.23
0.23
0.23
0.23
0.23
0.23
0.23
0.23
0.23
0.0336523
0.0393928
0.045226
0.0510007
0.046962
0.043324
0.041342
0.0405409
0.0406202
0.0393855
0.0375069
0.0374682
0.038674
0.0414173
0.0459841
0.052616
0.0614855
0.0726738
0.0861383
0.101684
0.118939
0.137346
0.156185
0.174616
0.191566
0.20609
0.217712
0.226249
0.229786
0.229995
0.23
0.23
0.23
0.23
0.23
0.23
0.23
0.23
0.23
0.23
0.0390025
0.0445061
0.0500909
0.0556164
0.0517192
0.0481965
0.0462251
0.045359
0.0453117
0.0440224
0.0421203
0.0419343
0.0428964
0.0452822
0.0493781
0.0554419
0.0636653
0.0741503
0.0868823
0.1017
0.118277
0.136102
0.154501
0.172669
0.189608
0.204305
0.216218
0.225187
0.229601
0.229992
0.229999
0.23
0.23
0.23
0.23
0.23
0.23
0.23
0.23
0.23
0.0441393
0.0494151
0.0547627
0.0600515
0.0562909
0.0528802
0.0509233
0.0500016
0.0498416
0.0485083
0.0465939
0.0462861
0.0470436
0.0491218
0.0527967
0.0583335
0.0659441
0.0757541
0.0877757
0.101882
0.117784
0.13502
0.152957
0.170828
0.187708
0.202538
0.214721
0.224055
0.229312
0.229986
0.229999
0.23
0.23
0.23
0.23
0.23
0.23
0.23
0.23
0.23
0.0490704
0.0541279
0.0592499
0.064314
0.0606849
0.0573828
0.0554439
0.054475
0.0542151
0.0528464
0.0509278
0.0505166
0.0510993
0.0529122
0.0562159
0.0612726
0.0683086
0.0774739
0.0888089
0.102219
0.117455
0.134096
0.151555
0.169099
0.185875
0.200798
0.213223
0.222875
0.228893
0.229976
0.229999
0.23
0.23
0.23
0.23
0.23
0.23
0.23
0.23
0.23
0.0538037
0.0586531
0.0635608
0.0684121
0.0649093
0.0617123
0.0597943
0.058786
0.0584378
0.0570412
0.0551242
0.0546238
0.0550543
0.0566357
0.0596124
0.0642374
0.070742
0.0792967
0.0899711
0.102704
0.117282
0.133328
0.150295
0.167491
0.184116
0.199091
0.211725
0.221665
0.228333
0.229956
0.229998
0.23
0.23
0.23
0.23
0.23
0.23
0.23
0.23
0.23
0.058348
0.0629993
0.0677038
0.0723534
0.0689719
0.0658763
0.0639817
0.0629409
0.0625151
0.0610971
0.0591866
0.0586084
0.0589044
0.060281
0.0629676
0.0672055
0.0732243
0.0812074
0.0912506
0.103326
0.117258
0.132709
0.149174
0.166002
0.18243
0.197423
0.210229
0.220432
0.227642
0.229915
0.229997
0.23
0.23
0.23
0.23
0.23
0.23
0.23
0.23
0.23
0.0627119
0.067175
0.0716868
0.0761454
0.0728802
0.0698825
0.0680134
0.0669464
0.0664526
0.0650192
0.063119
0.0624728
0.0626487
0.0638417
0.0662684
0.0701581
0.0757348
0.0831878
0.0926334
0.104075
0.117374
0.132234
0.148191
0.164631
0.180828
0.195799
0.208742
0.219184
0.226843
0.229838
0.229996
0.23
0.23
0.23
0.23
0.23
0.23
0.23
0.23
0.23
0.066904
0.0711885
0.0755175
0.0797952
0.0766416
0.0737382
0.0718962
0.0708086
0.0702556
0.068812
0.0669257
0.06622
0.0662882
0.0673153
0.0695067
0.0730811
0.0782548
0.0852189
0.0941035
0.104939
0.117623
0.131897
0.14734
0.163378
0.179315
0.194226
0.207273
0.21793
0.225964
0.229704
0.229993
0.229999
0.23
0.23
0.23
0.23
0.23
0.23
0.23
0.23
0.0709327
0.0750475
0.0792032
0.0833091
0.0802628
0.0774504
0.075637
0.0745337
0.0739294
0.0724803
0.0706109
0.0698534
0.0698248
0.070701
0.0726779
0.0759644
0.0807696
0.0872829
0.0956435
0.105903
0.117992
0.13169
0.146618
0.16224
0.177895
0.192711
0.205828
0.21668
0.225026
0.229496
0.22999
0.229999
0.23
0.23
0.23
0.23
0.23
0.23
0.23
0.23
0.0748059
0.0787594
0.0827506
0.0866929
0.0837502
0.0810257
0.0792421
0.0781274
0.077479
0.0760285
0.0741785
0.0733764
0.0732607
0.0739994
0.0757796
0.0788017
0.083268
0.0893649
0.0972371
0.106953
0.11847
0.131606
0.14602
0.161217
0.176569
0.191258
0.204413
0.215438
0.224046
0.229194
0.229983
0.229999
0.23
0.23
0.23
0.23
0.23
0.23
0.23
0.23
0.078531
0.0823312
0.0861655
0.0899533
0.0871093
0.0844703
0.0827176
0.0815955
0.0809094
0.079461
0.0776328
0.0767923
0.0765986
0.0772118
0.0788111
0.0815893
0.0857421
0.0914531
0.0988698
0.108073
0.119044
0.131634
0.145539
0.160304
0.175338
0.18987
0.203033
0.214205
0.22304
0.228783
0.229971
0.229999
0.23
0.23
0.23
0.23
0.23
0.23
0.23
0.23
0.0821151
0.0857689
0.0894548
0.0930953
0.0903466
0.0877895
0.086069
0.0849433
0.0842251
0.0827821
0.0809775
0.0801045
0.079841
0.0803398
0.0817725
0.0843247
0.0881866
0.0935384
0.10053
0.109251
0.119702
0.131763
0.145168
0.1595
0.174201
0.188551
0.201691
0.21298
0.222019
0.228263
0.229948
0.229998
0.23
0.23
0.23
0.23
0.23
0.23
0.23
0.23
0.0855642
0.0890795
0.0926238
0.096124
0.0934672
0.0909897
0.0893014
0.0881755
0.0874307
0.0859959
0.0842166
0.0833162
0.0829905
0.083385
0.0846642
0.087007
0.090598
0.0956144
0.102207
0.110473
0.120431
0.131983
0.144899
0.158797
0.173157
0.187302
0.200391
0.211768
0.220989
0.227647
0.229904
0.229997
0.23
0.23
0.23
0.23
0.23
0.23
0.23
0.23
0.0888854
0.0922682
0.0956777
0.0990445
0.096476
0.0940755
0.0924205
0.0912965
0.0905302
0.0891063
0.0873537
0.0864307
0.0860496
0.0863492
0.087487
0.0896354
0.0929737
0.0976763
0.103894
0.111732
0.121219
0.132284
0.144723
0.158191
0.172202
0.186125
0.199136
0.210573
0.219954
0.226957
0.229827
0.229996
0.23
0.23
0.23
0.23
0.23
0.23
0.23
0.23
0.0920842
0.0953406
0.0986217
0.101862
0.0993778
0.097052
0.0954308
0.0943117
0.0935273
0.0921168
0.0903922
0.0894511
0.089021
0.0892343
0.0902419
0.0922099
0.0953123
0.0997205
0.105586
0.113018
0.122059
0.132656
0.144632
0.157675
0.171333
0.185018
0.197929
0.209401
0.218923
0.226211
0.229704
0.229993
0.229999
0.23
0.23
0.23
0.23
0.23
0.23
0.23
0.0951658
0.0983018
0.101461
0.10458
0.102177
0.0999237
0.0983366
0.0972247
0.0964265
0.0950306
0.0933355
0.0923802
0.0919069
0.092042
0.0929298
0.0947304
0.0976125
0.101744
0.107278
0.114326
0.122942
0.13309
0.144618
0.157243
0.170547
0.18398
0.196772
0.208256
0.217902
0.225424
0.22952
0.22999
0.229999
0.23
0.23
0.23
0.23
0.23
0.23
0.23
0.0981357
0.101157
0.104199
0.107204
0.104879
0.102695
0.101142
0.10004
0.0992311
0.0978519
0.0961864
0.095221
0.0947099
0.0947741
0.0955519
0.0971971
0.0998735
0.103746
0.108966
0.11565
0.123861
0.133578
0.144673
0.156889
0.169839
0.18301
0.195665
0.20714
0.216893
0.224609
0.229262
0.229984
0.229999
0.23
0.23
0.23
0.23
0.23
0.23
0.23
0.100999
0.103911
0.106842
0.109737
0.107488
0.105371
0.103852
0.10276
0.101944
0.100584
0.0989487
0.0979757
0.0974322
0.0974325
0.0981091
0.0996103
0.102095
0.105723
0.110647
0.116987
0.124812
0.134116
0.14479
0.156606
0.169205
0.182103
0.194608
0.206056
0.215896
0.223778
0.22892
0.229973
0.229999
0.23
0.23
0.23
0.23
0.23
0.23
0.23
0.10376
0.106568
0.109394
0.112185
0.110008
0.107955
0.10647
0.10539
0.10457
0.103229
0.101625
0.100648
0.100076
0.100019
0.100603
0.10197
0.104275
0.107675
0.11232
0.118332
0.125789
0.134696
0.144964
0.156389
0.168639
0.181259
0.193601
0.205003
0.21491
0.222938
0.228495
0.229954
0.229998
0.23
0.23
0.23
0.23
0.23
0.23
0.23
0.106424
0.109133
0.111859
0.114551
0.112442
0.110451
0.109
0.107933
0.107111
0.10579
0.104218
0.103239
0.102643
0.102534
0.103034
0.104278
0.106416
0.109601
0.113981
0.119683
0.126788
0.135314
0.14519
0.156233
0.168137
0.180476
0.192644
0.203983
0.213937
0.222095
0.227996
0.229921
0.229997
0.23
0.23
0.23
0.23
0.23
0.23
0.23
0.108996
0.11161
0.114241
0.11684
0.114796
0.112864
0.111445
0.110393
0.10957
0.108271
0.106731
0.105753
0.105137
0.104981
0.105403
0.106533
0.108515
0.111499
0.11563
0.121037
0.127806
0.135967
0.145463
0.156133
0.167695
0.179751
0.191735
0.202998
0.21298
0.22125
0.227438
0.229864
0.229996
0.23
0.23
0.23
0.23
0.23
0.23
0.23
0.11148
0.114003
0.116544
0.119054
0.117072
0.115197
0.113811
0.112773
0.111951
0.110674
0.109166
0.108191
0.107558
0.107362
0.107712
0.108737
0.110573
0.113368
0.117265
0.122391
0.128841
0.136651
0.14578
0.156086
0.167311
0.179081
0.190875
0.202047
0.212041
0.220408
0.226834
0.229774
0.229994
0.23
0.23
0.23
0.23
0.23
0.23
0.23
0.113879
0.116317
0.118772
0.121199
0.119276
0.117454
0.116099
0.115076
0.114257
0.113002
0.111526
0.110556
0.109909
0.109676
0.109962
0.110889
0.11259
0.115208
0.118883
0.123744
0.129889
0.137362
0.146136
0.156088
0.166982
0.178466
0.190061
0.201131
0.211123
0.219576
0.226196
0.229642
0.229992
0.229999
0.23
0.23
0.23
0.23
0.23
0.23
0.116199
0.118556
0.12093
0.123277
0.121409
0.119639
0.118314
0.117306
0.116491
0.115258
0.113814
0.11285
0.112192
0.111927
0.112155
0.112991
0.114566
0.117018
0.120485
0.125094
0.130947
0.138098
0.146529
0.156136
0.166704
0.177904
0.189292
0.20025
0.210226
0.218754
0.225534
0.229458
0.229988
0.229999
0.23
0.23
0.23
0.23
0.23
0.23
0.118443
0.120724
0.123021
0.125294
0.123478
0.121756
0.120459
0.119466
0.118656
0.117445
0.116032
0.115076
0.11441
0.114116
0.11429
0.115044
0.116502
0.118798
0.122067
0.126439
0.132014
0.138855
0.146956
0.156227
0.166475
0.177393
0.188566
0.199403
0.209352
0.217943
0.224857
0.229213
0.229981
0.229999
0.23
0.23
0.23
0.23
0.23
0.23
0.120615
0.122824
0.125049
0.127253
0.125485
0.123808
0.122538
0.12156
0.120755
0.119566
0.118183
0.117235
0.116563
0.116244
0.11637
0.117047
0.118396
0.120546
0.123631
0.127776
0.133088
0.139632
0.147414
0.156359
0.166293
0.176931
0.187882
0.198592
0.208501
0.217142
0.224172
0.228903
0.22997
0.229999
0.23
0.23
0.23
0.23
0.23
0.23
0.12272
0.124861
0.127019
0.129158
0.127435
0.125799
0.124554
0.12359
0.12279
0.121623
0.12027
0.119332
0.118655
0.118313
0.118395
0.119002
0.12025
0.122264
0.125174
0.129106
0.134166
0.140425
0.1479
0.156529
0.166155
0.176515
0.18724
0.197814
0.207674
0.21635
0.223484
0.228531
0.22995
0.229998
0.23
0.23
0.23
0.23
0.23
0.23
0.124761
0.126839
0.128935
0.131014
0.129331
0.127734
0.126511
0.125559
0.124765
0.123619
0.122296
0.121367
0.120687
0.120326
0.120367
0.12091
0.122063
0.12395
0.126696
0.130425
0.135246
0.141234
0.148412
0.156734
0.166058
0.176143
0.18664
0.19707
0.20687
0.215569
0.222793
0.228107
0.229918
0.229997
0.23
0.23
0.23
0.23
0.23
0.23
0.126744
0.128763
0.130802
0.132826
0.131179
0.129615
0.128413
0.127472
0.126683
0.125557
0.124262
0.123343
0.122661
0.122283
0.122288
0.122771
0.123837
0.125604
0.128196
0.131734
0.136327
0.142055
0.148948
0.156971
0.166001
0.175813
0.18608
0.196361
0.206091
0.2148
0.222103
0.22764
0.229866
0.229996
0.23
0.23
0.23
0.23
0.23
0.23
0.128672
0.130637
0.132624
0.134598
0.132983
0.131449
0.130263
0.129332
0.128547
0.12744
0.126172
0.125263
0.12458
0.124186
0.124159
0.124586
0.125571
0.127226
0.129673
0.133031
0.137407
0.142886
0.149506
0.15724
0.165982
0.175526
0.185562
0.195684
0.205336
0.214046
0.221417
0.227139
0.229789
0.229994
0.23
0.23
0.23
0.23
0.23
0.23
0.13055
0.132466
0.134405
0.136335
0.134747
0.133238
0.132065
0.131142
0.13036
0.129271
0.128028
0.127129
0.126445
0.126038
0.12598
0.126357
0.127266
0.128817
0.131127
0.134314
0.138485
0.143726
0.150082
0.157538
0.165999
0.175278
0.185085
0.19504
0.204607
0.213306
0.220738
0.226613
0.229679
0.229992
0.229999
0.23
0.23
0.23
0.23
0.23
0.132382
0.134255
0.136152
0.138042
0.136476
0.134987
0.133824
0.132906
0.132126
0.131053
0.129833
0.128943
0.12826
0.127841
0.127755
0.128084
0.128923
0.130376
0.132558
0.135583
0.139559
0.144573
0.150676
0.157861
0.166049
0.175067
0.184647
0.194427
0.203902
0.212583
0.220068
0.226068
0.229529
0.229988
0.229999
0.23
0.23
0.23
0.23
0.23
0.134175
0.136008
0.137868
0.139723
0.138175
0.136701
0.135544
0.134628
0.133848
0.132788
0.13159
0.130709
0.130025
0.129595
0.129483
0.129769
0.130542
0.131904
0.133964
0.136837
0.140628
0.145426
0.151285
0.15821
0.166131
0.174893
0.184245
0.193846
0.203223
0.211877
0.219407
0.225512
0.229333
0.229983
0.229999
0.23
0.23
0.23
0.23
0.23
0.135931
0.137731
0.139559
0.141385
0.139848
0.138385
0.13723
0.136312
0.135529
0.134482
0.133303
0.132428
0.131744
0.131303
0.131168
0.131413
0.132124
0.1334
0.135347
0.138075
0.14169
0.146281
0.151908
0.158581
0.166243
0.174754
0.18388
0.193298
0.202568
0.211188
0.218752
0.22495
0.229087
0.229974
0.229999
0.23
0.23
0.23
0.23
0.23
0.137658
0.139428
0.141229
0.143029
0.141501
0.140044
0.138884
0.137962
0.137174
0.136136
0.134974
0.134104
0.13342
0.132968
0.13281
0.133017
0.13367
0.134866
0.136706
0.139297
0.142745
0.147139
0.152543
0.158973
0.166383
0.174647
0.183549
0.192782
0.20194
0.210516
0.218105
0.224385
0.228794
0.229959
0.229998
0.23
0.23
0.23
0.23
0.23
0.139358
0.141105
0.142883
0.144662
0.143138
0.141681
0.140513
0.139582
0.138787
0.137755
0.136606
0.13574
0.135053
0.134592
0.134412
0.134582
0.135182
0.136301
0.13804
0.140503
0.143792
0.147998
0.153188
0.159383
0.166549
0.174572
0.183252
0.192299
0.201337
0.209862
0.217467
0.223818
0.228459
0.229936
0.229998
0.23
0.23
0.23
0.23
0.23
0.141038
0.142765
0.144524
0.146285
0.144762
0.143301
0.142121
0.141177
0.140371
0.139342
0.138205
0.13734
0.136649
0.136176
0.135975
0.136111
0.136659
0.137707
0.13935
0.141691
0.144829
0.148857
0.153841
0.159811
0.16674
0.174527
0.182988
0.191849
0.200759
0.209227
0.216838
0.22325
0.228087
0.229901
0.229997
0.23
0.23
0.23
0.23
0.23
0.142702
0.144413
0.146157
0.147902
0.146377
0.144909
0.143711
0.14275
0.14193
0.140901
0.139772
0.138905
0.138208
0.137723
0.137501
0.137604
0.138104
0.139084
0.140637
0.142862
0.145857
0.149714
0.154501
0.160254
0.166953
0.17451
0.182755
0.191431
0.200204
0.20861
0.216219
0.222685
0.227686
0.229847
0.229995
0.23
0.23
0.23
0.23
0.23
0.144353
0.146052
0.147782
0.149511
0.147985
0.146506
0.145288
0.144307
0.143469
0.142437
0.141311
0.14044
0.139735
0.139237
0.138994
0.139064
0.139517
0.140433
0.1419
0.144015
0.146874
0.150568
0.155168
0.160711
0.167188
0.174521
0.182553
0.191043
0.199675
0.208011
0.215611
0.222125
0.227262
0.229772
0.229994
0.229999
0.23
0.23
0.23
0.23
0.145995
0.147684
0.149401
0.151109
0.149586
0.148096
0.146854
0.14585
0.144991
0.143953
0.142828
0.141949
0.141233
0.140719
0.140454
0.140492
0.1409
0.141754
0.14314
0.145151
0.147881
0.151419
0.155838
0.161181
0.167442
0.174556
0.182379
0.190685
0.199172
0.207432
0.215016
0.221572
0.226821
0.22967
0.229991
0.229999
0.23
0.23
0.23
0.23
0.14763
0.149309
0.151007
0.15267
0.151175
0.149679
0.148412
0.147382
0.1465
0.145453
0.144324
0.143434
0.142705
0.142173
0.141884
0.14189
0.142254
0.143049
0.144358
0.146269
0.148876
0.152266
0.156513
0.161662
0.167715
0.174615
0.182232
0.190354
0.198694
0.206872
0.214434
0.221025
0.226368
0.229535
0.229987
0.229999
0.23
0.23
0.23
0.23
0.149258
0.150922
0.152578
0.154121
0.152728
0.151249
0.149963
0.148906
0.147999
0.14694
0.145805
0.1449
0.144154
0.143602
0.143288
0.143261
0.143582
0.14432
0.145554
0.14737
0.14986
0.153108
0.157189
0.162152
0.168004
0.174697
0.182112
0.190051
0.198241
0.206332
0.213865
0.220485
0.225907
0.229363
0.229982
0.229999
0.23
0.23
0.23
0.23
0.150874
0.152499
0.154038
0.15522
0.154171
0.152783
0.1515
0.150422
0.14949
0.148416
0.147272
0.14635
0.145584
0.145009
0.144667
0.144607
0.144884
0.145566
0.146728
0.148454
0.150831
0.153945
0.157868
0.162651
0.168309
0.1748
0.182017
0.189776
0.197816
0.205812
0.213309
0.21995
0.225443
0.229153
0.229974
0.229999
0.23
0.23
0.23
0.23
0.152454
0.153964
0.155143
0.155263
0.154209
0.153002
0.151925
0.150973
0.149885
0.14873
0.147787
0.146998
0.146397
0.146026
0.145929
0.146163
0.14679
0.147883
0.149522
0.151792
0.154775
0.158547
0.163158
0.168628
0.174923
0.181946
0.189526
0.197417
0.20531
0.212768
0.219422
0.224977
0.228908
0.229961
0.229998
0.23
0.23
0.23
0.23
0.153922
0.155074
0.155288
0.154397
0.153393
0.152443
0.151346
0.15018
0.149214
0.148399
0.147769
0.147366
0.147232
0.147421
0.147994
0.149019
0.150574
0.15274
0.1556
0.159225
0.163671
0.16896
0.175064
0.181898
0.189302
0.197043
0.204827
0.21224
0.218902
0.22451
0.228631
0.229941
0.229998
0.23
0.23
0.23
0.23
0.155033
0.155453
0.154756
0.153879
0.152795
0.151622
0.150632
0.149789
0.149129
0.14869
0.148517
0.148661
0.149178
0.150137
0.151611
0.153678
0.156418
0.159904
0.16419
0.169303
0.175223
0.181871
0.189101
0.196693
0.204364
0.211727
0.218388
0.224043
0.228325
0.229911
0.229997
0.23
0.23
0.23
0.23
0.155788
0.155212
0.15421
0.153051
0.152043
0.151171
0.150477
0.150001
0.149787
0.149883
0.150346
0.151239
0.152633
0.154604
0.157229
0.160581
0.164714
0.169658
0.175398
0.181865
0.188924
0.196366
0.203921
0.211228
0.217884
0.223578
0.227996
0.229869
0.229996
0.229999
0.23
0.23
0.23
0.15622
0.155523
0.154447
0.153441
0.152546
0.151818
0.151303
0.151044
0.151092
0.151498
0.152326
0.153642
0.15552
0.158034
0.161256
0.165242
0.170022
0.175588
0.181879
0.188768
0.196061
0.203498
0.210744
0.217388
0.223118
0.227649
0.22981
0.229994
0.229999
0.23
0.23
0.23
0.156516
0.155743
0.154806
0.153907
0.15315
0.152595
0.152292
0.152288
0.152638
0.153399
0.154639
0.156426
0.158833
0.16193
0.165773
0.170395
0.175792
0.18191
0.188634
0.195778
0.203096
0.210275
0.216902
0.222662
0.227287
0.229731
0.229992
0.229999
0.23
0.23
0.23
0.156722
0.156073
0.155236
0.154469
0.153879
0.15353
0.153475
0.153766
0.154462
0.155624
0.157322
0.159626
0.162602
0.166307
0.170776
0.176009
0.18196
0.18852
0.195517
0.202715
0.209821
0.216427
0.222212
0.226915
0.229628
0.229989
0.229999
0.23
0.23
0.23
0.157031
0.156469
0.155756
0.15515
0.15476
0.154653
0.154885
0.155514
0.156601
0.158211
0.160413
0.163272
0.166844
0.171165
0.176239
0.182025
0.188426
0.195278
0.202355
0.209382
0.215962
0.221768
0.226537
0.229498
0.229985
0.229999
0.23
0.23
0.23
0.157401
0.15695
0.15639
0.155977
0.155822
0.155996
0.156558
0.157569
0.159092
0.161195
0.16394
0.167383