/*--------------------------------*- C++ -*----------------------------------*\
| =========                 |                                                 |
| \\      /  F ield         | OpenFOAM: The Open Source CFD Toolbox           |
|  \\    /   O peration     | Version:  2.3.0                                 |
|   \\  /    A nd           | Web:      www.OpenFOAM.org                      |
|    \\/     M anipulation  |                                                 |
\*---------------------------------------------------------------------------*/
FoamFile
{
    version     2.0;
    format      ascii;
    class       surfaceScalarField;
    location    "9700/topAir";
    object      phi;
}
// * * * * * * * * * * * * * * * * * * * * * * * * * * * * * * * * * * * * * //

dimensions      [1 0 -1 0 0 0 0];

internalField   nonuniform List<scalar> 
7860
(
0.01417733
1.225055e-05
0.01416696
1.036884e-05
0.0141584
8.566914e-06
0.01414962
8.776263e-06
0.01414057
9.058751e-06
0.01413141
9.156757e-06
0.01412218
9.230052e-06
0.01411288
9.304662e-06
0.01410351
9.36664e-06
0.0140941
9.415607e-06
0.01408464
9.455222e-06
0.01407515
9.487498e-06
0.01406564
9.513673e-06
0.0140561
9.534848e-06
0.01404655
9.551926e-06
0.01403699
9.565615e-06
0.01402741
9.576472e-06
0.01401782
9.584946e-06
0.01400823
9.591397e-06
0.01399864
9.59612e-06
0.01398904
9.599358e-06
0.01397943
9.601308e-06
0.01396983
9.602139e-06
0.01396023
9.601989e-06
0.01395063
9.600977e-06
0.01394103
9.599203e-06
0.01393143
9.596752e-06
0.01392184
9.5937e-06
0.01391225
9.590108e-06
0.01390266
9.586034e-06
0.01389308
9.581525e-06
0.0138835
9.576622e-06
0.01387393
9.571365e-06
0.01386437
9.565783e-06
0.01385481
9.559907e-06
0.01384525
9.553762e-06
0.0138357
9.547369e-06
0.01382616
9.540749e-06
0.01381663
9.533918e-06
0.0138071
9.526893e-06
0.01379758
9.519687e-06
0.01378807
9.512311e-06
0.01377857
9.504775e-06
0.01376907
9.49709e-06
0.01375958
9.489261e-06
0.0137501
9.481296e-06
0.01374062
9.4732e-06
0.01373116
9.464977e-06
0.0137217
9.45663e-06
0.01371225
9.448161e-06
0.01370281
9.439572e-06
0.01369338
9.430862e-06
0.01368396
9.422031e-06
0.01367455
9.413077e-06
0.01366514
9.403997e-06
0.01365575
9.394787e-06
0.01364636
9.385443e-06
0.01363699
9.375957e-06
0.01362762
9.366323e-06
0.01361827
9.356531e-06
0.01360892
9.346572e-06
0.01359958
9.336432e-06
0.01359026
9.326099e-06
0.01358094
9.315556e-06
0.01357164
9.304786e-06
0.01356234
9.293766e-06
0.01355306
9.282475e-06
0.01354379
9.270884e-06
0.01353453
9.258964e-06
0.01352528
9.246678e-06
0.01351605
9.233986e-06
0.01350683
9.220842e-06
0.01349762
9.207193e-06
0.01348843
9.192976e-06
0.01347925
9.17812e-06
0.01347009
9.162542e-06
0.01346094
9.146142e-06
0.01345181
9.128805e-06
0.0134427
9.110394e-06
0.01343361
9.090743e-06
0.01342454
9.069654e-06
0.01341549
9.046886e-06
0.01340647
9.022141e-06
0.01339748
8.995051e-06
0.01338851
8.96515e-06
0.01337958
8.931846e-06
0.01337069
8.894368e-06
0.01336183
8.851697e-06
0.01335303
8.802455e-06
0.01334429
8.744727e-06
0.01333561
8.67577e-06
0.01332702
8.591504e-06
0.01331853
8.485592e-06
0.01331019
8.34763e-06
0.01330203
8.159766e-06
0.01329414
7.888294e-06
0.01328667
7.471534e-06
0.01327991
6.761053e-06
0.01327437
5.538849e-06
2.792469e-06
0.01420097
1.714082e-06
0.0142047
6.639765e-06
0.01420602
7.250332e-06
0.01420734
7.459702e-06
0.01420851
7.893715e-06
0.01420945
8.21343e-06
0.01421025
8.434469e-06
0.01421094
8.612842e-06
0.01421155
8.75878e-06
0.01421209
8.87707e-06
0.01421257
8.974446e-06
0.014213
9.055881e-06
0.01421339
9.124679e-06
0.01421374
9.183313e-06
0.01421406
9.233701e-06
0.01421434
9.277315e-06
0.0142146
9.3153e-06
0.01421484
9.348563e-06
0.01421505
9.377825e-06
0.01421525
9.403672e-06
0.01421542
9.426583e-06
0.01421557
9.44695e-06
0.01421571
9.465102e-06
0.01421583
9.481312e-06
0.01421593
9.495812e-06
0.01421602
9.5088e-06
0.0142161
9.520442e-06
0.01421616
9.530883e-06
0.01421621
9.540248e-06
0.01421625
9.548645e-06
0.01421628
9.556169e-06
0.01421629
9.562901e-06
0.01421629
9.568913e-06
0.01421628
9.574269e-06
0.01421626
9.579024e-06
0.01421623
9.583227e-06
0.01421619
9.586922e-06
0.01421615
9.590146e-06
0.01421609
9.592933e-06
0.01421602
9.595312e-06
0.01421594
9.597309e-06
0.01421585
9.598948e-06
0.01421576
9.600246e-06
0.01421565
9.601222e-06
0.01421554
9.601889e-06
0.01421542
9.602259e-06
0.01421529
9.602342e-06
0.01421515
9.602145e-06
0.01421501
9.601674e-06
0.01421486
9.600932e-06
0.01421469
9.59992e-06
0.01421453
9.598638e-06
0.01421435
9.597084e-06
0.01421417
9.595252e-06
0.01421398
9.593137e-06
0.01421378
9.590729e-06
0.01421358
9.588018e-06
0.01421337
9.58499e-06
0.01421316
9.581629e-06
0.01421294
9.577917e-06
0.01421271
9.573831e-06
0.01421248
9.569346e-06
0.01421224
9.564434e-06
0.01421199
9.559061e-06
0.01421175
9.553189e-06
0.01421149
9.546777e-06
0.01421123
9.539775e-06
0.01421097
9.532127e-06
0.01421071
9.523771e-06
0.01421044
9.514634e-06
0.01421017
9.504633e-06
0.0142099
9.493674e-06
0.01420962
9.481647e-06
0.01420935
9.468428e-06
0.01420907
9.453869e-06
0.0142088
9.437801e-06
0.01420852
9.420025e-06
0.01420825
9.400305e-06
0.01420798
9.378366e-06
0.01420772
9.353873e-06
0.01420746
9.326428e-06
0.01420721
9.295547e-06
0.01420698
9.260636e-06
0.01420675
9.220959e-06
0.01420654
9.175594e-06
0.01420635
9.12337e-06
0.01420618
9.062778e-06
0.01420604
8.99184e-06
0.01420593
8.907915e-06
0.01420587
8.8074e-06
0.01420586
8.685272e-06
0.01420592
8.534344e-06
0.01420606
8.344063e-06
0.01420631
8.098457e-06
0.0142067
7.772794e-06
0.01420726
7.32723e-06
0.01420803
6.698319e-06
0.01420902
5.773505e-06
0.01421016
4.3947e-06
2.169821e-06
0.01419384
2.359471e-06
0.01419585
4.635352e-06
0.01419739
5.704845e-06
0.01419856
6.292199e-06
0.0141996
6.862777e-06
0.01420051
7.306778e-06
0.01420131
7.627263e-06
0.01420205
7.879374e-06
0.01420272
8.085119e-06
0.01420334
8.253599e-06
0.01420392
8.393238e-06
0.01420447
8.51064e-06
0.01420498
8.610376e-06
0.01420547
8.695821e-06
0.01420593
8.769581e-06
0.01420638
8.833682e-06
0.0142068
8.889712e-06
0.01420721
8.938936e-06
0.01420761
8.982374e-06
0.01420799
9.020857e-06
0.01420836
9.055065e-06
0.01420872
9.085565e-06
0.01420908
9.112829e-06
0.01420942
9.137254e-06
0.01420976
9.159176e-06
0.01421009
9.178883e-06
0.01421041
9.19662e-06
0.01421073
9.212599e-06
0.01421104
9.227002e-06
0.01421135
9.239989e-06
0.01421165
9.251697e-06
0.01421195
9.262248e-06
0.01421225
9.271749e-06
0.01421254
9.280291e-06
0.01421284
9.287959e-06
0.01421312
9.294822e-06
0.01421341
9.300947e-06
0.01421369
9.306387e-06
0.01421397
9.311194e-06
0.01421425
9.315411e-06
0.01421453
9.319075e-06
0.01421481
9.32222e-06
0.01421508
9.324875e-06
0.01421536
9.327064e-06
0.01421563
9.328809e-06
0.0142159
9.330126e-06
0.01421617
9.33103e-06
0.01421645
9.331531e-06
0.01421672
9.331639e-06
0.01421698
9.331356e-06
0.01421725
9.330686e-06
0.01421752
9.329628e-06
0.01421779
9.328177e-06
0.01421806
9.326327e-06
0.01421833
9.324067e-06
0.0142186
9.321386e-06
0.01421887
9.318267e-06
0.01421914
9.314689e-06
0.01421941
9.310629e-06
0.01421968
9.30606e-06
0.01421995
9.300948e-06
0.01422023
9.295258e-06
0.0142205
9.288946e-06
0.01422078
9.281964e-06
0.01422106
9.274256e-06
0.01422134
9.26576e-06
0.01422162
9.256405e-06
0.01422191
9.246109e-06
0.0142222
9.23478e-06
0.01422249
9.222312e-06
0.01422279
9.208586e-06
0.01422309
9.193463e-06
0.01422339
9.176785e-06
0.0142237
9.158371e-06
0.01422402
9.138009e-06
0.01422434
9.115454e-06
0.01422467
9.09042e-06
0.01422501
9.06257e-06
0.01422535
9.031508e-06
0.01422571
8.99676e-06
0.01422608
8.957761e-06
0.01422646
8.913826e-06
0.01422686
8.864123e-06
0.01422727
8.807626e-06
0.0142277
8.743061e-06
0.01422816
8.668825e-06
0.01422864
8.582877e-06
0.01422915
8.482579e-06
0.01422969
8.364475e-06
0.01423027
8.22396e-06
0.01423091
8.054794e-06
0.01423159
7.848375e-06
0.01423234
7.592643e-06
0.01423317
7.270414e-06
0.01423409
6.856984e-06
0.0142351
6.316519e-06
0.0142362
5.598323e-06
0.01423734
4.631432e-06
0.0142384
3.333012e-06
1.634026e-06
0.01419629
1.591057e-06
0.01419727
3.663061e-06
0.01419816
4.81663e-06
0.01419897
5.480325e-06
0.01419978
6.06403e-06
0.01420054
6.546414e-06
0.01420125
6.919249e-06
0.01420191
7.219481e-06
0.01420252
7.468372e-06
0.0142031
7.675758e-06
0.01420364
7.849899e-06
0.01420416
7.997644e-06
0.01420464
8.124056e-06
0.0142051
8.232976e-06
0.01420555
8.32743e-06
0.01420597
8.409815e-06
0.01420638
8.482044e-06
0.01420677
8.545661e-06
0.01420715
8.601921e-06
0.01420752
8.651855e-06
0.01420788
8.696317e-06
0.01420823
8.736017e-06
0.01420857
8.771552e-06
0.0142089
8.803427e-06
0.01420923
8.83207e-06
0.01420955
8.857848e-06
0.01420987
8.881076e-06
0.01421018
8.902024e-06
0.01421048
8.920929e-06
0.01421078
8.937995e-06
0.01421108
8.953401e-06
0.01421138
8.967303e-06
0.01421167
8.979839e-06
0.01421196
8.991128e-06
0.01421224
9.001279e-06
0.01421253
9.010384e-06
0.01421281
9.018526e-06
0.01421309
9.025778e-06
0.01421337
9.032205e-06
0.01421365
9.037863e-06
0.01421392
9.042801e-06
0.0142142
9.047062e-06
0.01421447
9.050685e-06
0.01421475
9.0537e-06
0.01421502
9.056136e-06
0.01421529
9.058014e-06
0.01421556
9.059353e-06
0.01421583
9.060167e-06
0.0142161
9.060465e-06
0.01421638
9.060255e-06
0.01421665
9.059539e-06
0.01421692
9.058315e-06
0.01421719
9.056578e-06
0.01421746
9.054318e-06
0.01421773
9.051524e-06
0.01421801
9.048177e-06
0.01421828
9.044257e-06
0.01421856
9.039736e-06
0.01421883
9.034585e-06
0.01421911
9.028766e-06
0.01421939
9.022237e-06
0.01421967
9.014951e-06
0.01421995
9.006851e-06
0.01422023
8.997874e-06
0.01422052
8.987949e-06
0.01422081
8.976993e-06
0.0142211
8.964914e-06
0.01422139
8.951606e-06
0.01422169
8.936951e-06
0.01422199
8.920811e-06
0.0142223
8.903031e-06
0.01422261
8.883434e-06
0.01422292
8.861817e-06
0.01422324
8.837946e-06
0.01422357
8.811551e-06
0.0142239
8.782318e-06
0.01422424
8.749885e-06
0.01422459
8.713825e-06
0.01422495
8.673635e-06
0.01422532
8.628724e-06
0.0142257
8.578382e-06
0.01422609
8.52176e-06
0.0142265
8.457832e-06
0.01422692
8.385343e-06
0.01422736
8.30275e-06
0.01422782
8.208138e-06
0.0142283
8.099099e-06
0.01422881
7.972582e-06
0.01422935
7.82467e-06
0.01422993
7.650289e-06
0.01423054
7.442788e-06
0.01423119
7.193375e-06
0.0142319
6.890354e-06
0.01423265
6.518117e-06
0.01423345
6.055951e-06
0.01423429
5.47681e-06
0.01423514
4.746763e-06
0.01423595
3.826967e-06
0.0142366
2.679021e-06
1.304203e-06
0.01419606
1.642586e-06
0.01419664
3.082377e-06
0.01419743
4.028901e-06
0.0141982
4.713072e-06
0.01419895
5.318785e-06
0.01419966
5.832634e-06
0.01420034
6.247189e-06
0.01420097
6.588153e-06
0.01420156
6.874184e-06
0.01420212
7.115342e-06
0.01420265
7.319839e-06
0.01420316
7.494644e-06
0.01420363
7.645136e-06
0.01420409
7.775496e-06
0.01420453
7.889053e-06
0.01420495
7.988485e-06
0.01420536
8.075955e-06
0.01420575
8.153221e-06
0.01420613
8.221728e-06
0.0142065
8.282671e-06
0.01420686
8.337044e-06
0.01420721
8.385684e-06
0.01420755
8.429292e-06
0.01420788
8.468469e-06
0.01420821
8.503723e-06
0.01420853
8.535492e-06
0.01420885
8.564155e-06
0.01420916
8.590036e-06
0.01420947
8.613421e-06
0.01420977
8.634556e-06
0.01421007
8.653658e-06
0.01421037
8.670917e-06
0.01421066
8.6865e-06
0.01421095
8.700554e-06
0.01421124
8.713209e-06
0.01421153
8.724578e-06
0.01421181
8.734764e-06
0.01421209
8.743855e-06
0.01421237
8.751931e-06
0.01421265
8.759059e-06
0.01421293
8.765302e-06
0.0142132
8.770712e-06
0.01421348
8.775334e-06
0.01421375
8.779209e-06
0.01421403
8.78237e-06
0.0142143
8.784843e-06
0.01421457
8.786652e-06
0.01421485
8.787814e-06
0.01421512
8.788342e-06
0.01421539
8.788242e-06
0.01421566
8.787518e-06
0.01421593
8.786169e-06
0.01421621
8.784187e-06
0.01421648
8.781562e-06
0.01421675
8.778279e-06
0.01421703
8.774315e-06
0.0142173
8.769644e-06
0.01421758
8.764236e-06
0.01421785
8.758051e-06
0.01421813
8.751045e-06
0.01421841
8.743167e-06
0.01421869
8.734357e-06
0.01421897
8.724549e-06
0.01421926
8.713665e-06
0.01421954
8.701617e-06
0.01421983
8.688307e-06
0.01422012
8.673622e-06
0.01422042
8.657434e-06
0.01422071
8.639599e-06
0.01422101
8.619951e-06
0.01422132
8.598306e-06
0.01422163
8.574448e-06
0.01422194
8.548134e-06
0.01422226
8.519085e-06
0.01422258
8.486979e-06
0.01422292
8.451444e-06
0.01422325
8.41205e-06
0.0142236
8.368293e-06
0.01422395
8.319587e-06
0.01422432
8.265238e-06
0.01422469
8.204427e-06
0.01422508
8.136177e-06
0.01422547
8.059317e-06
0.01422589
7.972432e-06
0.01422632
7.873801e-06
0.01422676
7.761315e-06
0.01422723
7.632371e-06
0.01422772
7.483729e-06
0.01422823
7.31133e-06
0.01422877
7.110055e-06
0.01422934
6.87342e-06
0.01422994
6.593192e-06
0.01423057
6.258934e-06
0.01423123
5.85753e-06
0.01423192
5.372801e-06
0.01423261
4.785564e-06
0.01423328
4.074542e-06
0.01423389
3.220503e-06
0.01423436
2.209831e-06
1.068193e-06
0.01419713
1.226915e-06
0.01419765
2.566629e-06
0.01419822
3.457673e-06
0.01419881
4.129654e-06
0.0141994
4.731243e-06
0.01419998
5.249708e-06
0.01420055
5.679663e-06
0.0142011
6.040515e-06
0.01420162
6.347584e-06
0.01420213
6.609937e-06
0.01420261
6.83504e-06
0.01420308
7.029342e-06
0.01420352
7.197993e-06
0.01420395
7.345102e-06
0.01420437
7.474008e-06
0.01420477
7.587447e-06
0.01420516
7.687664e-06
0.01420553
7.776514e-06
0.0142059
7.855538e-06
0.01420626
7.926028e-06
0.0142066
7.989067e-06
0.01420694
8.045575e-06
0.01420728
8.096331e-06
0.0142076
8.142001e-06
0.01420792
8.183159e-06
0.01420824
8.220297e-06
0.01420855
8.253843e-06
0.01420885
8.284168e-06
0.01420916
8.311595e-06
0.01420945
8.336409e-06
0.01420975
8.358856e-06
0.01421004
8.379156e-06
0.01421033
8.3975e-06
0.01421062
8.41406e-06
0.0142109
8.428984e-06
0.01421118
8.442405e-06
0.01421146
8.454441e-06
0.01421174
8.465195e-06
0.01421202
8.474759e-06
0.01421229
8.483213e-06
0.01421257
8.490627e-06
0.01421284
8.497064e-06
0.01421311
8.502577e-06
0.01421339
8.507211e-06
0.01421366
8.511006e-06
0.01421393
8.513993e-06
0.0142142
8.5162e-06
0.01421447
8.517645e-06
0.01421474
8.518343e-06
0.01421501
8.518303e-06
0.01421528
8.517529e-06
0.01421555
8.516018e-06
0.01421582
8.513762e-06
0.01421609
8.51075e-06
0.01421636
8.506961e-06
0.01421663
8.502371e-06
0.01421691
8.496949e-06
0.01421718
8.490659e-06
0.01421745
8.483454e-06
0.01421773
8.475284e-06
0.01421801
8.466087e-06
0.01421828
8.455796e-06
0.01421856
8.444331e-06
0.01421885
8.431602e-06
0.01421913
8.417508e-06
0.01421942
8.401933e-06
0.01421971
8.384747e-06
0.01422
8.365802e-06
0.01422029
8.344931e-06
0.01422059
8.321945e-06
0.01422089
8.296627e-06
0.0142212
8.268734e-06
0.01422151
8.237986e-06
0.01422182
8.204064e-06
0.01422214
8.166603e-06
0.01422247
8.125181e-06
0.0142228
8.079314e-06
0.01422314
8.028437e-06
0.01422349
7.971895e-06
0.01422385
7.90892e-06
0.01422421
7.838611e-06
0.01422459
7.759902e-06
0.01422498
7.671527e-06
0.01422538
7.571975e-06
0.01422579
7.45943e-06
0.01422622
7.331703e-06
0.01422667
7.186136e-06
0.01422713
7.019488e-06
0.01422761
6.827802e-06
0.01422812
6.606224e-06
0.01422864
6.34882e-06
0.01422919
6.048354e-06
0.01422975
5.696099e-06
0.01423033
5.281731e-06
0.0142309
4.793436e-06
0.01423147
4.218532e-06
0.014232
3.544749e-06
0.01423246
2.763943e-06
0.01423279
1.873697e-06
8.997271e-07
0.01419724
1.195448e-06
0.01419754
2.266606e-06
0.01419798
3.025231e-06
0.01419846
3.652489e-06
0.01419897
4.226778e-06
0.01419949
4.731776e-06
0.0142
5.162311e-06
0.01420051
5.531859e-06
0.01420101
5.851617e-06
0.01420149
6.12872e-06
0.01420195
6.369393e-06
0.0142024
6.579232e-06
0.01420284
6.762902e-06
0.01420326
6.924249e-06
0.01420367
7.066485e-06
0.01420406
7.192298e-06
0.01420445
7.303938e-06
0.01420482
7.403294e-06
0.01420518
7.491959e-06
0.01420554
7.571279e-06
0.01420588
7.642398e-06
0.01420622
7.706295e-06
0.01420655
7.763805e-06
0.01420688
7.815648e-06
0.0142072
7.862446e-06
0.01420752
7.904739e-06
0.01420783
7.942994e-06
0.01420813
7.977621e-06
0.01420844
8.008978e-06
0.01420873
8.037379e-06
0.01420903
8.0631e-06
0.01420932
8.086386e-06
0.01420961
8.107451e-06
0.0142099
8.126487e-06
0.01421018
8.143661e-06
0.01421047
8.159123e-06
0.01421075
8.173005e-06
0.01421103
8.185424e-06
0.01421131
8.196483e-06
0.01421158
8.206275e-06
0.01421186
8.214877e-06
0.01421213
8.222362e-06
0.01421241
8.228788e-06
0.01421268
8.234209e-06
0.01421295
8.238668e-06
0.01421322
8.242203e-06
0.0142135
8.244842e-06
0.01421377
8.246609e-06
0.01421404
8.247519e-06
0.01421431
8.247584e-06
0.01421458
8.246807e-06
0.01421485
8.245185e-06
0.01421512
8.24271e-06
0.01421539
8.239368e-06
0.01421566
8.235136e-06
0.01421594
8.229987e-06
0.01421621
8.223886e-06
0.01421648
8.21679e-06
0.01421676
8.208649e-06
0.01421703
8.199404e-06
0.01421731
8.188987e-06
0.01421759
8.177321e-06
0.01421787
8.164315e-06
0.01421815
8.149869e-06
0.01421843
8.133868e-06
0.01421872
8.116183e-06
0.01421901
8.096668e-06
0.0142193
8.075156e-06
0.01421959
8.051461e-06
0.01421989
8.025371e-06
0.01422019
7.996648e-06
0.01422049
7.965019e-06
0.0142208
7.930177e-06
0.01422111
7.89177e-06
0.01422143
7.849396e-06
0.01422175
7.802596e-06
0.01422208
7.750842e-06
0.01422242
7.693526e-06
0.01422276
7.629942e-06
0.01422311
7.559272e-06
0.01422347
7.480563e-06
0.01422383
7.392697e-06
0.01422421
7.294362e-06
0.0142246
7.184009e-06
0.014225
7.059803e-06
0.01422541
6.919565e-06
0.01422583
6.760698e-06
0.01422627
6.580107e-06
0.01422673
6.374098e-06
0.0142272
6.138276e-06
0.01422768
5.867441e-06
0.01422817
5.55551e-06
0.01422867
5.195486e-06
0.01422917
4.779573e-06
0.01422967
4.299499e-06
0.01423014
3.74729e-06
0.01423057
3.116481e-06
0.01423092
2.404974e-06
0.01423118
1.615583e-06
7.708931e-07
0.01419782
9.998797e-07
0.01419811
1.978125e-06
0.01419848
2.665071e-06
0.01419888
3.248032e-06
0.01419932
3.794438e-06
0.01419977
4.283802e-06
0.01420022
4.709357e-06
0.01420067
5.080808e-06
0.01420112
5.406513e-06
0.01420155
5.692068e-06
0.01420198
5.942644e-06
0.0142024
6.163067e-06
0.0142028
6.357486e-06
0.0142032
6.529421e-06
0.01420358
6.681877e-06
0.01420395
6.817418e-06
0.01420432
6.938227e-06
0.01420468
7.046162e-06
0.01420503
7.142812e-06
0.01420537
7.229536e-06
0.0142057
7.307501e-06
0.01420603
7.377713e-06
0.01420635
7.441038e-06
0.01420667
7.49823e-06
0.01420698
7.549942e-06
0.01420729
7.596745e-06
0.01420759
7.639137e-06
0.01420789
7.677555e-06
0.01420819
7.712384e-06
0.01420848
7.743962e-06
0.01420877
7.772587e-06
0.01420906
7.798524e-06
0.01420935
7.822008e-06
0.01420963
7.843245e-06
0.01420991
7.86242e-06
0.01421019
7.879696e-06
0.01421047
7.895218e-06
0.01421074
7.909114e-06
0.01421102
7.921499e-06
0.01421129
7.932472e-06
0.01421157
7.942121e-06
0.01421184
7.950524e-06
0.01421211
7.957748e-06
0.01421238
7.96385e-06
0.01421265
7.968879e-06
0.01421292
7.972875e-06
0.01421319
7.975871e-06
0.01421345
7.977892e-06
0.01421372
7.978957e-06
0.01421399
7.979077e-06
0.01421426
7.978255e-06
0.01421453
7.976489e-06
0.0142148
7.97377e-06
0.01421507
7.970081e-06
0.01421534
7.965397e-06
0.01421561
7.959689e-06
0.01421588
7.952918e-06
0.01421615
7.945035e-06
0.01421642
7.935986e-06
0.0142167
7.925705e-06
0.01421697
7.914118e-06
0.01421725
7.901137e-06
0.01421752
7.886666e-06
0.0142178
7.870592e-06
0.01421808
7.85279e-06
0.01421837
7.833118e-06
0.01421865
7.811416e-06
0.01421894
7.787502e-06
0.01421923
7.761174e-06
0.01421952
7.732201e-06
0.01421982
7.700325e-06
0.01422012
7.665251e-06
0.01422042
7.626649e-06
0.01422073
7.584141e-06
0.01422104
7.537299e-06
0.01422136
7.485635e-06
0.01422168
7.428591e-06
0.01422201
7.365528e-06
0.01422234
7.295711e-06
0.01422269
7.218293e-06
0.01422303
7.132295e-06
0.01422339
7.036583e-06
0.01422375
6.929837e-06
0.01422413
6.810521e-06
0.01422451
6.676841e-06
0.0142249
6.526699e-06
0.01422531
6.357644e-06
0.01422572
6.166816e-06
0.01422614
5.950888e-06
0.01422658
5.706014e-06
0.01422701
5.427799e-06
0.01422746
5.111301e-06
0.0142279
4.751116e-06
0.01422834
4.341579e-06
0.01422876
3.877164e-06
0.01422916
3.353196e-06
0.01422951
2.766817e-06
0.01422979
2.118966e-06
0.01422999
1.414278e-06
6.70855e-07
0.01419806
9.355212e-07
0.01419827
1.778228e-06
0.01419855
2.385526e-06
0.01419888
2.923489e-06
0.01419924
3.435578e-06
0.01419962
3.900529e-06
0.01420002
4.311799e-06
0.01420042
4.676449e-06
0.01420083
5.000485e-06
0.01420123
5.287989e-06
0.01420163
5.542995e-06
0.01420203
5.769435e-06
0.01420241
5.970813e-06
0.01420279
6.150192e-06
0.01420316
6.310258e-06
0.01420353
6.453355e-06
0.01420388
6.581521e-06
0.01420423
6.69652e-06
0.01420458
6.799885e-06
0.01420491
6.892945e-06
0.01420524
6.976856e-06
0.01420557
7.052621e-06
0.01420589
7.121117e-06
0.0142062
7.183111e-06
0.01420651
7.239273e-06
0.01420682
7.290192e-06
0.01420712
7.336384e-06
0.01420742
7.378308e-06
0.01420772
7.416365e-06
0.01420801
7.450912e-06
0.0142083
7.482266e-06
0.01420859
7.510707e-06
0.01420887
7.536484e-06
0.01420916
7.559818e-06
0.01420944
7.580906e-06
0.01420972
7.599924e-06
0.01421
7.617027e-06
0.01421027
7.632355e-06
0.01421055
7.646028e-06
0.01421082
7.658156e-06
0.01421109
7.668835e-06
0.01421137
7.678146e-06
0.01421164
7.686164e-06
0.01421191
7.69295e-06
0.01421218
7.698558e-06
0.01421245
7.703031e-06
0.01421272
7.706405e-06
0.01421299
7.708707e-06
0.01421326
7.709958e-06
0.01421353
7.710168e-06
0.01421379
7.709344e-06
0.01421406
7.707481e-06
0.01421433
7.70457e-06
0.0142146
7.700592e-06
0.01421487
7.695522e-06
0.01421514
7.689325e-06
0.01421541
7.681961e-06
0.01421568
7.673377e-06
0.01421596
7.663513e-06
0.01421623
7.652299e-06
0.0142165
7.639653e-06
0.01421678
7.625483e-06
0.01421706
7.609681e-06
0.01421734
7.59213e-06
0.01421762
7.572692e-06
0.0142179
7.551216e-06
0.01421818
7.52753e-06
0.01421847
7.501439e-06
0.01421876
7.472729e-06
0.01421905
7.441152e-06
0.01421934
7.406436e-06
0.01421964
7.36827e-06
0.01421994
7.326304e-06
0.01422024
7.280144e-06
0.01422055
7.229342e-06
0.01422086
7.173392e-06
0.01422118
7.111718e-06
0.0142215
7.043664e-06
0.01422183
6.968483e-06
0.01422216
6.88532e-06
0.0142225
6.793195e-06
0.01422285
6.690983e-06
0.0142232
6.577394e-06
0.01422356
6.450943e-06
0.01422392
6.30992e-06
0.0142243
6.152362e-06
0.01422468
5.976018e-06
0.01422507
5.778317e-06
0.01422546
5.556341e-06
0.01422586
5.306818e-06
0.01422626
5.026132e-06
0.01422667
4.710381e-06
0.01422706
4.355509e-06
0.01422744
3.957537e-06
0.01422781
3.512942e-06
0.01422814
3.01925e-06
0.01422843
2.475743e-06
0.01422867
1.884799e-06
0.01422883
1.251493e-06
5.903044e-07
0.01419844
8.258581e-07
0.01419862
1.593115e-06
0.01419887
2.14365e-06
0.01419916
2.638663e-06
0.01419948
3.117194e-06
0.01419982
3.55785e-06
0.01420018
3.953474e-06
0.01420055
4.309019e-06
0.01420092
4.628676e-06
0.01420129
4.915277e-06
0.01420166
5.171876e-06
0.01420203
5.40163e-06
0.01420239
5.607456e-06
0.01420275
5.791988e-06
0.0142031
5.957599e-06
0.01420345
6.106408e-06
0.01420379
6.240289e-06
0.01420413
6.360898e-06
0.01420446
6.469691e-06
0.01420478
6.567947e-06
0.0142051
6.656793e-06
0.01420542
6.737217e-06
0.01420573
6.810089e-06
0.01420603
6.876177e-06
0.01420634
6.936156e-06
0.01420664
6.990625e-06
0.01420693
7.040112e-06
0.01420722
7.085085e-06
0.01420751
7.125961e-06
0.0142078
7.163108e-06
0.01420809
7.196856e-06
0.01420837
7.227496e-06
0.01420865
7.25529e-06
0.01420893
7.280471e-06
0.01420921
7.303245e-06
0.01420948
7.323798e-06
0.01420976
7.342295e-06
0.01421003
7.358881e-06
0.0142103
7.373688e-06
0.01421058
7.386829e-06
0.01421085
7.398407e-06
0.01421112
7.408511e-06
0.01421138
7.417218e-06
0.01421165
7.424594e-06
0.01421192
7.430697e-06
0.01421219
7.435572e-06
0.01421246
7.439259e-06
0.01421272
7.441786e-06
0.01421299
7.443175e-06
0.01421326
7.443438e-06
0.01421352
7.442581e-06
0.01421379
7.440599e-06
0.01421406
7.437483e-06
0.01421432
7.433213e-06
0.01421459
7.427761e-06
0.01421486
7.42109e-06
0.01421513
7.413157e-06
0.0142154
7.403906e-06
0.01421567
7.393273e-06
0.01421594
7.381182e-06
0.01421621
7.367548e-06
0.01421648
7.352271e-06
0.01421676
7.335238e-06
0.01421703
7.316323e-06
0.01421731
7.295381e-06
0.01421759
7.272253e-06
0.01421787
7.246756e-06
0.01421815
7.218689e-06
0.01421844
7.187821e-06
0.01421873
7.1539e-06
0.01421902
7.116637e-06
0.01421931
7.075712e-06
0.0142196
7.030763e-06
0.0142199
6.981383e-06
0.0142202
6.927115e-06
0.01422051
6.867442e-06
0.01422082
6.801783e-06
0.01422113
6.729476e-06
0.01422145
6.649778e-06
0.01422178
6.56184e-06
0.01422211
6.464704e-06
0.01422244
6.357279e-06
0.01422278
6.238328e-06
0.01422312
6.106445e-06
0.01422347
5.960039e-06
0.01422383
5.797311e-06
0.01422419
5.616239e-06
0.01422455
5.414561e-06
0.01422492
5.189779e-06
0.01422528
4.939168e-06
0.01422565
4.659823e-06
0.01422601
4.34874e-06
0.01422637
4.00296e-06
0.0142267
3.619794e-06
0.01422702
3.197147e-06
0.0142273
2.733976e-06
0.01422755
2.230778e-06
0.01422774
1.690475e-06
0.01422788
1.117892e-06
5.244852e-07
0.01419868
7.639536e-07
0.01419883
1.448509e-06
0.01419903
1.945376e-06
0.01419927
2.402164e-06
0.01419954
2.84834e-06
0.01419984
3.263312e-06
0.01420015
3.640272e-06
0.01420048
3.982835e-06
0.01420081
4.293933e-06
0.01420115
4.575476e-06
0.01420149
4.829732e-06
0.01420184
5.059184e-06
0.01420218
5.266207e-06
0.01420252
5.453008e-06
0.01420285
5.621628e-06
0.01420318
5.773932e-06
0.01420351
5.9116e-06
0.01420384
6.036142e-06
0.01420416
6.148906e-06
0.01420447
6.251096e-06
0.01420479
6.343781e-06
0.0142051
6.42791e-06
0.0142054
6.50433e-06
0.0142057
6.57379e-06
0.014206
6.636959e-06
0.0142063
6.69443e-06
0.01420659
6.746732e-06
0.01420688
6.794337e-06
0.01420717
6.837666e-06
0.01420746
6.877093e-06
0.01420774
6.912955e-06
0.01420802
6.945551e-06
0.0142083
6.97515e-06
0.01420858
7.001992e-06
0.01420886
7.026291e-06
0.01420913
7.04824e-06
0.01420941
7.068009e-06
0.01420968
7.085752e-06
0.01420995
7.101604e-06
0.01421022
7.115685e-06
0.01421049
7.128103e-06
0.01421076
7.13895e-06
0.01421103
7.148307e-06
0.0142113
7.156245e-06
0.01421157
7.162822e-06
0.01421183
7.16809e-06
0.0142121
7.172087e-06
0.01421237
7.174844e-06
0.01421263
7.176384e-06
0.0142129
7.176721e-06
0.01421317
7.175859e-06
0.01421343
7.173794e-06
0.0142137
7.170517e-06
0.01421397
7.166004e-06
0.01421424
7.160229e-06
0.0142145
7.153153e-06
0.01421477
7.144727e-06
0.01421504
7.134895e-06
0.01421531
7.123588e-06
0.01421558
7.110728e-06
0.01421585
7.096224e-06
0.01421613
7.079972e-06
0.0142164
7.061853e-06
0.01421667
7.041736e-06
0.01421695
7.01947e-06
0.01421723
6.994888e-06
0.01421751
6.967802e-06
0.01421779
6.938001e-06
0.01421807
6.90525e-06
0.01421835
6.869286e-06
0.01421864
6.829816e-06
0.01421893
6.786509e-06
0.01421922
6.738999e-06
0.01421952
6.686873e-06
0.01421981
6.629671e-06
0.01422011
6.566875e-06
0.01422042
6.497906e-06
0.01422072
6.42211e-06
0.01422104
6.338757e-06
0.01422135
6.247023e-06
0.01422167
6.145985e-06
0.01422199
6.034603e-06
0.01422232
5.911712e-06
0.01422265
5.776007e-06
0.01422298
5.626033e-06
0.01422332
5.460172e-06
0.01422366
5.276639e-06
0.014224
5.073485e-06
0.01422434
4.848607e-06
0.01422468
4.599783e-06
0.01422502
4.324724e-06
0.01422534
4.02117e-06
0.01422566
3.687027e-06
0.01422596
3.320561e-06
0.01422623
2.920664e-06
0.01422648
2.487193e-06
0.01422669
2.021294e-06
0.01422686
1.525987e-06
0.01422697
1.005633e-06
4.69417e-07
0.01419896
6.917013e-07
0.01419909
1.31742e-06
0.01419927
1.771053e-06
0.01419948
2.192143e-06
0.01419972
2.607297e-06
0.01419999
2.997082e-06
0.01420028
3.354884e-06
0.01420058
3.683315e-06
0.01420089
3.984351e-06
0.0142012
4.259156e-06
0.01420152
4.509325e-06
0.01420185
4.736746e-06
0.01420217
4.943306e-06
0.01420249
5.130816e-06
0.01420281
5.300999e-06
0.01420313
5.45547e-06
0.01420344
5.595716e-06
0.01420376
5.723096e-06
0.01420407
5.838844e-06
0.01420437
5.944077e-06
0.01420468
6.039799e-06
0.01420498
6.126914e-06
0.01420528
6.206233e-06
0.01420557
6.278484e-06
0.01420586
6.344317e-06
0.01420615
6.404318e-06
0.01420644
6.45901e-06
0.01420673
6.508862e-06
0.01420701
6.554296e-06
0.01420729
6.595688e-06
0.01420757
6.633379e-06
0.01420785
6.667673e-06
0.01420812
6.698842e-06
0.0142084
6.727132e-06
0.01420867
6.752763e-06
0.01420894
6.775931e-06
0.01420922
6.796813e-06
0.01420949
6.815568e-06
0.01420975
6.832334e-06
0.01421002
6.847237e-06
0.01421029
6.860387e-06
0.01421056
6.871881e-06
0.01421082
6.881804e-06
0.01421109
6.890228e-06
0.01421136
6.897216e-06
0.01421162
6.902818e-06
0.01421189
6.907078e-06
0.01421215
6.910026e-06
0.01421242
6.911687e-06
0.01421268
6.912075e-06
0.01421294
6.911194e-06
0.01421321
6.909041e-06
0.01421347
6.905605e-06
0.01421374
6.900864e-06
0.014214
6.894787e-06
0.01421427
6.887335e-06
0.01421454
6.878458e-06
0.0142148
6.868096e-06
0.01421507
6.856179e-06
0.01421534
6.842625e-06
0.01421561
6.82734e-06
0.01421588
6.810215e-06
0.01421615
6.791129e-06
0.01421642
6.769945e-06
0.01421669
6.746508e-06
0.01421697
6.720647e-06
0.01421724
6.692168e-06
0.01421752
6.660856e-06
0.0142178
6.626472e-06
0.01421808
6.588747e-06
0.01421836
6.547385e-06
0.01421865
6.502053e-06
0.01421893
6.452382e-06
0.01421922
6.397962e-06
0.01421951
6.338333e-06
0.01421981
6.272984e-06
0.0142201
6.201347e-06
0.0142204
6.122785e-06
0.0142207
6.036592e-06
0.01422101
5.941978e-06
0.01422132
5.838068e-06
0.01422163
5.723885e-06
0.01422194
5.59835e-06
0.01422226
5.46027e-06
0.01422257
5.308333e-06
0.01422289
5.141106e-06
0.01422321
4.95704e-06
0.01422353
4.754479e-06
0.01422385
4.531685e-06
0.01422416
4.286873e-06
0.01422447
4.018277e-06
0.01422477
3.724238e-06
0.01422505
3.403323e-06
0.01422531
3.054498e-06
0.01422556
2.67732e-06
0.01422577
2.27219e-06
0.01422595
1.840561e-06
0.01422609
1.385321e-06
0.01422619
9.102908e-07
4.228576e-07
0.01419918
6.389212e-07
0.01419929
1.207413e-06
0.01419944
1.621823e-06
0.01419963
2.011304e-06
0.01419984
2.397946e-06
0.01420007
2.763572e-06
0.01420033
3.102037e-06
0.0142006
3.415288e-06
0.01420088
3.704638e-06
0.01420116
3.970727e-06
0.01420146
4.214651e-06
0.01420176
4.437838e-06
0.01420206
4.641769e-06
0.01420236
4.827918e-06
0.01420266
4.997726e-06
0.01420297
5.152575e-06
0.01420327
5.293761e-06
0.01420357
5.422493e-06
0.01420387
5.539884e-06
0.01420416
5.646954e-06
0.01420446
5.744633e-06
0.01420475
5.833767e-06
0.01420504
5.915122e-06
0.01420533
5.989392e-06
0.01420562
6.057202e-06
0.0142059
6.119118e-06
0.01420619
6.175652e-06
0.01420647
6.227262e-06
0.01420675
6.274365e-06
0.01420703
6.317335e-06