/*--------------------------------*- C++ -*----------------------------------*\
| =========                 |                                                 |
| \\      /  F ield         | OpenFOAM: The Open Source CFD Toolbox           |
|  \\    /   O peration     | Version:  2.3.0                                 |
|   \\  /    A nd           | Web:      www.OpenFOAM.org                      |
|    \\/     M anipulation  |                                                 |
\*---------------------------------------------------------------------------*/
FoamFile
{
    version     2.0;
    format      ascii;
    class       volVectorField;
    location    "9800/bottomAir";
    object      U;
}
// * * * * * * * * * * * * * * * * * * * * * * * * * * * * * * * * * * * * * //

dimensions      [0 1 -1 0 0 0 0];

internalField   nonuniform List<vector> 
4000
(
(28.16063 -0.003000964 0)
(21.33125 -0.001496225 0)
(18.58207 -0.0005886915 0)
(19.31489 -0.0004512827 0)
(19.5934 -0.0003264933 0)
(19.51516 -0.0002157548 0)
(19.48718 -0.000159697 0)
(19.49567 -0.0001291607 0)
(19.4986 -0.0001083919 0)
(19.4978 -9.456099e-05 0)
(19.4976 -8.562284e-05 0)
(19.49779 -7.96893e-05 0)
(19.49791 -7.569839e-05 0)
(19.49799 -7.305096e-05 0)
(19.49809 -7.13473e-05 0)
(19.49819 -7.03104e-05 0)
(19.49829 -6.975241e-05 0)
(19.4984 -6.954123e-05 0)
(19.49851 -6.958159e-05 0)
(19.49863 -6.980379e-05 0)
(19.49874 -7.015559e-05 0)
(19.49886 -7.059823e-05 0)
(19.49899 -7.110165e-05 0)
(19.49911 -7.164353e-05 0)
(19.49924 -7.220613e-05 0)
(19.49937 -7.277643e-05 0)
(19.49951 -7.334388e-05 0)
(19.49964 -7.390098e-05 0)
(19.49978 -7.444153e-05 0)
(19.49992 -7.496135e-05 0)
(19.50007 -7.545698e-05 0)
(19.50021 -7.592626e-05 0)
(19.50035 -7.636745e-05 0)
(19.5005 -7.677958e-05 0)
(19.50065 -7.716198e-05 0)
(19.5008 -7.751439e-05 0)
(19.50095 -7.783677e-05 0)
(19.5011 -7.812925e-05 0)
(19.50126 -7.839214e-05 0)
(19.50141 -7.862571e-05 0)
(19.50157 -7.883043e-05 0)
(19.50172 -7.900658e-05 0)
(19.50188 -7.915465e-05 0)
(19.50204 -7.927484e-05 0)
(19.50219 -7.936758e-05 0)
(19.50235 -7.943288e-05 0)
(19.50251 -7.947104e-05 0)
(19.50267 -7.948189e-05 0)
(19.50283 -7.946552e-05 0)
(19.50299 -7.942152e-05 0)
(19.50315 -7.934977e-05 0)
(19.5033 -7.924957e-05 0)
(19.50346 -7.912057e-05 0)
(19.50362 -7.896178e-05 0)
(19.50378 -7.877256e-05 0)
(19.50394 -7.855163e-05 0)
(19.5041 -7.829805e-05 0)
(19.50425 -7.801021e-05 0)
(19.50441 -7.76869e-05 0)
(19.50457 -7.732617e-05 0)
(19.50472 -7.692647e-05 0)
(19.50488 -7.648556e-05 0)
(19.50503 -7.600155e-05 0)
(19.50518 -7.547189e-05 0)
(19.50533 -7.48944e-05 0)
(19.50548 -7.426619e-05 0)
(19.50563 -7.358481e-05 0)
(19.50578 -7.28471e-05 0)
(19.50593 -7.205035e-05 0)
(19.50607 -7.119119e-05 0)
(19.50621 -7.026671e-05 0)
(19.50635 -6.927339e-05 0)
(19.50649 -6.820821e-05 0)
(19.50662 -6.70676e-05 0)
(19.50676 -6.584855e-05 0)
(19.50689 -6.454757e-05 0)
(19.50702 -6.316179e-05 0)
(19.50714 -6.168797e-05 0)
(19.50726 -6.01236e-05 0)
(19.50738 -5.846588e-05 0)
(19.50749 -5.671283e-05 0)
(19.5076 -5.486233e-05 0)
(19.50771 -5.291322e-05 0)
(19.50781 -5.08643e-05 0)
(19.50791 -4.871545e-05 0)
(19.508 -4.646667e-05 0)
(19.50809 -4.411913e-05 0)
(19.50817 -4.167428e-05 0)
(19.50825 -3.913485e-05 0)
(19.50832 -3.650395e-05 0)
(19.50839 -3.378612e-05 0)
(19.50845 -3.098647e-05 0)
(19.5085 -2.811184e-05 0)
(19.50855 -2.51704e-05 0)
(19.50859 -2.217346e-05 0)
(19.50863 -1.913768e-05 0)
(19.50866 -1.609038e-05 0)
(19.50868 -1.309158e-05 0)
(19.50869 -1.023518e-05 0)
(19.50871 -7.925669e-06 0)
(28.15537 -0.003739575 0)
(21.32873 -0.001596727 0)
(18.57754 -0.0004549539 0)
(19.30976 -0.0003643881 0)
(19.58831 -0.0002589587 0)
(19.50999 -0.0001525518 0)
(19.48193 -0.0001123934 0)
(19.49039 -0.0001001998 0)
(19.49331 -9.545058e-05 0)
(19.4925 -9.600758e-05 0)
(19.4923 -0.0001001977 0)
(19.49249 -0.0001061149 0)
(19.49261 -0.0001128126 0)
(19.4927 -0.0001198592 0)
(19.49279 -0.0001269887 0)
(19.4929 -0.0001340326 0)
(19.49301 -0.0001408943 0)
(19.49312 -0.0001475175 0)
(19.49323 -0.0001538699 0)
(19.49335 -0.0001599337 0)
(19.49348 -0.0001657012 0)
(19.4936 -0.0001711707 0)
(19.49373 -0.0001763447 0)
(19.49386 -0.0001812287 0)
(19.49399 -0.00018583 0)
(19.49413 -0.0001901573 0)
(19.49427 -0.0001942198 0)
(19.49441 -0.0001980274 0)
(19.49455 -0.0002015904 0)
(19.4947 -0.0002049188 0)
(19.49485 -0.0002080228 0)
(19.49499 -0.0002109122 0)
(19.49515 -0.0002135967 0)
(19.4953 -0.0002160855 0)
(19.49545 -0.0002183874 0)
(19.49561 -0.0002205109 0)
(19.49576 -0.0002224638 0)
(19.49592 -0.0002242536 0)
(19.49608 -0.0002258871 0)
(19.49624 -0.0002273706 0)
(19.4964 -0.0002287101 0)
(19.49656 -0.0002299106 0)
(19.49672 -0.0002309769 0)
(19.49688 -0.0002319131 0)
(19.49704 -0.0002327228 0)
(19.49721 -0.0002334089 0)
(19.49737 -0.000233974 0)
(19.49753 -0.0002344199 0)
(19.4977 -0.0002347481 0)
(19.49786 -0.0002349592 0)
(19.49802 -0.0002350537 0)
(19.49819 -0.0002350311 0)
(19.49835 -0.0002348908 0)
(19.49851 -0.0002346312 0)
(19.49868 -0.0002342506 0)
(19.49884 -0.0002337465 0)
(19.499 -0.0002331159 0)
(19.49917 -0.0002323553 0)
(19.49933 -0.0002314606 0)
(19.49949 -0.0002304272 0)
(19.49965 -0.0002292502 0)
(19.49981 -0.0002279237 0)
(19.49997 -0.0002264417 0)
(19.50012 -0.0002247975 0)
(19.50028 -0.000222984 0)
(19.50043 -0.0002209935 0)
(19.50059 -0.0002188182 0)
(19.50074 -0.0002164494 0)
(19.50089 -0.0002138784 0)
(19.50104 -0.0002110961 0)
(19.50119 -0.000208093 0)
(19.50133 -0.0002048595 0)
(19.50147 -0.000201386 0)
(19.50161 -0.0001976625 0)
(19.50175 -0.0001936795 0)
(19.50189 -0.0001894274 0)
(19.50202 -0.0001848969 0)
(19.50215 -0.0001800792 0)
(19.50228 -0.0001749661 0)
(19.5024 -0.0001695501 0)
(19.50252 -0.0001638247 0)
(19.50263 -0.0001577844 0)
(19.50274 -0.0001514251 0)
(19.50285 -0.0001447442 0)
(19.50295 -0.0001377407 0)
(19.50305 -0.0001304154 0)
(19.50314 -0.0001227715 0)
(19.50323 -0.0001148141 0)
(19.50331 -0.000106551 0)
(19.50339 -9.799216e-05 0)
(19.50346 -8.915071e-05 0)
(19.50353 -8.00424e-05 0)
(19.50358 -7.068624e-05 0)
(19.50364 -6.110473e-05 0)
(19.50368 -5.132503e-05 0)
(19.50372 -4.138088e-05 0)
(19.50376 -3.131624e-05 0)
(19.50378 -2.120185e-05 0)
(19.5038 -1.113057e-05 0)
(19.50382 -1.419052e-06 0)
(28.15522 -0.001413935 0)
(21.32987 -0.0006922567 0)
(18.57808 -0.0003358743 0)
(19.31003 -0.0003381825 0)
(19.58862 -0.0003111037 0)
(19.5103 -0.0002661832 0)
(19.48222 -0.000244941 0)
(19.49068 -0.0002368314 0)
(19.49361 -0.0002333247 0)
(19.4928 -0.0002335716 0)
(19.4926 -0.0002368403 0)
(19.49279 -0.00024204 0)
(19.49291 -0.0002484624 0)
(19.493 -0.0002556783 0)
(19.49309 -0.0002633715 0)
(19.4932 -0.0002713077 0)
(19.49331 -0.0002793184 0)
(19.49342 -0.0002872817 0)
(19.49353 -0.0002951089 0)
(19.49365 -0.0003027354 0)
(19.49377 -0.0003101151 0)
(19.49389 -0.0003172155 0)
(19.49402 -0.0003240149 0)
(19.49415 -0.0003304995 0)
(19.49428 -0.0003366617 0)
(19.49442 -0.0003424989 0)
(19.49456 -0.0003480119 0)
(19.4947 -0.0003532045 0)
(19.49484 -0.0003580826 0)
(19.49498 -0.0003626536 0)
(19.49513 -0.000366926 0)
(19.49528 -0.0003709092 0)
(19.49543 -0.0003746129 0)
(19.49558 -0.0003780469 0)
(19.49573 -0.0003812213 0)
(19.49588 -0.0003841458 0)
(19.49604 -0.0003868299 0)
(19.49619 -0.0003892826 0)
(19.49635 -0.0003915126 0)
(19.49651 -0.0003935279 0)
(19.49666 -0.000395336 0)
(19.49682 -0.0003969435 0)
(19.49698 -0.0003983566 0)
(19.49714 -0.0003995807 0)
(19.49731 -0.0004006203 0)
(19.49747 -0.0004014793 0)
(19.49763 -0.0004021607 0)
(19.49779 -0.0004026668 0)
(19.49795 -0.000402999 0)
(19.49811 -0.0004031581 0)
(19.49828 -0.0004031438 0)
(19.49844 -0.0004029551 0)
(19.4986 -0.0004025901 0)
(19.49876 -0.0004020463 0)
(19.49892 -0.00040132 0)
(19.49909 -0.0004004068 0)
(19.49925 -0.0003993015 0)
(19.49941 -0.000397998 0)
(19.49957 -0.0003964893 0)
(19.49973 -0.0003947676 0)
(19.49989 -0.000392824 0)
(19.50004 -0.0003906493 0)
(19.5002 -0.0003882327 0)
(19.50036 -0.0003855632 0)
(19.50051 -0.0003826287 0)
(19.50067 -0.0003794165 0)
(19.50082 -0.0003759128 0)
(19.50097 -0.0003721037 0)
(19.50112 -0.0003679741 0)
(19.50127 -0.0003635087 0)
(19.50141 -0.0003586915 0)
(19.50155 -0.0003535066 0)
(19.5017 -0.0003479372 0)
(19.50183 -0.0003419671 0)
(19.50197 -0.0003355796 0)
(19.50211 -0.0003287587 0)
(19.50224 -0.0003214887 0)
(19.50236 -0.0003137546 0)
(19.50249 -0.0003055423 0)
(19.50261 -0.0002968392 0)
(19.50273 -0.0002876338 0)
(19.50284 -0.0002779169 0)
(19.50295 -0.0002676811 0)
(19.50306 -0.0002569216 0)
(19.50316 -0.0002456365 0)
(19.50326 -0.000233827 0)
(19.50335 -0.0002214976 0)
(19.50343 -0.0002086567 0)
(19.50351 -0.0001953167 0)
(19.50359 -0.0001814943 0)
(19.50366 -0.0001672105 0)
(19.50372 -0.0001524911 0)
(19.50378 -0.0001373667 0)
(19.50383 -0.0001218729 0)
(19.50388 -0.0001060501 0)
(19.50392 -8.99438e-05 0)
(19.50395 -7.360308e-05 0)
(19.50397 -5.707591e-05 0)
(19.50399 -4.040019e-05 0)
(19.50401 -2.352885e-05 0)
(28.15484 -0.0009637592 0)
(21.3304 -0.0007896563 0)
(18.57863 -0.0005687837 0)
(19.31049 -0.0004904266 0)
(19.58908 -0.0004283288 0)
(19.51075 -0.0003690814 0)
(19.48265 -0.0003310986 0)
(19.49109 -0.0003109149 0)
(19.49401 -0.0003013868 0)
(19.49319 -0.0002992712 0)
(19.49298 -0.0003025506 0)
(19.49316 -0.0003094762 0)
(19.49328 -0.0003187742 0)
(19.49336 -0.0003295808 0)
(19.49346 -0.0003412888 0)
(19.49356 -0.0003534641 0)
(19.49367 -0.0003657993 0)
(19.49378 -0.0003780771 0)
(19.49389 -0.0003901437 0)
(19.49401 -0.0004018912 0)
(19.49413 -0.0004132448 0)
(19.49425 -0.0004241541 0)
(19.49438 -0.0004345868 0)
(19.49451 -0.0004445239 0)
(19.49464 -0.0004539562 0)
(19.49478 -0.0004628823 0)
(19.49491 -0.0004713061 0)
(19.49505 -0.0004792357 0)
(19.4952 -0.0004866822 0)
(19.49534 -0.0004936588 0)
(19.49549 -0.00050018 0)
(19.49563 -0.0005062614 0)
(19.49578 -0.0005119187 0)
(19.49593 -0.0005171681 0)
(19.49609 -0.0005220253 0)
(19.49624 -0.0005265057 0)
(19.49639 -0.0005306241 0)
(19.49655 -0.0005343947 0)
(19.49671 -0.0005378308 0)
(19.49686 -0.0005409447 0)
(19.49702 -0.0005437478 0)
(19.49718 -0.0005462504 0)
(19.49734 -0.000548462 0)
(19.4975 -0.0005503905 0)
(19.49766 -0.0005520432 0)
(19.49783 -0.0005534259 0)
(19.49799 -0.0005545433 0)
(19.49815 -0.000555399 0)
(19.49831 -0.0005559955 0)
(19.49847 -0.0005563339 0)
(19.49864 -0.0005564143 0)
(19.4988 -0.0005562355 0)
(19.49896 -0.0005557952 0)
(19.49912 -0.0005550897 0)
(19.49928 -0.0005541142 0)
(19.49945 -0.0005528628 0)
(19.49961 -0.0005513283 0)
(19.49977 -0.0005495021 0)
(19.49993 -0.0005473747 0)
(19.50009 -0.0005449351 0)
(19.50025 -0.0005421711 0)
(19.5004 -0.0005390696 0)
(19.50056 -0.0005356159 0)
(19.50072 -0.0005317944 0)
(19.50087 -0.0005275882 0)
(19.50103 -0.0005229795 0)
(19.50118 -0.0005179493 0)
(19.50133 -0.0005124776 0)
(19.50148 -0.0005065437 0)
(19.50163 -0.0005001259 0)
(19.50177 -0.000493202 0)
(19.50192 -0.0004857492 0)
(19.50206 -0.0004777444 0)
(19.5022 -0.0004691644 0)
(19.50233 -0.0004599859 0)
(19.50247 -0.0004501862 0)
(19.5026 -0.0004397431 0)
(19.50273 -0.0004286355 0)
(19.50285 -0.0004168434 0)
(19.50297 -0.0004043486 0)
(19.50309 -0.0003911353 0)
(19.50321 -0.0003771897 0)
(19.50332 -0.0003625015 0)
(19.50342 -0.0003470637 0)
(19.50353 -0.0003308732 0)
(19.50362 -0.0003139314 0)
(19.50371 -0.0002962445 0)
(19.5038 -0.000277824 0)
(19.50388 -0.0002586871 0)
(19.50396 -0.0002388569 0)
(19.50403 -0.0002183628 0)
(19.50409 -0.0001972408 0)
(19.50415 -0.0001755333 0)
(19.5042 -0.0001532896 0)
(19.50425 -0.0001305655 0)
(19.50429 -0.0001074238 0)
(19.50432 -8.393314e-05 0)
(19.50435 -6.01687e-05 0)
(19.50436 -3.620411e-05 0)
(19.50438 -1.213031e-05 0)
(28.15472 -0.0005215985 0)
(21.33076 -0.0004619985 0)
(18.57898 -0.0003635223 0)
(19.31074 -0.0003427975 0)
(19.5893 -0.0003353565 0)
(19.51096 -0.0003270377 0)
(19.48285 -0.0003265373 0)
(19.49128 -0.0003336809 0)
(19.49418 -0.0003451683 0)
(19.49336 -0.000359391 0)
(19.49316 -0.0003755166 0)
(19.49334 -0.0003928058 0)
(19.49345 -0.000410683 0)
(19.49354 -0.0004287523 0)
(19.49363 -0.0004467334 0)
(19.49374 -0.0004644233 0)
(19.49385 -0.0004816761 0)
(19.49396 -0.0004983893 0)
(19.49407 -0.0005144918 0)
(19.49419 -0.000529936 0)
(19.49431 -0.0005446921 0)
(19.49444 -0.0005587441 0)
(19.49456 -0.0005720864 0)
(19.49469 -0.0005847211 0)
(19.49483 -0.0005966569 0)
(19.49496 -0.0006079068 0)
(19.4951 -0.0006184874 0)
(19.49524 -0.000628418 0)
(19.49539 -0.0006377195 0)
(19.49553 -0.000646414 0)
(19.49568 -0.0006545243 0)
(19.49583 -0.0006620733 0)
(19.49598 -0.0006690838 0)
(19.49613 -0.0006755782 0)
(19.49628 -0.0006815784 0)
(19.49643 -0.0006871054 0)
(19.49659 -0.0006921789 0)
(19.49675 -0.0006968179 0)
(19.4969 -0.0007010401 0)
(19.49706 -0.0007048616 0)
(19.49722 -0.0007082977 0)
(19.49738 -0.0007113618 0)
(19.49754 -0.0007140661 0)
(19.4977 -0.0007164213 0)
(19.49786 -0.0007184366 0)
(19.49802 -0.0007201199 0)
(19.49819 -0.0007214772 0)
(19.49835 -0.0007225134 0)
(19.49851 -0.0007232315 0)
(19.49867 -0.0007236332 0)
(19.49884 -0.0007237187 0)
(19.499 -0.0007234865 0)
(19.49916 -0.0007229337 0)
(19.49932 -0.0007220556 0)
(19.49949 -0.0007208462 0)
(19.49965 -0.0007192978 0)
(19.49981 -0.0007174011 0)
(19.49997 -0.0007151453 0)
(19.50013 -0.000712518 0)
(19.50029 -0.0007095051 0)
(19.50045 -0.0007060911 0)
(19.50061 -0.0007022587 0)
(19.50077 -0.0006979893 0)
(19.50092 -0.0006932627 0)
(19.50108 -0.000688057 0)
(19.50123 -0.0006823491 0)
(19.50138 -0.0006761144 0)
(19.50154 -0.0006693272 0)
(19.50169 -0.0006619604 0)
(19.50183 -0.0006539859 0)
(19.50198 -0.0006453747 0)
(19.50213 -0.0006360973 0)
(19.50227 -0.0006261234 0)
(19.50241 -0.0006154226 0)
(19.50255 -0.0006039646 0)
(19.50268 -0.0005917194 0)
(19.50281 -0.0005786579 0)
(19.50294 -0.0005647521 0)
(19.50307 -0.0005499755 0)
(19.50319 -0.0005343041 0)
(19.50331 -0.0005177162 0)
(19.50342 -0.0005001937 0)
(19.50354 -0.000481722 0)
(19.50364 -0.0004622913 0)
(19.50375 -0.0004418966 0)
(19.50384 -0.0004205387 0)
(19.50394 -0.0003982249 0)
(19.50402 -0.000374969 0)
(19.50411 -0.0003507923 0)
(19.50418 -0.0003257239 0)
(19.50425 -0.000299801 0)
(19.50432 -0.0002730691 0)
(19.50438 -0.0002455819 0)
(19.50443 -0.0002174017 0)
(19.50448 -0.0001885985 0)
(19.50452 -0.0001592497 0)
(19.50455 -0.0001294383 0)
(19.50457 -9.925255e-05 0)
(19.50459 -6.877594e-05 0)
(19.50461 -3.812613e-05 0)
(28.15456 -0.0003691397 0)
(21.33083 -0.0004192536 0)
(18.57908 -0.0004123682 0)
(19.31083 -0.000423723 0)
(19.5894 -0.0004306576 0)
(19.51107 -0.0004315906 0)
(19.48295 -0.0004340665 0)
(19.49138 -0.0004404736 0)
(19.49429 -0.0004503102 0)
(19.49347 -0.0004630137 0)
(19.49326 -0.0004781047 0)
(19.49344 -0.0004950147 0)
(19.49355 -0.0005131879 0)
(19.49364 -0.0005321538 0)
(19.49373 -0.0005515281 0)
(19.49384 -0.000571001 0)
(19.49394 -0.0005903283 0)
(19.49406 -0.0006093214 0)
(19.49417 -0.0006278373 0)
(19.49429 -0.0006457697 0)
(19.49441 -0.0006630422 0)
(19.49454 -0.0006796016 0)
(19.49466 -0.0006954137 0)
(19.4948 -0.0007104589 0)
(19.49493 -0.0007247295 0)
(19.49507 -0.0007382267 0)
(19.4952 -0.0007509588 0)
(19.49535 -0.0007629392 0)
(19.49549 -0.0007741856 0)
(19.49563 -0.0007847183 0)
(19.49578 -0.0007945596 0)
(19.49593 -0.000803733 0)
(19.49608 -0.0008122626 0)
(19.49623 -0.0008201725 0)
(19.49639 -0.0008274867 0)
(19.49654 -0.0008342284 0)
(19.4967 -0.0008404201 0)
(19.49685 -0.0008460831 0)
(19.49701 -0.0008512373 0)
(19.49717 -0.0008559015 0)
(19.49733 -0.0008600929 0)
(19.49749 -0.0008638271 0)
(19.49765 -0.0008671181 0)
(19.49781 -0.0008699781 0)
(19.49797 -0.0008724177 0)
(19.49813 -0.0008744457 0)
(19.49829 -0.0008760693 0)
(19.49846 -0.0008772935 0)
(19.49862 -0.000878122 0)
(19.49878 -0.0008785562 0)
(19.49895 -0.000878596 0)
(19.49911 -0.0008782393 0)
(19.49927 -0.0008774823 0)
(19.49943 -0.000876319 0)
(19.4996 -0.0008747419 0)
(19.49976 -0.0008727414 0)
(19.49992 -0.000870306 0)
(19.50008 -0.0008674223 0)
(19.50024 -0.000864075 0)
(19.5004 -0.000860247 0)
(19.50056 -0.000855919 0)
(19.50072 -0.0008510699 0)
(19.50088 -0.0008456769 0)
(19.50104 -0.0008397151 0)
(19.50119 -0.0008331578 0)
(19.50135 -0.0008259766 0)
(19.5015 -0.0008181413 0)
(19.50165 -0.0008096203 0)
(19.5018 -0.0008003802 0)
(19.50195 -0.0007903865 0)
(19.5021 -0.0007796036 0)
(19.50224 -0.0007679949 0)
(19.50239 -0.000755523 0)
(19.50253 -0.0007421503 0)
(19.50267 -0.0007278392 0)
(19.5028 -0.0007125525 0)
(19.50294 -0.0006962538 0)
(19.50307 -0.0006789082 0)
(19.50319 -0.0006604825 0)
(19.50332 -0.0006409463 0)
(19.50344 -0.0006202723 0)
(19.50355 -0.0005984373 0)
(19.50367 -0.0005754224 0)
(19.50377 -0.0005512146 0)
(19.50388 -0.0005258068 0)
(19.50398 -0.0004991991 0)
(19.50407 -0.0004713993 0)
(19.50416 -0.0004424236 0)
(19.50424 -0.0004122974 0)
(19.50432 -0.0003810558 0)
(19.50439 -0.0003487438 0)
(19.50446 -0.0003154168 0)
(19.50452 -0.0002811408 0)
(19.50457 -0.0002459919 0)
(19.50462 -0.0002100561 0)
(19.50466 -0.000173429 0)
(19.50469 -0.0001362137 0)
(19.50472 -9.852234e-05 0)
(19.50473 -6.046355e-05 0)
(19.50475 -2.219688e-05 0)
(28.15447 -0.0002525612 0)
(21.3309 -0.000318592 0)
(18.57918 -0.0003366009 0)
(19.31092 -0.0003609483 0)
(19.58949 -0.0003832931 0)
(19.51116 -0.0004029944 0)
(19.48304 -0.0004236945 0)
(19.49146 -0.000446703 0)
(19.49436 -0.0004716917 0)
(19.49353 -0.0004981226 0)
(19.49332 -0.0005255325 0)
(19.4935 -0.0005534744 0)
(19.49361 -0.0005815407 0)
(19.4937 -0.0006093975 0)
(19.49379 -0.0006367833 0)
(19.4939 -0.0006634978 0)
(19.494 -0.0006893912 0)
(19.49412 -0.0007143554 0)
(19.49423 -0.0007383157 0)
(19.49435 -0.0007612241 0)
(19.49448 -0.0007830534 0)
(19.4946 -0.000803793 0)
(19.49473 -0.0008234449 0)
(19.49486 -0.0008420215 0)
(19.495 -0.0008595425 0)
(19.49514 -0.0008760334 0)
(19.49528 -0.000891524 0)
(19.49542 -0.0009060471 0)
(19.49556 -0.0009196372 0)
(19.49571 -0.0009323303 0)
(19.49586 -0.0009441626 0)
(19.49601 -0.0009551703 0)
(19.49616 -0.0009653889 0)
(19.49631 -0.0009748531 0)
(19.49646 -0.0009835964 0)
(19.49662 -0.0009916507 0)
(19.49677 -0.0009990464 0)
(19.49693 -0.001005812 0)
(19.49709 -0.001011974 0)
(19.49725 -0.001017557 0)
(19.49741 -0.001022583 0)
(19.49757 -0.001027073 0)
(19.49773 -0.001031045 0)
(19.49789 -0.001034515 0)
(19.49805 -0.001037497 0)
(19.49822 -0.001040002 0)
(19.49838 -0.00104204 0)
(19.49854 -0.001043617 0)
(19.49871 -0.001044739 0)
(19.49887 -0.001045408 0)
(19.49903 -0.001045625 0)
(19.4992 -0.001045388 0)
(19.49936 -0.001044692 0)
(19.49952 -0.001043531 0)
(19.49969 -0.001041897 0)
(19.49985 -0.001039778 0)
(19.50001 -0.001037161 0)
(19.50017 -0.001034031 0)
(19.50033 -0.00103037 0)
(19.50049 -0.001026156 0)
(19.50066 -0.001021369 0)
(19.50081 -0.001015983 0)
(19.50097 -0.00100997 0)
(19.50113 -0.001003302 0)
(19.50129 -0.0009959469 0)
(19.50144 -0.0009878704 0)
(19.5016 -0.0009790367 0)
(19.50175 -0.0009694081 0)
(19.5019 -0.0009589449 0)
(19.50205 -0.0009476055 0)
(19.5022 -0.0009353473 0)
(19.50235 -0.0009221261 0)
(19.50249 -0.000907897 0)
(19.50263 -0.0008926146 0)
(19.50277 -0.0008762333 0)
(19.50291 -0.0008587077 0)
(19.50304 -0.0008399936 0)
(19.50317 -0.000820048 0)
(19.5033 -0.0007988303 0)
(19.50343 -0.0007763028 0)
(19.50355 -0.0007524312 0)
(19.50367 -0.0007271862 0)
(19.50378 -0.0007005437 0)
(19.50389 -0.0006724861 0)
(19.50399 -0.0006430032 0)
(19.50409 -0.0006120931 0)
(19.50419 -0.0005797631 0)
(19.50428 -0.000546031 0)
(19.50436 -0.0005109251 0)
(19.50444 -0.0004744857 0)
(19.50452 -0.0004367651 0)
(19.50458 -0.0003978282 0)
(19.50464 -0.0003577525 0)
(19.5047 -0.000316628 0)
(19.50474 -0.0002745565 0)
(19.50479 -0.0002316514 0)
(19.50482 -0.000188035 0)
(19.50485 -0.0001438407 0)
(19.50486 -9.919774e-05 0)
(19.50488 -5.429835e-05 0)
(28.15438 -0.0002049462 0)
(21.33089 -0.0002952626 0)
(18.57919 -0.0003437073 0)
(19.31093 -0.000391193 0)
(19.58951 -0.0004335059 0)
(19.51118 -0.0004701746 0)
(19.48306 -0.0005039263 0)
(19.49148 -0.0005365066 0)
(19.49439 -0.0005685593 0)
(19.49356 -0.0006003092 0)
(19.49335 -0.000631838 0)
(19.49353 -0.0006631128 0)
(19.49365 -0.0006940216 0)
(19.49373 -0.0007244251 0)
(19.49383 -0.000754184 0)
(19.49393 -0.0007831709 0)
(19.49404 -0.0008112761 0)
(19.49415 -0.0008384103 0)
(19.49427 -0.0008645044 0)
(19.49439 -0.0008895085 0)
(19.49452 -0.0009133898 0)
(19.49464 -0.0009361301 0)
(19.49477 -0.0009577241 0)
(19.49491 -0.0009781767 0)
(19.49504 -0.0009975018 0)
(19.49518 -0.00101572 0)
(19.49532 -0.001032857 0)
(19.49547 -0.001048942 0)
(19.49561 -0.001064009 0)
(19.49576 -0.001078092 0)
(19.49591 -0.001091228 0)
(19.49606 -0.001103452 0)
(19.49621 -0.001114801 0)
(19.49636 -0.001125311 0)
(19.49652 -0.001135015 0)
(19.49667 -0.001143948 0)
(19.49683 -0.001152141 0)
(19.49699 -0.001159624 0)
(19.49714 -0.001166426 0)
(19.4973 -0.001172571 0)
(19.49746 -0.001178085 0)
(19.49763 -0.001182988 0)
(19.49779 -0.001187299 0)
(19.49795 -0.001191037 0)
(19.49811 -0.001194214 0)
(19.49827 -0.001196843 0)
(19.49844 -0.001198934 0)
(19.4986 -0.001200494 0)
(19.49876 -0.001201527 0)
(19.49893 -0.001202036 0)
(19.49909 -0.001202021 0)
(19.49926 -0.001201478 0)
(19.49942 -0.001200403 0)
(19.49958 -0.001198787 0)
(19.49975 -0.001196621 0)
(19.49991 -0.001193891 0)
(19.50007 -0.001190581 0)
(19.50024 -0.001186674 0)
(19.5004 -0.001182148 0)
(19.50056 -0.00117698 0)
(19.50072 -0.001171145 0)
(19.50088 -0.001164612 0)
(19.50104 -0.001157351 0)
(19.5012 -0.001149327 0)
(19.50135 -0.001140504 0)
(19.50151 -0.001130843 0)
(19.50167 -0.001120301 0)
(19.50182 -0.001108836 0)
(19.50197 -0.0010964 0)
(19.50212 -0.001082945 0)
(19.50227 -0.001068422 0)
(19.50242 -0.001052779 0)
(19.50256 -0.001035964 0)
(19.50271 -0.001017923 0)
(19.50285 -0.0009986014 0)
(19.50299 -0.0009779471 0)
(19.50312 -0.0009559071 0)
(19.50325 -0.0009324303 0)
(19.50338 -0.0009074682 0)
(19.50351 -0.0008809752 0)
(19.50363 -0.00085291 0)
(19.50375 -0.0008232365 0)
(19.50387 -0.0007919247 0)
(19.50398 -0.0007589523 0)
(19.50408 -0.0007243051 0)
(19.50418 -0.0006879789 0)
(19.50428 -0.0006499803 0)
(19.50437 -0.0006103278 0)
(19.50446 -0.0005690529 0)
(19.50454 -0.0005262007 0)
(19.50461 -0.0004818311 0)
(19.50468 -0.0004360187 0)
(19.50474 -0.0003888533 0)
(19.5048 -0.0003404399 0)
(19.50485 -0.0002908975 0)
(19.50489 -0.0002403595 0)
(19.50492 -0.0001889705 0)
(19.50495 -0.0001368892 0)
(19.50497 -8.427011e-05 0)
(19.50498 -3.134464e-05 0)
(28.15431 -0.0001718045 0)
(21.33088 -0.0002677208 0)
(18.5792 -0.0003255586 0)
(19.31095 -0.0003801784 0)
(19.58953 -0.0004307104 0)
(19.5112 -0.0004766211 0)
(19.48308 -0.0005197875 0)
(19.49151 -0.0005616555 0)
(19.49441 -0.0006028158 0)
(19.49358 -0.0006434278 0)
(19.49337 -0.0006834989 0)
(19.49355 -0.0007229471 0)
(19.49367 -0.000761632 0)
(19.49375 -0.0007993976 0)
(19.49385 -0.0008360977 0)
(19.49396 -0.0008716066 0)
(19.49406 -0.0009058229 0)
(19.49418 -0.0009386699 0)
(19.4943 -0.0009700945 0)
(19.49442 -0.001000065 0)
(19.49454 -0.001028567 0)
(19.49467 -0.001055603 0)
(19.4948 -0.001081188 0)
(19.49494 -0.001105344 0)
(19.49508 -0.001128106 0)
(19.49522 -0.001149512 0)
(19.49536 -0.001169604 0)
(19.4955 -0.00118843 0)
(19.49565 -0.001206036 0)
(19.4958 -0.001222474 0)
(19.49595 -0.001237791 0)
(19.4961 -0.001252037 0)
(19.49625 -0.00126526 0)
(19.4964 -0.001277506 0)
(19.49656 -0.001288821 0)
(19.49672 -0.001299246 0)
(19.49687 -0.001308821 0)
(19.49703 -0.001317586 0)
(19.49719 -0.001325574 0)
(19.49735 -0.001332818 0)
(19.49751 -0.001339347 0)
(19.49767 -0.001345189 0)
(19.49784 -0.001350367 0)
(19.498 -0.001354903 0)
(19.49816 -0.001358813 0)
(19.49833 -0.001362114 0)
(19.49849 -0.001364818 0)
(19.49865 -0.001366933 0)
(19.49882 -0.001368466 0)
(19.49898 -0.00136942 0)
(19.49915 -0.001369796 0)
(19.49931 -0.001369592 0)
(19.49948 -0.001368802 0)
(19.49964 -0.001367417 0)
(19.4998 -0.001365427 0)
(19.49997 -0.001362816 0)
(19.50013 -0.001359568 0)
(19.5003 -0.001355661 0)
(19.50046 -0.001351074 0)
(19.50062 -0.001345778 0)
(19.50078 -0.001339745 0)
(19.50094 -0.001332941 0)
(19.5011 -0.001325331 0)
(19.50126 -0.001316876 0)
(19.50142 -0.001307534 0)
(19.50158 -0.00129726 0)
(19.50173 -0.001286006 0)
(19.50189 -0.001273723 0)
(19.50204 -0.001260356 0)
(19.50219 -0.00124585 0)
(19.50234 -0.001230147 0)
(19.50249 -0.001213188 0)
(19.50264 -0.001194911 0)
(19.50278 -0.001175255 0)
(19.50292 -0.001154156 0)
(19.50306 -0.001131552 0)
(19.5032 -0.001107381 0)
(19.50334 -0.001081582 0)
(19.50347 -0.001054098 0)
(19.50359 -0.001024873 0)
(19.50372 -0.0009938578 0)
(19.50384 -0.0009610082 0)
(19.50396 -0.0009262865 0)
(19.50407 -0.0008896638 0)
(19.50418 -0.0008511207 0)
(19.50428 -0.0008106488 0)
(19.50438 -0.0007682523 0)
(19.50447 -0.0007239492 0)
(19.50456 -0.0006777727 0)
(19.50464 -0.0006297718 0)
(19.50472 -0.0005800128 0)
(19.50479 -0.0005285797 0)
(19.50485 -0.0004755741 0)
(19.50491 -0.0004211157 0)
(19.50496 -0.0003653416 0)
(19.505 -0.0003084051 0)
(19.50504 -0.0002504741 0)
(19.50506 -0.0001917328 0)
(19.50508 -0.0001323615 0)
(19.5051 -7.262999e-05 0)
(28.15424 -0.0001592087 0)
(21.33084 -0.0002649306 0)
(18.57918 -0.0003351104 0)
(19.31093 -0.0004020901 0)
(19.58952 -0.0004661059 0)
(19.51119 -0.0005254664 0)
(19.48308 -0.0005810556 0)
(19.4915 -0.0006339968 0)
(19.49441 -0.0006848597 0)
(19.49358 -0.0007338919 0)
(19.49337 -0.000781242 0)
(19.49355 -0.0008269918 0)
(19.49367 -0.0008711617 0)
(19.49376 -0.0009137378 0)
(19.49386 -0.0009546939 0)
(19.49397 -0.0009940017 0)
(19.49408 -0.001031638 0)
(19.49419 -0.001067586 0)
(19.49431 -0.001101841 0)
(19.49444 -0.001134409 0)
(19.49456 -0.001165303 0)
(19.49469 -0.001194548 0)
(19.49483 -0.001222176 0)
(19.49496 -0.001248224 0)
(19.4951 -0.001272738 0)
(19.49524 -0.001295764 0)
(19.49539 -0.001317353 0)
(19.49553 -0.001337559 0)
(19.49568 -0.001356436 0)
(19.49583 -0.001374038 0)
(19.49598 -0.001390418 0)
(19.49613 -0.00140563 0)
(19.49629 -0.001419726 0)
(19.49644 -0.001432755 0)
(19.4966 -0.001444766 0)
(19.49675 -0.001455803 0)
(19.49691 -0.001465911 0)
(19.49707 -0.001475127 0)
(19.49723 -0.001483491 0)
(19.49739 -0.001491036 0)
(19.49756 -0.001497794 0)
(19.49772 -0.001503792 0)
(19.49788 -0.001509056 0)
(19.49804 -0.001513608 0)
(19.49821 -0.001517467 0)
(19.49837 -0.001520649 0)
(19.49854 -0.001523166 0)
(19.4987 -0.001525027 0)
(19.49886 -0.001526239 0)
(19.49903 -0.001526805 0)
(19.49919 -0.001526724 0)
(19.49936 -0.001525995 0)
(19.49952 -0.00152461 0)
(19.49969 -0.001522559 0)
(19.49985 -0.00151983 0)
(19.50002 -0.001516407 0)
(19.50018 -0.001512269 0)
(19.50035 -0.001507395 0)
(19.50051 -0.001501757 0)
(19.50067 -0.001495327 0)
(19.50083 -0.001488071 0)
(19.501 -0.001479952 0)
(19.50116 -0.001470932 0)
(19.50132 -0.001460965 0)
(19.50148 -0.001450006 0)
(19.50163 -0.001438004 0)
(19.50179 -0.001424905 0)
(19.50195 -0.001410653 0)
(19.5021 -0.001395187 0)
(19.50225 -0.001378446 0)
(19.50241 -0.001360363 0)
(19.50256 -0.001340872 0)
(19.5027 -0.001319901 0)
(19.50285 -0.001297382 0)
(19.50299 -0.00127324 0)
(19.50313 -0.001247405 0)
(19.50327 -0.001219805 0)
(19.50341 -0.00119037 0)
(19.50354 -0.001159031 0)
(19.50367 -0.001125726 0)
(19.5038 -0.001090393 0)
(19.50392 -0.001052981 0)
(19.50404 -0.001013443 0)
(19.50415 -0.0009717431 0)
(19.50426 -0.0009278557 0)
(19.50437 -0.0008817676 0)
(19.50447 -0.0008334798 0)
(19.50456 -0.0007830092 0)
(19.50465 -0.0007303897 0)
(19.50474 -0.0006756742 0)
(19.50482 -0.0006189354 0)
(19.50489 -0.0005602665 0)
(19.50495 -0.0004997819 0)
(19.50501 -0.000437617 0)
(19.50506 -0.000373928 0)
(19.5051 -0.0003088909 0)
(19.50514 -0.0002426987 0)
(19.50517 -0.0001755647 0)
(19.50519 -0.000107698 0)
(19.5052 -3.941232e-05 0)
(28.15417 -0.0001528345 0)
(21.33081 -0.0002648109 0)
(18.57916 -0.0003417706 0)
(19.31091 -0.0004153091 0)
(19.5895 -0.0004868195 0)
(19.51119 -0.0005540068 0)
(19.48307 -0.0006172912 0)
(19.4915 -0.0006776999 0)
(19.49441 -0.000735782 0)
(19.49358 -0.0007917726 0)
(19.49338 -0.0008458177 0)
(19.49356 -0.0008980014 0)
(19.49368 -0.0009483453 0)
(19.49377 -0.0009968351 0)
(19.49387 -0.001043443 0)
(19.49397 -0.001088138 0)
(19.49409 -0.001130897 0)
(19.4942 -0.001171705 0)
(19.49433 -0.001210559 0)
(19.49445 -0.001247469 0)
(19.49458 -0.001282455 0)
(19.49471 -0.00131555 0)
(19.49485 -0.001346795 0)
(19.49498 -0.001376238 0)
(19.49512 -0.001403934 0)
(19.49527 -0.001429941 0)
(19.49541 -0.001454323 0)
(19.49556 -0.001477143 0)
(19.49571 -0.001498467 0)
(19.49586 -0.001518361 0)
(19.49601 -0.001536887 0)
(19.49616 -0.001554111 0)
(19.49632 -0.001570094 0)
(19.49647 -0.001584893 0)
(19.49663 -0.001598566 0)
(19.49679 -0.001611167 0)
(19.49695 -0.001622744 0)
(19.49711 -0.001633346 0)
(19.49727 -0.001643015 0)
(19.49743 -0.001651793 0)
(19.4976 -0.001659714 0)
(19.49776 -0.001666811 0)
(19.49792 -0.001673115 0)
(19.49809 -0.001678651 0)
(19.49825 -0.001683439 0)
(19.49842 -0.0016875 0)
(19.49858 -0.001690847 0)
(19.49875 -0.001693492 0)
(19.49891 -0.001695442 0)
(19.49908 -0.0016967 0)
(19.49924 -0.001697269 0)
(19.49941 -0.001697143 0)
(19.49957 -0.001696317 0)
(19.49974 -0.001694779 0)
(19.49991 -0.001692516 0)
(19.50007 -0.00168951 0)
(19.50024 -0.00168574 0)
(19.5004 -0.001681179 0)
(19.50056 -0.001675799 0)
(19.50073 -0.001669567 0)
(19.50089 -0.001662446 0)
(19.50105 -0.001654395 0)
(19.50122 -0.001645371 0)
(19.50138 -0.001635324 0)
(19.50154 -0.001624201 0)
(19.5017 -0.001611947 0)
(19.50186 -0.001598502 0)
(19.50201 -0.001583801 0)
(19.50217 -0.001567777 0)
(19.50232 -0.00155036 0)
(19.50248 -0.001531475 0)
(19.50263 -0.001511045 0)
(19.50278 -0.001488992 0)
(19.50292 -0.001465234 0)
(19.50307 -0.00143969 0)
(19.50321 -0.001412275 0)
(19.50335 -0.001382908 0)
(19.50349 -0.001351506 0)
(19.50363 -0.001317991 0)
(19.50376 -0.001282286 0)
(19.50389 -0.001244321 0)
(19.50401 -0.001204032 0)
(19.50413 -0.001161363 0)
(19.50425 -0.001116267 0)
(19.50436 -0.00106871 0)
(19.50447 -0.001018673 0)
(19.50457 -0.0009661507 0)
(19.50467 -0.000911157 0)
(19.50476 -0.0008537251 0)
(19.50485 -0.0007939097 0)
(19.50493 -0.0007317887 0)
(19.505 -0.0006674636 0)
(19.50507 -0.0006010611 0)
(19.50513 -0.0005327325 0)
(19.50518 -0.0004626536 0)
(19.50523 -0.0003910238 0)
(19.50526 -0.0003180633 0)