/*--------------------------------*- C++ -*----------------------------------*\
| =========                 |                                                 |
| \\      /  F ield         | OpenFOAM: The Open Source CFD Toolbox           |
|  \\    /   O peration     | Version:  2.3.0                                 |
|   \\  /    A nd           | Web:      www.OpenFOAM.org                      |
|    \\/     M anipulation  |                                                 |
\*---------------------------------------------------------------------------*/
FoamFile
{
    version     2.0;
    format      ascii;
    class       volScalarField;
    location    "9700/wall";
    object      T;
}
// * * * * * * * * * * * * * * * * * * * * * * * * * * * * * * * * * * * * * //

dimensions      [0 0 0 1 0 0 0];

internalField   nonuniform List<scalar> 
2000
(
1153.507
1153.572
1153.605
1153.602
1153.591
1153.578
1153.564
1153.548
1153.532
1153.516
1153.499
1153.482
1153.465
1153.448
1153.431
1153.414
1153.396
1153.379
1153.362
1153.344
1153.327
1153.31
1153.292
1153.275
1153.258
1153.24
1153.223
1153.205
1153.188
1153.17
1153.153
1153.136
1153.118
1153.101
1153.083
1153.066
1153.048
1153.031
1153.013
1152.996
1152.979
1152.961
1152.944
1152.926
1152.909
1152.891
1152.874
1152.856
1152.839
1152.821
1152.804
1152.786
1152.769
1152.751
1152.734
1152.716
1152.699
1152.681
1152.664
1152.646
1152.629
1152.611
1152.594
1152.576
1152.559
1152.541
1152.524
1152.506
1152.489
1152.471
1152.453
1152.436
1152.418
1152.401
1152.383
1152.366
1152.348
1152.331
1152.313
1152.296
1152.278
1152.261
1152.243
1152.226
1152.208
1152.191
1152.173
1152.156
1152.138
1152.121
1152.104
1152.086
1152.069
1152.053
1152.036
1152.02
1152.004
1151.989
1151.976
1151.967
1111.047
1111.07
1111.086
1111.088
1111.083
1111.074
1111.063
1111.05
1111.037
1111.023
1111.008
1110.993
1110.978
1110.963
1110.947
1110.932
1110.916
1110.901
1110.885
1110.869
1110.853
1110.838
1110.822
1110.806
1110.79
1110.774
1110.758
1110.742
1110.726
1110.711
1110.695
1110.679
1110.663
1110.647
1110.631
1110.615
1110.599
1110.583
1110.567
1110.551
1110.535
1110.519
1110.503
1110.487
1110.471
1110.455
1110.44
1110.424
1110.408
1110.392
1110.376
1110.36
1110.344
1110.328
1110.312
1110.296
1110.28
1110.264
1110.248
1110.232
1110.216
1110.2
1110.184
1110.168
1110.152
1110.136
1110.12
1110.104
1110.088
1110.072
1110.056
1110.04
1110.024
1110.008
1109.992
1109.976
1109.96
1109.944
1109.928
1109.912
1109.896
1109.88
1109.864
1109.848
1109.832
1109.816
1109.8
1109.784
1109.769
1109.753
1109.737
1109.722
1109.707
1109.692
1109.678
1109.664
1109.651
1109.64
1109.631
1109.626
1068.564
1068.572
1068.58
1068.582
1068.578
1068.572
1068.563
1068.553
1068.542
1068.53
1068.517
1068.504
1068.491
1068.477
1068.464
1068.45
1068.436
1068.422
1068.408
1068.394
1068.379
1068.365
1068.351
1068.337
1068.322
1068.308
1068.294
1068.279
1068.265
1068.251
1068.236
1068.222
1068.208
1068.193
1068.179
1068.164
1068.15
1068.136
1068.121
1068.107
1068.092
1068.078
1068.063
1068.049
1068.035
1068.02
1068.006
1067.991
1067.977
1067.962
1067.948
1067.933
1067.919
1067.905
1067.89
1067.876
1067.861
1067.847
1067.832
1067.818
1067.803
1067.789
1067.774
1067.76
1067.745
1067.731
1067.717
1067.702
1067.688
1067.673
1067.659
1067.644
1067.63
1067.615
1067.601
1067.586
1067.572
1067.557
1067.543
1067.529
1067.514
1067.5
1067.485
1067.471
1067.457
1067.442
1067.428
1067.414
1067.4
1067.386
1067.372
1067.359
1067.346
1067.333
1067.321
1067.309
1067.299
1067.29
1067.284
1067.28
1026.072
1026.076
1026.079
1026.079
1026.077
1026.072
1026.065
1026.057
1026.047
1026.037
1026.026
1026.015
1026.004
1025.992
1025.98
1025.968
1025.955
1025.943
1025.931
1025.918
1025.905
1025.893
1025.88
1025.867
1025.855
1025.842
1025.829
1025.816
1025.804
1025.791
1025.778
1025.765
1025.752
1025.739
1025.727
1025.714
1025.701
1025.688
1025.675
1025.662
1025.649
1025.637
1025.624
1025.611
1025.598
1025.585
1025.572
1025.559
1025.546
1025.533
1025.521
1025.508
1025.495
1025.482
1025.469
1025.456
1025.443
1025.43
1025.417
1025.404
1025.392
1025.379
1025.366
1025.353
1025.34
1025.327
1025.314
1025.301
1025.288
1025.275
1025.262
1025.249
1025.237
1025.224
1025.211
1025.198
1025.185
1025.172
1025.159
1025.146
1025.134
1025.121
1025.108
1025.095
1025.083
1025.07
1025.057
1025.045
1025.032
1025.02
1025.008
1024.997
1024.985
1024.974
1024.964
1024.954
1024.946
1024.939
1024.934
1024.932
983.5771
983.5783
983.5792
983.5788
983.5766
983.5727
983.5673
983.5606
983.5529
983.5445
983.5355
983.5261
983.5162
983.5061
983.4958
983.4853
983.4747
983.4639
983.4531
983.4422
983.4312
983.4201
983.4091
983.398
983.3868
983.3757
983.3645
983.3533
983.342
983.3308
983.3196
983.3083
983.297
983.2858
983.2745
983.2632
983.2519
983.2406
983.2293
983.218
983.2067
983.1954
983.1841
983.1728
983.1615
983.1501
983.1388
983.1275
983.1162
983.1048
983.0935
983.0822
983.0709
983.0595
983.0482
983.0369
983.0255
983.0142
983.0028
982.9915
982.9802
982.9688
982.9575
982.9461
982.9348
982.9234
982.9121
982.9007
982.8894
982.8781
982.8667
982.8554
982.8441
982.8327
982.8214
982.8101
982.7988
982.7875
982.7762
982.765
982.7537
982.7425
982.7313
982.7202
982.7091
982.6981
982.6871
982.6763
982.6656
982.655
982.6447
982.6347
982.625
982.6158
982.6072
982.5995
982.5927
982.5873
982.5835
982.5816
941.0802
941.0806
941.0806
941.0799
941.0779
941.0748
941.0704
941.0651
941.059
941.0521
941.0448
941.0369
941.0288
941.0203
941.0116
941.0028
940.9938
940.9847
940.9754
940.9661
940.9567
940.9473
940.9378
940.9283
940.9188
940.9092
940.8996
940.89
940.8803
940.8707
940.861
940.8514
940.8417
940.832
940.8223
940.8126
940.8029
940.7932
940.7834
940.7737
940.764
940.7543
940.7445
940.7348
940.7251
940.7153
940.7056
940.6958
940.6861
940.6763
940.6666
940.6568
940.6471
940.6373
940.6276
940.6178
940.6081
940.5983
940.5885
940.5788
940.569
940.5593
940.5495
940.5397
940.53
940.5202
940.5105
940.5007
940.491
940.4812
940.4715
940.4617
940.452
940.4422
940.4325
940.4228
940.4131
940.4034
940.3937
940.384
940.3744
940.3648
940.3552
940.3457
940.3362
940.3268
940.3174
940.3082
940.2991
940.2902
940.2815
940.2731
940.2651
940.2575
940.2505
940.2442
940.2388
940.2345
940.2316
940.2301
898.5826
898.5827
898.5824
898.5816
898.58
898.5775
898.5742
898.57
898.5653
898.5599
898.554
898.5478
898.5412
898.5344
898.5273
898.5201
898.5127
898.5052
898.4975
898.4899
898.4821
898.4743
898.4664
898.4585
898.4505
898.4425
898.4345
898.4265
898.4185
898.4104
898.4023
898.3943
898.3862
898.3781
898.37
898.3618
898.3537
898.3456
898.3375
898.3293
898.3212
898.3131
898.3049
898.2968
898.2886
898.2805
898.2723
898.2642
898.256
898.2478
898.2397
898.2315
898.2234
898.2152
898.207
898.1989
898.1907
898.1825
898.1744
898.1662
898.158
898.1499
898.1417
898.1335
898.1254
898.1172
898.1091
898.1009
898.0927
898.0846
898.0764
898.0683
898.0601
898.052
898.0439
898.0357
898.0276
898.0195
898.0115
898.0034
897.9954
897.9874
897.9794
897.9715
897.9636
897.9558
897.9481
897.9405
897.933
897.9257
897.9186
897.9117
897.9052
897.8991
897.8934
897.8885
897.8842
897.8809
897.8786
897.8775
856.0845
856.0845
856.0843
856.0836
856.0824
856.0806
856.0782
856.0752
856.0717
856.0677
856.0633
856.0586
856.0535
856.0483
856.0428
856.0371
856.0313
856.0254
856.0194
856.0133
856.0072
856.001
855.9947
855.9884
855.982
855.9756
855.9692
855.9628
855.9564
855.9499
855.9434
855.937
855.9305
855.924
855.9174
855.9109
855.9044
855.8979
855.8913
855.8848
855.8783
855.8717
855.8652
855.8586
855.8521
855.8455
855.839
855.8324
855.8258
855.8193
855.8127
855.8062
855.7996
855.793
855.7865
855.7799
855.7733
855.7668
855.7602
855.7536
855.7471
855.7405
855.7339
855.7274
855.7208
855.7142
855.7077
855.7011
855.6946
855.688
855.6815
855.6749
855.6684
855.6618
855.6553
855.6488
855.6423
855.6358
855.6293
855.6229
855.6165
855.6101
855.6037
855.5974
855.5911
855.5849
855.5788
855.5728
855.5669
855.5611
855.5555
855.5502
855.5451
855.5404
855.536
855.5322
855.529
855.5265
855.5248
855.5239
813.5861
813.5862
813.586
813.5857
813.585
813.5839
813.5824
813.5805
813.5782
813.5755
813.5725
813.5693
813.5657
813.562
813.5581
813.554
813.5498
813.5455
813.541
813.5365
813.532
813.5274
813.5227
813.518
813.5132
813.5085
813.5037
813.4988
813.494
813.4891
813.4843
813.4794
813.4745
813.4696
813.4647
813.4597
813.4548
813.4499
813.4449
813.44
813.4351
813.4301
813.4252
813.4202
813.4153
813.4103
813.4054
813.4004
813.3955
813.3905
813.3855
813.3806
813.3756
813.3707
813.3657
813.3607
813.3558
813.3508
813.3459
813.3409
813.3359
813.331
813.326
813.3211
813.3161
813.3111
813.3062
813.3012
813.2963
813.2913
813.2864
813.2815
813.2765
813.2716
813.2667
813.2618
813.2569
813.252
813.2472
813.2423
813.2375
813.2327
813.2279
813.2232
813.2186
813.2139
813.2094
813.2049
813.2006
813.1964
813.1923
813.1884
813.1847
813.1813
813.1782
813.1754
813.1731
813.1713
813.1701
813.1694
771.0873
771.0875
771.0876
771.0876
771.0875
771.0872
771.0866
771.0858
771.0847
771.0833
771.0816
771.0798
771.0777
771.0755
771.0731
771.0706
771.0679
771.0652
771.0623
771.0594
771.0565
771.0534
771.0504
771.0473
771.0441
771.0409
771.0377
771.0345
771.0313
771.028
771.0247
771.0214
771.0181
771.0148
771.0115
771.0082
771.0049
771.0016
770.9982
770.9949
770.9916
770.9882
770.9849
770.9815
770.9782
770.9748
770.9715
770.9681
770.9648
770.9614
770.9581
770.9547
770.9514
770.948
770.9446
770.9413
770.9379
770.9346
770.9312
770.9279
770.9245
770.9212
770.9178
770.9145
770.9111
770.9078
770.9044
770.9011
770.8977
770.8944
770.8911
770.8877
770.8844
770.8811
770.8778
770.8745
770.8712
770.8679
770.8647
770.8614
770.8582
770.855
770.8519
770.8488
770.8457
770.8427
770.8397
770.8368
770.834
770.8312
770.8286
770.8261
770.8238
770.8216
770.8197
770.818
770.8165
770.8154
770.8146
770.8141
728.5881
728.5884
728.5888
728.5893
728.5898
728.5903
728.5907
728.5909
728.5909
728.5908
728.5905
728.5901
728.5895
728.5887
728.5879
728.5869
728.5858
728.5846
728.5833
728.582
728.5806
728.5792
728.5777
728.5762
728.5746
728.573
728.5714
728.5698
728.5681
728.5665
728.5648
728.5631
728.5614
728.5597
728.558
728.5563
728.5546
728.5528
728.5511
728.5494
728.5476
728.5459
728.5441
728.5424
728.5407
728.5389
728.5372
728.5354
728.5337
728.5319
728.5302
728.5284
728.5267
728.5249
728.5232
728.5214
728.5197
728.5179
728.5161
728.5144
728.5126
728.5109
728.5092
728.5074
728.5057
728.5039
728.5022
728.5004
728.4987
728.497
728.4953
728.4935
728.4918
728.4901
728.4884
728.4867
728.4851
728.4834
728.4817
728.4801
728.4785
728.4769
728.4753
728.4738
728.4723
728.4708
728.4694
728.4681
728.4668
728.4655
728.4643
728.4632
728.4622
728.4613
728.4605
728.4598
728.4591
728.4586
728.4582
728.4579
686.0882
686.0887
686.0895
686.0905
686.0918
686.0931
686.0944
686.0957
686.097
686.0982
686.0992
686.1002
686.101
686.1017
686.1023
686.1028
686.1033
686.1036
686.1039
686.1042
686.1044
686.1045
686.1046
686.1046
686.1047
686.1047
686.1047
686.1046
686.1046
686.1045
686.1044
686.1043
686.1042
686.1041
686.104
686.1039
686.1037
686.1036
686.1035
686.1033
686.1032
686.103
686.1029
686.1028
686.1026
686.1025
686.1023
686.1022
686.102
686.1019
686.1017
686.1016
686.1014
686.1012
686.1011
686.1009
686.1008
686.1006
686.1005
686.1003
686.1002
686.1
686.0999
686.0998
686.0996
686.0995
686.0993
686.0992
686.0991
686.0989
686.0988
686.0987
686.0986
686.0985
686.0984
686.0983
686.0982
686.0982
686.0981
686.0981
686.0981
686.0981
686.0981
686.0981
686.0982
686.0983
686.0984
686.0986
686.0988
686.099
686.0993
686.0996
686.0999
686.1002
686.1005
686.1007
686.1009
686.101
686.101
686.1009
643.5876
643.5883
643.5895
643.5912
643.5932
643.5954
643.5978
643.6002
643.6027
643.6052
643.6076
643.6099
643.6121
643.6143
643.6164
643.6185
643.6204
643.6223
643.6241
643.6259
643.6277
643.6294
643.631
643.6327
643.6343
643.6359
643.6374
643.639
643.6405
643.642
643.6435
643.645
643.6465
643.6479
643.6494
643.6509
643.6523
643.6538
643.6552
643.6567
643.6581
643.6596
643.661
643.6625
643.6639
643.6654
643.6668
643.6682
643.6697
643.6711
643.6726
643.674
643.6754
643.6769
643.6783
643.6798
643.6812
643.6827
643.6841
643.6855
643.687
643.6884
643.6899
643.6913
643.6928
643.6942
643.6957
643.6972
643.6986
643.7001
643.7016
643.703
643.7045
643.706
643.7075
643.709
643.7105
643.7121
643.7136
643.7152
643.7167
643.7183
643.7199
643.7215
643.7232
643.7248
643.7265
643.7282
643.7299
643.7316
643.7333
643.7349
643.7365
643.7381
643.7395
643.7408
643.7418
643.7426
643.743
643.7431
601.086
601.0869
601.0887
601.0911
601.094
601.0972
601.1007
601.1043
601.108
601.1118
601.1155
601.1193
601.1229
601.1266
601.1301
601.1337
601.1371
601.1405
601.1439
601.1472
601.1505
601.1538
601.157
601.1602
601.1633
601.1665
601.1696
601.1727
601.1758
601.1789
601.182
601.185
601.1881
601.1911
601.1942
601.1972
601.2003
601.2033
601.2063
601.2094
601.2124
601.2154
601.2184
601.2215
601.2245
601.2275
601.2305
601.2336
601.2366
601.2396
601.2426
601.2457
601.2487
601.2517
601.2547
601.2577
601.2608
601.2638
601.2668
601.2699
601.2729
601.2759
601.279
601.282
601.285
601.2881
601.2911
601.2942
601.2972
601.3003
601.3033
601.3064
601.3094
601.3125
601.3156
601.3187
601.3218
601.3249
601.328
601.3311
601.3343
601.3374
601.3406
601.3438
601.347
601.3502
601.3534
601.3566
601.3598
601.3629
601.3661
601.3691
601.3721
601.3749
601.3775
601.3798
601.3817
601.3832
601.3841
601.3844
558.5831
558.5844
558.5868
558.5901
558.594
558.5983
558.603
558.6079
558.6129
558.618
558.6231
558.6282
558.6333
558.6384
558.6434
558.6484
558.6534
558.6583
558.6632
558.668
558.6728
558.6776
558.6824
558.6871
558.6918
558.6965
558.7012
558.7059
558.7105
558.7152
558.7198
558.7244
558.729
558.7336
558.7383
558.7429
558.7475
558.7521
558.7567
558.7613
558.7658
558.7704
558.775
558.7796
558.7842
558.7888
558.7934
558.798
558.8026
558.8072
558.8118
558.8164
558.8209
558.8255
558.8301
558.8347
558.8393
558.8439
558.8485
558.8531
558.8577
558.8623
558.8669
558.8715
558.8762
558.8808
558.8854
558.89
558.8946
558.8992
558.9039
558.9085
558.9131
558.9178
558.9224
558.9271
558.9318
558.9364
558.9411
558.9458
558.9505
558.9552
558.9599
558.9647
558.9694
558.9741
558.9788
558.9836
558.9883
558.9929
558.9975
559.002
559.0063
559.0104
559.0143
559.0177
559.0206
559.0229
559.0244
559.0249
516.0786
516.0804
516.0837
516.0881
516.0932
516.0988
516.1047
516.1109
516.1173
516.1237
516.1302
516.1367
516.1433
516.1498
516.1563
516.1627
516.1692
516.1756
516.1819
516.1883
516.1946
516.2009
516.2072
516.2134
516.2197
516.2259
516.2321
516.2383
516.2445
516.2507
516.2569
516.263
516.2692
516.2754
516.2815
516.2877
516.2938
516.3
516.3061
516.3123
516.3184
516.3245
516.3307
516.3368
516.343
516.3491
516.3553
516.3614
516.3675
516.3737
516.3798
516.386
516.3921
516.3983
516.4044
516.4106
516.4167
516.4229
516.429
516.4352
516.4414
516.4475
516.4537
516.4598
516.466
516.4722
516.4783
516.4845
516.4907
516.4969
516.5031
516.5092
516.5154
516.5216
516.5278
516.534
516.5403
516.5465
516.5527
516.5589
516.5652
516.5714
516.5777
516.584
516.5902
516.5965
516.6027
516.609
516.6151
516.6213
516.6273
516.6333
516.639
516.6446
516.6497
516.6544
516.6585
516.6617
516.6638
516.6646
473.5719
473.5746
473.5792
473.5849
473.5914
473.5984
473.6058
473.6134
473.6211
473.6289
473.6368
473.6448
473.6527
473.6606
473.6686
473.6765
473.6844
473.6923
473.7001
473.7079
473.7158
473.7236
473.7313
473.7391
473.7468
473.7546
473.7623
473.77
473.7777
473.7854
473.7931
473.8008
473.8085
473.8162
473.8239
473.8316
473.8392
473.8469
473.8546
473.8623
473.87
473.8776
473.8853
473.893
473.9007
473.9083
473.916
473.9237
473.9314
473.939
473.9467
473.9544
473.9621
473.9698
473.9775
473.9851
473.9928
474.0005
474.0082
474.0159
474.0236
474.0313
474.039
474.0467
474.0544
474.0621
474.0698
474.0775
474.0852
474.0929
474.1007
474.1084
474.1161
474.1239
474.1316
474.1393
474.1471
474.1548
474.1626
474.1704
474.1781
474.1859
474.1937
474.2015
474.2092
474.217
474.2248
474.2325
474.2402
474.2478
474.2554
474.2628
474.2701
474.277
474.2836
474.2897
474.2951
474.2994
474.3025
474.3038
431.0624
431.0666
431.0731
431.0807
431.0888
431.0974
431.1062
431.1152
431.1244
431.1336
431.1429
431.1523
431.1616
431.171
431.1804
431.1897
431.1991
431.2084
431.2177
431.227
431.2363
431.2455
431.2548
431.264
431.2733
431.2825
431.2917
431.3009
431.3101
431.3193
431.3285
431.3377
431.3469
431.3561
431.3653
431.3745
431.3837
431.3928
431.402
431.4112
431.4204
431.4296
431.4388
431.448
431.4572
431.4663
431.4755
431.4847
431.4939
431.5031
431.5123
431.5215
431.5307
431.5399
431.5491
431.5583
431.5675
431.5767
431.5859
431.5951
431.6043
431.6135
431.6227
431.632
431.6412
431.6504
431.6596
431.6688
431.6781
431.6873
431.6965
431.7058
431.715
431.7243
431.7335
431.7428
431.752
431.7613
431.7705
431.7798
431.7891
431.7984
431.8076
431.8169
431.8262
431.8355
431.8447
431.854
431.8632
431.8723
431.8814
431.8903
431.8991
431.9077
431.9158
431.9235
431.9304
431.9363
431.9405
431.9426
388.5483
388.5559
388.5657
388.5755
388.5855
388.5957
388.606
388.6165
388.6272
388.6378
388.6485
388.6593
388.6701
388.6808
388.6916
388.7024
388.7131
388.7239
388.7346
388.7453
388.7561
388.7668
388.7775
388.7882
388.7989
388.8096
388.8202
388.8309
388.8416
388.8523
388.863
388.8736
388.8843
388.895
388.9056
388.9163
388.927
388.9376
388.9483
388.959
388.9697
388.9803
388.991
389.0017
389.0124
389.023
389.0337
389.0444
389.0551
389.0657
389.0764
389.0871
389.0978
389.1085
389.1192
389.1299
389.1406
389.1513
389.162
389.1727
389.1834
389.1941
389.2048
389.2155
389.2262
389.2369
389.2476
389.2583
389.269
389.2797
389.2905
389.3012
389.3119
389.3227
389.3334
389.3441
389.3549
389.3656
389.3764
389.3871
389.3979
389.4086
389.4194
389.4302
389.4409
389.4517
389.4624
389.4731
389.4838
389.4945
389.5051
389.5156
389.526
389.5361
389.546
389.5555
389.5643
389.5721
389.5782
389.5816
346.0263
346.0427
346.058
346.0699
346.0815
346.0934
346.1053
346.1174
346.1294
346.1415
346.1536
346.1658
346.1779
346.1901
346.2022
346.2144
346.2265
346.2387
346.2508
346.263
346.2751
346.2872
346.2994
346.3115
346.3236
346.3357
346.3479
346.36
346.3721
346.3842
346.3964
346.4085
346.4206
346.4327
346.4449
346.457
346.4691
346.4812
346.4934
346.5055
346.5176
346.5297
346.5419
346.554
346.5661
346.5783
346.5904
346.6026
346.6147
346.6268
346.639
346.6511
346.6633
346.6754
346.6876
346.6997
346.7119
346.7241
346.7362
346.7484
346.7605
346.7727
346.7849
346.797
346.8092
346.8214
346.8336
346.8457
346.8579
346.8701
346.8823
346.8945
346.9067
346.9188
346.931
346.9432
346.9554
346.9676
346.9798
346.992
347.0043
347.0165
347.0287
347.0409
347.0531
347.0653
347.0775
347.0897
347.1019
347.1141
347.1262
347.1383
347.1503
347.1622
347.1739
347.1854
347.1964
347.2068
347.2158
347.222
)
;

boundaryField
{
    leftLet
    {
        type            zeroGradient;
    }
    rightLet
    {
        type            zeroGradient;
    }
    frontAndBack
    {
        type            empty;
    }
    wall_to_bottomAir
    {
        type            compressible::turbulentTemperatureCoupledBaffleMixed;
        refValue        nonuniform List<scalar> 
100
(
1199.434
1199.65
1199.707
1199.668
1199.642
1199.625
1199.607
1199.587
1199.568
1199.549
1199.53
1199.511
1199.492
1199.473
1199.454
1199.435
1199.416
1199.397
1199.378
1199.359
1199.34
1199.321
1199.302
1199.283
1199.264
1199.245
1199.226
1199.207
1199.188
1199.169
1199.15
1199.131
1199.112
1199.092
1199.073
1199.054
1199.035
1199.016
1198.997
1198.978
1198.959
1198.94
1198.921
1198.902
1198.883
1198.864
1198.844
1198.825
1198.806
1198.787
1198.768
1198.749
1198.73
1198.711
1198.692
1198.672
1198.653
1198.634
1198.615
1198.596
1198.577
1198.558
1198.539
1198.519
1198.5
1198.481
1198.462
1198.443
1198.424
1198.405
1198.385
1198.366
1198.347
1198.328
1198.309
1198.29
1198.27
1198.251
1198.232
1198.213
1198.194
1198.174
1198.155
1198.136
1198.117
1198.098
1198.078
1198.059
1198.04
1198.021
1198.002
1197.982
1197.963
1197.944
1197.925
1197.905
1197.886
1197.867
1197.848
1197.828
)
;
        refGradient     uniform 0;
        valueFraction   nonuniform List<scalar> 
100
(
0.4615385
0.4615385
0.4615385
0.4615385
0.4615385
0.4615385
0.4615385
0.4615385
0.4615385
0.4615385
0.4615385
0.4615385
0.4615385
0.4615385
0.4615385
0.4615385
0.4615385
0.4615385
0.4615385
0.4615385
0.4615385
0.4615385
0.4615385
0.4615385
0.4615385
0.4615385
0.4615385
0.4615385
0.4615385
0.4615385
0.4615385
0.4615385
0.4615385
0.4615385
0.4615385
0.4615385
0.4615385
0.4615385
0.4615385
0.4615385
0.4615385
0.4615385
0.4615385
0.4615385
0.4615385
0.4615385
0.4615385
0.4615385
0.4615385
0.4615385
0.4615385
0.4615385
0.4615385
0.4615385
0.4615385
0.4615385
0.4615385
0.4615385
0.4615385
0.4615385
0.4615385
0.4615385
0.4615385
0.4615385
0.4615385
0.4615385
0.4615385
0.4615385
0.4615385
0.4615385
0.4615385
0.4615385
0.4615385
0.4615385
0.4615385
0.4615385
0.4615385
0.4615385
0.4615385
0.4615385
0.4615385
0.4615385
0.4615385
0.4615385
0.4615385
0.4615385
0.4615385
0.4615385
0.4615385
0.4615385
0.4615385
0.4615385
0.4615385
0.4615385
0.4615385
0.4615385
0.4615385
0.4615385
0.4615385
0.4615385
)
;
        value           nonuniform List<scalar> 
100
(
1174.705
1174.839
1174.883
1174.864
1174.845
1174.831
1174.814
1174.797
1174.78
1174.762
1174.744
1174.726
1174.708
1174.69
1174.672
1174.654
1174.636
1174.618
1174.6
1174.582
1174.564
1174.546
1174.528
1174.509
1174.491
1174.473
1174.455
1174.437
1174.419
1174.4
1174.382
1174.364
1174.346
1174.328
1174.309
1174.291
1174.273
1174.255
1174.237
1174.218
1174.2
1174.182
1174.164
1174.146
1174.127
1174.109
1174.091
1174.073
1174.054
1174.036
1174.018
1174
1173.981
1173.963
1173.945
1173.927
1173.908
1173.89
1173.872
1173.854
1173.835
1173.817
1173.799
1173.78
1173.762
1173.744
1173.726
1173.707
1173.689
1173.671
1173.652
1173.634
1173.616
1173.598
1173.579
1173.561
1173.543
1173.524
1173.506
1173.488
1173.47
1173.451
1173.433
1173.415
1173.396
1173.378
1173.36
1173.342
1173.323
1173.305
1173.287
1173.269
1173.251
1173.233
1173.215
1173.197
1173.18
1173.163
1173.147
1173.133
)
;
        Tnbr            T;
        thicknessLayers 0();
        kappaLayers     0();
        kappa           solidThermo;
        kappaName       none;
    }
    wall_to_topAir
    {
        type            compressible::turbulentTemperatureCoupledBaffleMixed;
        refValue        nonuniform List<scalar> 
100
(
299.9429
299.9876
300.0112
300.0223
300.0349
300.0488
300.0625
300.0761
300.0897
300.1034
300.117
300.1306
300.1443
300.1579
300.1715
300.1852
300.1988
300.2124
300.2261
300.2397
300.2534
300.267
300.2807
300.2943
300.308
300.3216
300.3353
300.3489
300.3626
300.3763
300.3899
300.4036
300.4173
300.4309
300.4446
300.4583
300.472
300.4856
300.4993
300.513
300.5267
300.5404
300.554
300.5677
300.5814
300.5951
300.6088
300.6225
300.6362
300.6499
300.6636
300.6773
300.691
300.7047
300.7184
300.7322
300.7459
300.7596
300.7733
300.787
300.8007
300.8145
300.8282
300.8419
300.8556
300.8694
300.8831
300.8968
300.9106
300.9243
300.9381
300.9518
300.9655
300.9793
300.993
301.0068
301.0205
301.0343
301.048
301.0618
301.0756
301.0893
301.1031
301.1169
301.1306
301.1444
301.1582
301.1719
301.1857
301.1995
301.2133
301.227
301.2408
301.2546
301.2684
301.2822
301.2959
301.3097
301.3235
301.3373
)
;
        refGradient     uniform 0;
        valueFraction   nonuniform List<scalar> 
100
(
0.4615385
0.4615385
0.4615385
0.4615385
0.4615385
0.4615385
0.4615385
0.4615385
0.4615385
0.4615385
0.4615385
0.4615385
0.4615385
0.4615385
0.4615385
0.4615385
0.4615385
0.4615385
0.4615385
0.4615385
0.4615385
0.4615385
0.4615385
0.4615385
0.4615385
0.4615385
0.4615385
0.4615385
0.4615385
0.4615385
0.4615385
0.4615385
0.4615385
0.4615385
0.4615385
0.4615385
0.4615385
0.4615385
0.4615385
0.4615385
0.4615385
0.4615385
0.4615385
0.4615385
0.4615385
0.4615385
0.4615385
0.4615385
0.4615385
0.4615385
0.4615385
0.4615385
0.4615385
0.4615385
0.4615385
0.4615385
0.4615385
0.4615385
0.4615385
0.4615385
0.4615385
0.4615385
0.4615385
0.4615385
0.4615385
0.4615385
0.4615385
0.4615385
0.4615385
0.4615385
0.4615385
0.4615385
0.4615385
0.4615385
0.4615385
0.4615385
0.4615385
0.4615385
0.4615385
0.4615385
0.4615385
0.4615385
0.4615385
0.4615385
0.4615385
0.4615385
0.4615385
0.4615385
0.4615385
0.4615385
0.4615385
0.4615385
0.4615385
0.4615385
0.4615385
0.4615385
0.4615385
0.4615385
0.4615385
0.4615385
)
;
        value           nonuniform List<scalar> 
100
(
324.7571
324.7866
324.8057
324.8173
324.8293
324.8421
324.8549
324.8677
324.8805
324.8933
324.9061
324.9189
324.9318
324.9446
324.9575
324.9703
324.9832
324.996
325.0089
325.0217
325.0345
325.0474
325.0602
325.0731
325.0859
325.0987
325.1116
325.1244
325.1373
325.1501
325.163
325.1758
325.1886
325.2015
325.2143
325.2272
325.24
325.2529
325.2657
325.2786
325.2914
325.3043
325.3172
325.33
325.3429
325.3557
325.3686
325.3815
325.3944
325.4072
325.4201
325.433
325.4458
325.4587
325.4716
325.4845
325.4974
325.5103
325.5231
325.536
325.5489
325.5618
325.5747
325.5876
325.6005
325.6134
325.6263
325.6392
325.6521
325.665
325.6779
325.6909
325.7038
325.7167
325.7296
325.7425
325.7555
325.7684
325.7813
325.7942
325.8072
325.8201
325.8331
325.846
325.8589
325.8719
325.8848
325.8977
325.9107
325.9236
325.9365
325.9494
325.9622
325.975
325.9876
326.0002
326.0125
326.0244
326.0357
326.0454
)
;
        Tnbr            T;
        thicknessLayers 0();
        kappaLayers     0();
        kappa           solidThermo;
        kappaName       none;
    }
}


// ************************************************************************* //
