/*--------------------------------*- C++ -*----------------------------------*\
| =========                 |                                                 |
| \\      /  F ield         | OpenFOAM: The Open Source CFD Toolbox           |
|  \\    /   O peration     | Version:  2.3.0                                 |
|   \\  /    A nd           | Web:      www.OpenFOAM.org                      |
|    \\/     M anipulation  |                                                 |
\*---------------------------------------------------------------------------*/
FoamFile
{
    version     2.0;
    format      ascii;
    class       volScalarField;
    location    "10";
    object      alphat;
}
// * * * * * * * * * * * * * * * * * * * * * * * * * * * * * * * * * * * * * //

dimensions      [1 -1 -1 0 0 0 0];

internalField   nonuniform List<scalar> 
26600
(
3.21549e-05
6.12467e-05
8.65369e-05
0.000106123
0.000121287
0.000132982
0.000142071
0.000149064
0.000154911
0.000160163
0.000165611
0.000171051
0.000176502
0.000181538
0.000186384
0.00019117
0.000195847
0.000200501
0.00020512
0.000209628
0.000214053
0.000218233
0.000222025
0.00022567
0.000229116
0.00023208
0.000234696
0.000237099
0.000239132
0.000240988
0.000242738
0.000244427
0.000246071
0.000247652
0.000249239
0.000250891
0.000252632
0.000254293
0.000255763
0.000263317
0.000283969
9.04516e-05
5.68468e-05
5.22143e-05
5.88072e-05
8.01977e-05
0.0001276
0.000225682
0.000374448
0.000533827
0.000665003
0.00075719
0.000817213
0.00085564
0.000870175
0.000868723
0.000859081
0.000846625
0.000830282
0.000808497
0.000788322
0.00076594
0.000738824
0.000718655
0.000695402
0.000670982
0.000643926
0.00062431
0.000595117
0.000576622
0.000564917
0.000547937
0.000533111
0.000514543
0.000499758
0.00048052
0.000464958
0.000442581
0.000434922
0.000409922
0.00108098
0.000848586
0.000906925
0.000942988
0.00103022
0.00143203
0.00196773
0.00242989
0.00275044
0.00293759
0.00300578
0.00299798
0.00291191
0.00279239
0.00264535
0.00249985
0.00234511
0.0022079
0.00207346
0.00192145
0.00181114
0.00170626
0.00157738
0.00152423
0.00146405
0.00139645
0.00131996
0.00125395
0.00119045
0.00112765
0.0010575
0.000998424
0.000942465
0.000896482
0.000844646
0.000795883
0.000754349
0.000710341
0.00067539
0.000589647
0.000861469
0.00107802
0.00163302
0.00181236
0.00243347
0.00342453
0.00394979
0.00431254
0.00452859
0.00461189
0.00457235
0.00443179
0.00419871
0.00395159
0.00367531
0.00343915
0.00316814
0.00293114
0.00273203
0.00245702
0.00233671
0.00218884
0.00205958
0.00194133
0.00179757
0.00166487
0.00153413
0.00143089
0.00131399
0.00120678
0.00114673
0.00107216
0.000993596
0.000926181
0.000829258
0.000774875
0.000707823
0.000662569
0.000621465
0.000551801
0.000817633
0.00132641
0.00185266
0.00231205
0.00351367
0.00430428
0.00476238
0.0050633
0.00521816
0.00521997
0.00507163
0.004834
0.00450135
0.00422512
0.00385284
0.00357099
0.00324462
0.00292873
0.00274995
0.00247968
0.00228492
0.00213198
0.00191572
0.00172182
0.00160973
0.00147096
0.00131755
0.001189
0.00103208
0.000941987
0.000848967
0.00075315
0.000663088
0.000584418
0.000506383
0.000441525
0.000386623
0.000348956
0.000307361
0.000361438
0.000839856
0.0014822
0.0018078
0.0027098
0.00416986
0.00474428
0.00510301
0.00530722
0.00530902
0.00517823
0.00497772
0.00464458
0.00426528
0.00391696
0.00340452
0.00313259
0.00287767
0.0025201
0.00226547
0.00202899
0.00183614
0.00164672
0.00139813
0.00124622
0.0010772
0.000925651
0.000777292
0.000641781
0.000557149
0.000473804
0.00041872
0.00036431
0.000315908
0.000274981
0.000239568
0.000212287
0.000196045
0.000191865
0.000190345
0.000209139
0.000995548
0.00125836
0.00186689
0.00344913
0.00454376
0.00499381
0.00521652
0.00521102
0.00510702
0.0048539
0.00450921
0.00411086
0.00359254
0.00317406
0.00279867
0.00240023
0.00212294
0.00182802
0.00149621
0.0012864
0.00105204
0.000899683
0.000761461
0.000646297
0.000522794
0.000420758
0.00032686
0.000257475
0.000229462
0.000204148
0.000197824
0.000187114
0.000177327
0.000178696
0.000191964
0.00021737
0.000241807
0.000274867
0.000300048
0.000313399
0.000835129
0.00119183
0.00217516
0.0041064
0.00481952
0.00511236
0.00509574
0.00497756
0.00466346
0.00419423
0.00382828
0.00324264
0.00290225
0.00234363
0.00192312
0.00153102
0.00119641
0.000913476
0.000722668
0.00057032
0.000423627
0.000376572
0.000316508
0.000246337
0.00019282
0.000165117
0.000153552
0.000143593
0.000149959
0.000170626
0.000188602
0.000211525
0.00024324
0.000273962
0.000311371
0.00034407
0.000366823
0.000406652
0.00043423
0.000484967
0.000823356
0.00129021
0.00297065
0.00444163
0.00494748
0.00498589
0.00486427
0.00446173
0.00394095
0.0033665
0.00290085
0.00241773
0.00196223
0.00140625
0.000988422
0.000685917
0.000482663
0.000328066
0.000244338
0.000175967
0.000146534
0.000128284
0.000110883
0.000112618
0.000125069
0.000148688
0.000176992
0.000190959
0.000219579
0.000253233
0.000273419
0.000302504
0.000338294
0.000379601
0.000413308
0.000447814
0.000484654
0.000512264
0.000543922
0.00057438
0.000816149
0.00152275
0.00362224
0.0044963
0.00475258
0.00473504
0.00431818
0.00372836
0.00301575
0.00253875
0.00198282
0.00137301
0.000904797
0.000594358
0.000343681
0.000204393
0.000124354
8.10983e-05
6.70457e-05
6.36379e-05
7.03896e-05
8.97855e-05
0.000113984
0.000151292
0.000176405
0.000199312
0.000224461
0.000253613
0.000297763
0.000317804
0.000337003
0.00036476
0.000386222
0.000411403
0.00043819
0.000467829
0.000494858
0.000524458
0.000553999
0.000592631
0.000820473
0.00197845
0.00386452
0.00423053
0.00445765
0.00412313
0.00353075
0.00277436
0.00217611
0.00159707
0.000902566
0.000524811
0.000260994
0.000142866
7.82151e-05
4.89684e-05
4.16154e-05
4.95657e-05
6.15397e-05
8.70812e-05
0.000103344
0.000136031
0.000167552
0.000184947
0.000203293
0.000210824
0.000223748
0.000236027
0.000250889
0.000265667
0.000285446
0.000314297
0.000347518
0.000381249
0.000409514
0.00043503
0.000463078
0.000493476
0.000513226
0.000542885
0.000976721
0.0029211
0.00355346
0.00391676
0.00376066
0.00322446
0.00253043
0.00186104
0.00111721
0.000532872
0.000215726
0.000101934
5.50402e-05
3.1648e-05
2.84113e-05
4.13412e-05
6.17244e-05
7.29546e-05
0.000101116
0.000115928
0.000129886
0.000141138
0.000132335
0.000130685
0.000148031
0.000182752
0.000215927
0.000251314
0.000294922
0.000337401
0.000384071
0.000433092
0.000477397
0.00051104
0.000536532
0.000558315
0.000574192
0.000590314
0.00059782
0.000607631
0.00222439
0.00339713
0.00332895
0.00318543
0.00275864
0.00215887
0.00160137
0.000715433
0.000218445
8.05973e-05
4.12347e-05
2.07078e-05
1.95219e-05
3.56141e-05
4.786e-05
7.25875e-05
8.2518e-05
9.25009e-05
8.24311e-05
7.78687e-05
8.32724e-05
0.000113005
0.000169773
0.000232647
0.000313406
0.000379286
0.000440874
0.000499263
0.000553384
0.000608237
0.000660042
0.00070565
0.000742307
0.000766441
0.000781033
0.000789175
0.000793634
0.000795134
0.000790674
0.000786176
0.00475184
0.00332059
0.00265631
0.00214784
0.00164834
0.00116241
0.000373477
9.99409e-05
3.44551e-05
1.61106e-05
1.11814e-05
2.02164e-05
3.32351e-05
5.63401e-05
6.24582e-05
5.95945e-05
5.45624e-05
5.71926e-05
8.51938e-05
0.000132756
0.00020176
0.00028102
0.000379191
0.000487382
0.000586657
0.000670679
0.000738042
0.000794863
0.000845985
0.000891663
0.000930257
0.000961456
0.000985129
0.00100137
0.0010112
0.00101575
0.00101539
0.00101008
0.00100181
0.000999189
0.00402223
0.00251423
0.0016608
0.00105346
0.000502637
0.000148497
3.61347e-05
1.62577e-05
8.61076e-06
9.89767e-06
2.27446e-05
4.27731e-05
4.89137e-05
4.41831e-05
3.72408e-05
4.19743e-05
7.62143e-05
0.000131078
0.00019806
0.000309941
0.00046713
0.000608194
0.000719526
0.000806181
0.000881071
0.000944192
0.000995787
0.00103738
0.00107255
0.00110589
0.00113402
0.00115634
0.00117313
0.00118419
0.00119031
0.00119227
0.00119091
0.00118699
0.00118263
0.00118693
0.00242168
0.00133017
0.000488413
0.000152139
3.93939e-05
1.3576e-05
6.04411e-06
5.14344e-06
1.20366e-05
2.01932e-05
3.6239e-05
3.99402e-05
2.91439e-05
3.03303e-05
4.95263e-05
8.94011e-05
0.000148361
0.000288948
0.000474956
0.00061256
0.000724515
0.000821671
0.000911589
0.000985234
0.00105248
0.00110848
0.00115354
0.00119321
0.00122552
0.00125276
0.0012754
0.00129362
0.00130777
0.00131779
0.00132412
0.00132739
0.00132835
0.0013282
0.00133018
0.00134049
0.000667784
0.000186928
5.02282e-05
1.59521e-05
5.14738e-06
3.03586e-06
4.76092e-06
1.27549e-05
2.36564e-05
2.92416e-05
3.17514e-05
2.52209e-05
2.81494e-05
5.39484e-05
9.00287e-05
0.000173964
0.000375511
0.000545883
0.000679243
0.000795531
0.000897293
0.000981003
0.00105981
0.00112278
0.0011841
0.00123662
0.00127595
0.00130614
0.00133398
0.0013587
0.00137885
0.00139541
0.00140912
0.0014199
0.00142815
0.00143458
0.00144
0.00144586
0.00145444
0.00146962
0.000103135
2.39179e-05
8.76685e-06
2.94088e-06
2.5063e-06
5.70918e-06
1.53423e-05
2.49364e-05
2.7955e-05
2.21339e-05
1.91912e-05
2.84953e-05
5.58518e-05
9.24712e-05
0.000192889
0.000416133
0.000579619
0.000725296
0.000847932
0.00094988
0.00103871
0.00111391
0.00118453
0.00123868
0.00129293
0.00133481
0.0013646
0.00138841
0.00141573
0.00144009
0.00145871
0.00147484
0.00148947
0.00150269
0.00151469
0.00152579
0.00153662
0.00154828
0.00156256
0.00158175
1.46098e-05
3.7589e-06
2.04104e-06
2.2529e-06
6.56473e-06
1.73822e-05
2.49971e-05
2.7669e-05
1.76194e-05
1.64381e-05
3.06935e-05
5.72731e-05
9.40652e-05
0.000209956
0.000441233
0.000601934
0.000753776
0.000882279
0.000987426
0.00108094
0.00116091
0.0012259
0.00128921
0.00133026
0.0013707
0.00140517
0.00143228
0.00145591
0.00147841
0.00150423
0.00152558
0.0015431
0.00156011
0.00157643
0.00159224
0.00160785
0.00162378
0.00164078
0.00165993
0.00168235
1.40184e-05
3.89539e-06
3.84735e-06
7.01237e-06
2.03991e-05
2.62337e-05
2.9839e-05
1.56749e-05
1.57425e-05
3.40282e-05
5.90593e-05
0.000100227
0.000227244
0.000458808
0.000607885
0.000764633
0.000899514
0.00101054
0.00111123
0.00118951
0.00126305
0.00131293
0.00135923
0.00139739
0.00143158
0.00146257
0.0014899
0.00151447
0.00153723
0.00156294
0.00158584
0.0016056
0.00162538
0.0016451
0.00166484
0.00168484
0.00170543
0.00172704
0.00175021
0.0017753
1.20601e-05
1.16963e-05
1.83478e-05
3.77695e-05
3.64669e-05
2.89438e-05
1.73634e-05
1.94772e-05
3.84089e-05
6.66791e-05
0.00012021
0.00025296
0.000472447
0.000602831
0.000758541
0.000901383
0.00102633
0.00112047
0.00121349
0.00127612
0.00132876
0.00137597
0.00141621
0.00145346
0.00148695
0.00151692
0.00154396
0.00156907
0.00159294
0.00161896
0.00164316
0.00166586
0.00168876
0.00171195
0.00173548
0.00175948
0.00178411
0.00180955
0.00183596
0.00186325
2.77577e-05
9.24156e-06
9.10922e-06
1.15884e-05
1.51113e-05
1.94622e-05
3.13776e-05
6.23989e-05
9.90396e-05
0.000187155
0.000310836
0.000486218
0.000592817
0.000740651
0.000897606
0.00103042
0.00112251
0.00121242
0.00127734
0.00133464
0.00138575
0.00143118
0.00147119
0.00150671
0.00153898
0.00156857
0.00159614
0.00162245
0.00164811
0.00167495
0.0017009
0.00172656
0.00175255
0.00177898
0.00180592
0.00183339
0.0018614
0.00188991
0.00191889
0.00194797
0.000405816
8.67657e-05
2.9753e-05
3.27664e-05
4.5557e-05
7.75978e-05
0.000122248
0.00018386
0.000302722
0.000396086
0.000485438
0.000581971
0.000717926
0.000887215
0.00101836
0.00111318
0.00119398
0.00126674
0.00133302
0.00139211
0.00144154
0.00148473
0.00152324
0.00155806
0.00159022
0.00162035
0.00164911
0.00167706
0.00170468
0.00173275
0.00176088
0.00178922
0.00181799
0.00184728
0.00187711
0.00190743
0.00193812
0.00196905
0.00200002
0.00203057
0.000736718
0.000449464
0.000209752
0.000194052
0.000245441
0.000291215
0.0003198
0.000339119
0.000414132
0.000491793
0.000572335
0.000702921
0.000859806
0.000995106
0.00108241
0.00116821
0.00125233
0.00132718
0.00139437
0.00144837
0.0014955
0.00153734
0.00157526
0.0016102
0.00164296
0.00167417
0.00170457
0.00173443
0.00176379
0.00179359
0.00182378
0.00185441
0.00188556
0.00191723
0.00194938
0.00198192
0.00201468
0.00204744
0.00207994
0.00211165
0.000678482
0.000621135
0.000525586
0.000496202
0.000520035
0.000469621
0.000393261
0.000387072
0.000491406
0.000578524
0.000700779
0.000827361
0.000946668
0.00103588
0.00114129
0.00124048
0.00132256
0.00139332
0.00145371
0.00150465
0.00155008
0.00159125
0.0016292
0.00166475
0.00169855
0.00173118
0.00176383
0.00179491
0.00182605
0.00185758
0.0018896
0.00192213
0.00195518
0.00198871
0.00202264
0.00205684
0.00209112
0.00212524
0.00215884
0.0021914
0.000693521
0.000631771
0.000515661
0.000400345
0.000476997
0.000489407
0.000445622
0.000495922
0.000589317
0.000683186
0.000791478
0.000886082
0.000988404
0.00110929
0.00122033
0.00131573
0.00139415
0.00146091
0.00151387
0.00156246
0.00160676
0.00164771
0.0016861
0.00172254
0.00175757
0.00179216
0.00182633
0.00185869
0.00189133
0.00192437
0.00195789
0.0019919
0.00202639
0.00206129
0.00209651
0.00213188
0.00216723
0.00220227
0.00223661
0.00226983
0.000834446
0.000462336
0.000287837
0.000316427
0.000525532
0.000587491
0.000551437
0.000593705
0.00066619
0.000735981
0.000832048
0.000928972
0.00105593
0.00117991
0.00129103
0.00138386
0.00145925
0.00152299
0.00157535
0.00162257
0.00166619
0.00170721
0.00174623
0.0017836
0.00182018
0.001857
0.00189125
0.00192506
0.00195898
0.00199322
0.00202788
0.00206297
0.00209848
0.00213432
0.00217039
0.00220655
0.00224257
0.00227815
0.00231297
0.00234672
0.0013132
0.000436899
0.000280682
0.000458547
0.000637083
0.000631348
0.000598632
0.000635491
0.000690975
0.000770064
0.000859782
0.000995743
0.00113462
0.00126275
0.00137117
0.00145874
0.00152913
0.00158832
0.00163914
0.00168516
0.00172831
0.00176954
0.00180919
0.00184746
0.00188606
0.00192357
0.00195838
0.00199317
0.00202804
0.00206315
0.00209861
0.00213442
0.00217057
0.00220699
0.00224358
0.00228017
0.00231652
0.00235238
0.00238752
0.00242168
0.00048405
0.000206057
0.000349265
0.000574997
0.00065867
0.000633522
0.000603199
0.000629331
0.000682989
0.000777258
0.000921773
0.00108173
0.00123056
0.00135689
0.00145789
0.00153765
0.00160202
0.0016564
0.00170492
0.00174965
0.00179241
0.00183385
0.0018741
0.00191406
0.00195366
0.00199043
0.00202628
0.00206184
0.00209737
0.00213305
0.00216899
0.00220522
0.00224172
0.00227844
0.00231526
0.00235198
0.00238842
0.00242439
0.00245972
0.00249419
0.000180013
0.000160842
0.00041094
0.000570392
0.000575404
0.000541764
0.000539959
0.000582634
0.000681012
0.000836009
0.00101955
0.0011932
0.00134026
0.00145672
0.00154651
0.00161723
0.00167528
0.00172648
0.00177144
0.00181486
0.00185727
0.0018989
0.00194038
0.00198178
0.00202011
0.00205735
0.00209378
0.00212982
0.00216575
0.00220174
0.00223792
0.00227433
0.00231095
0.00234774
0.00238454
0.00242119
0.00245757
0.00249354
0.00252896
0.00256366
0.000258723
0.000153596
0.000350586
0.000430979
0.000413874
0.000412818
0.000463764
0.000569409
0.000746056
0.000952955
0.00115172
0.00131981
0.00145325
0.0015551
0.00163215
0.00169411
0.00174603
0.00179311
0.00183665
0.0018792
0.00192139
0.00196346
0.00200722
0.00204693
0.00208541
0.00212288
0.0021596
0.00219587
0.00223196
0.00226807
0.0023043
0.00234071
0.00237729
0.00241395
0.00245056
0.00248704
0.00252326
0.00255915
0.00259457
0.00262943
0.000443461
0.000220965
0.000252049
0.000276431
0.000281939
0.000333446
0.000465576
0.000662535
0.000891659
0.00111284
0.00129953
0.00144695
0.00156004
0.00164592
0.00171185
0.00176568
0.0018128
0.00185683
0.00189907
0.00194109
0.00198329
0.002027
0.00207057
0.0021097
0.00214813
0.00218565
0.00222244
0.00225877
0.00229487
0.00233094
0.0023671
0.00240339
0.00243978
0.00247618
0.00251253
0.00254875
0.00258477
0.00262051
0.00265589
0.00269085
0.000593749
0.000392324
0.000321679
0.000329931
0.00033651
0.000445309
0.000641401
0.00086116
0.00107814
0.00127502
0.00143552
0.00155944
0.00165376
0.00172586
0.00178269
0.00183004
0.00187442
0.00191584
0.00195718
0.00199895
0.00204223
0.00208783
0.002129
0.0021685
0.00220692
0.0022444
0.00228114
0.0023174
0.00235341
0.00238936
0.00242535
0.00246143
0.00249754
0.00253363
0.00256968
0.00260561
0.00264138
0.00267694
0.00271225
0.00274726
0.000579287
0.000529486
0.000501816
0.000531108
0.000547085
0.000692226
0.000882458
0.00106544
0.00124368
0.00140797
0.00154297
0.00164841
0.00172929
0.00179243
0.00184315
0.00188597
0.00192791
0.00196858
0.00200968
0.00205172
0.00209719
0.00214243
0.00218281
0.00222229
0.00226066
0.00229804
0.00233466
0.00237078
0.00240664
0.00244241
0.00247819
0.002514
0.0025498
0.00258557
0.00262129
0.00265693
0.00269245
0.00272782
0.00276303
0.00279805
0.000564215
0.000565015
0.000599213
0.0006955
0.000741286
0.000937754
0.00110214
0.00124147
0.00138113
0.00151553
0.00162872
0.00171931
0.00178995
0.00184633
0.00189285
0.00193309
0.0019738
0.00201424
0.00205547
0.00209913
0.0021469
0.00218967
0.00223051
0.00227004
0.00230835
0.00234562
0.00238209
0.00241805
0.00245373
0.0024893
0.00252485
0.00256037
0.00259586
0.00263132
0.00266674
0.00270209
0.00273736
0.00277255
0.00280765
0.00284266
0.000556698
0.000567165
0.000628897
0.000773722
0.000865892
0.00111654
0.00126434
0.00137626
0.00148835
0.00159974
0.00169568
0.00177443
0.00183746
0.00188899
0.00193231
0.0019715
0.00201173
0.00205237
0.00209412
0.0021401
0.00218849
0.00223049
0.0022714
0.00231095
0.0023492
0.00238635
0.00242268
0.00245848
0.00249398
0.00252936
0.00256467
0.00259992
0.00263513
0.00267031
0.00270545
0.00274054
0.00277559
0.0028106
0.00284559
0.00288058
0.000552963
0.000564091
0.000633901
0.000794804
0.000937027
0.00123428
0.00137697
0.00147439
0.00156857
0.00166367
0.00174671
0.00181627
0.00187345
0.00192154
0.00196264
0.00200155
0.00204167
0.00208269
0.00212541
0.00217386
0.00222183
0.00226376
0.00230477
0.00234435
0.00238254
0.00241959
0.00245579
0.00249145
0.0025268
0.002562
0.0025971
0.00263213
0.0026671
0.00270203
0.00273694
0.00277181
0.00280667
0.00284153
0.00287642
0.00291138
0.000551289
0.000561588
0.000631972
0.000790814
0.000974071
0.0013062
0.00145118
0.00154214
0.00162564
0.00170981
0.00178379
0.0018466
0.00189929
0.00194496
0.00198453
0.00202352
0.00206376
0.00210525
0.00214946
0.00220029
0.00224587
0.00228878
0.00233005
0.00236969
0.00240785
0.00244483
0.00248093
0.00251647
0.0025517
0.00258676
0.0026217
0.00265654
0.00269133
0.00272607
0.00276079
0.00279549
0.0028302
0.00286494
0.00289976
0.00293468
0.000550644
0.000560161
0.000628929
0.00078006
0.00099172
0.00134703
0.00149571
0.00158414
0.00166172
0.00173932
0.00180762
0.00186615
0.00191597
0.0019599
0.00199851
0.00203763
0.00207818
0.00212009
0.00216552
0.0022173
0.00226218
0.00230541
0.00234685
0.00238655
0.0024247
0.00246163
0.00249766
0.00253313
0.00256827
0.00260324
0.00263807
0.00267279
0.00270744
0.00274205
0.00277665
0.00281124
0.00284586
0.00288051
0.00291525
0.00295016
0.000550582
0.000559933
0.000628137
0.000775797
0.00100094
0.00136515
0.00151636
0.00160384
0.0016788
0.00175339
0.00181904
0.00187551
0.0019239
0.00196699
0.00200504
0.00204418
0.0020848
0.0021269
0.00217289
0.00222499
0.00226968
0.002313
0.00235452
0.00239425
0.0024324
0.0024693
0.0025053
0.00254074
0.00257587
0.00261081
0.00264558
0.00268023
0.00271481
0.00274938
0.00278394
0.00281847
0.002853
0.00288762
0.00292236
0.00295725
0.000115064
0.000457285
0.000976755
0.00152674
0.00205938
0.00256243
0.00303389
0.00347509
0.00388837
0.00427627
0.00464122
0.00498539
0.00531062
0.00561853
0.00591048
0.00618763
0.00645094
0.00670119
0.00693903
0.00716498
0.00737944
0.00758275
0.00777515
0.00795685
0.00812795
0.00828853
0.00843862
0.00857825
0.00870739
0.00882603
0.00893412
0.00903162
0.00911846
0.00919458
0.00925994
0.00931447
0.00935812
0.00939083
0.00941251
0.00942265
0.000115015
0.000458518
0.000976843
0.00152656
0.00205948
0.00256292
0.00303475
0.00347626
0.00388983
0.00427799
0.0046432
0.0049877
0.00531324
0.00562146
0.00591376
0.00619127
0.00645495
0.00670559
0.00694384
0.00717019
0.00738508
0.0075888
0.0077816
0.00796374
0.00813525
0.00829623
0.00844671
0.0085867
0.0087162
0.00883517
0.00894357
0.00904134
0.00912843
0.00920478
0.00927033
0.00932503
0.00936881
0.00940163
0.00942338
0.00943354
0.000115067
0.000459919
0.000980322
0.00153101
0.00206452
0.00256842
0.00304067
0.00348259
0.00389655
0.0042851
0.00465081
0.00499558
0.0053215
0.00563016
0.00592292
0.00620092
0.00646513
0.00671632
0.00695513
0.00718207
0.00739755
0.00760186
0.00779521
0.00797801
0.00815013
0.00831169
0.00846273
0.00860327
0.00873328
0.00885274
0.0089616
0.00905979
0.00914727
0.00922396
0.0092898
0.00934475
0.00938873
0.0094217
0.00944354
0.00945375
0.000115107
0.000461617
0.000983072
0.00153513
0.00207004
0.00257516
0.00304844
0.00349125
0.00390599
0.00429526
0.00466159
0.00500705
0.00533362
0.00564293
0.00593635
0.00621504
0.00647994
0.00673184
0.00697138
0.00719907
0.0074153
0.0076204
0.00781462
0.00799804
0.00817086
0.00833312
0.00848485
0.00862605
0.0087567
0.00887675
0.00898616
0.00908487
0.00917281
0.00924992
0.00931612
0.00937137
0.0094156
0.00944875
0.00947071
0.00948097
0.000115201
0.000463438
0.000986702
0.00154013
0.00207631
0.00258268
0.00305712
0.003501
0.00391679
0.0043071
0.0046742
0.00502053
0.00534796
0.00565811
0.00595239
0.00623193
0.00649769
0.00675047
0.00699088
0.00721945
0.00743658
0.00764259
0.00783773
0.00802197
0.00819561
0.00835868
0.0085112
0.00865316
0.00878453
0.00890527
0.00901532
0.00911461
0.00920308
0.00928065
0.00934727
0.00940286
0.00944737
0.00948073
0.00950283
0.00951315
0.000115272
0.000465429
0.000990427
0.00154541
0.00208303
0.0025907
0.00306636
0.00351141
0.00392826
0.00431956
0.00468776
0.0050351
0.00536352
0.00567467
0.00596992
0.00625045
0.00651721
0.00677098
0.00701239
0.00724196
0.00746007
0.00766705
0.00786312
0.00804838
0.00822297
0.00838696
0.00854035
0.00868315
0.00881533
0.00893681
0.00904756
0.00914749
0.00923654
0.00931463
0.0093817
0.00943767
0.00948248
0.00951606
0.00953832
0.00954871
0.000115388
0.000467437
0.000994468
0.00155109
0.00209015
0.00259914
0.00307605
0.00352226
0.00394024
0.00433262
0.00470191
0.00505033
0.00537982
0.00569203
0.00598836
0.00626996
0.0065378
0.00679264
0.00703514
0.00726578
0.00748497
0.00769299
0.0078901
0.00807642
0.00825203
0.008417
0.00857135
0.00871505
0.00884808
0.00897037
0.00908186
0.00918248
0.00927215
0.0093508
0.00941834
0.00947471
0.00951985
0.00955368
0.00957609
0.00958655
0.000115487
0.000469594
0.000998671
0.00155701
0.00209757
0.00260793
0.00308609
0.00353347
0.00395259
0.00434609
0.00471648
0.00506601
0.0053966
0.00570992
0.00600736
0.00629009
0.00655905
0.00681504
0.00705868
0.00729046
0.00751076
0.00771986
0.00791812
0.00810554
0.00828223
0.00844823
0.00860357
0.00874822
0.00888214
0.00900528
0.00911756
0.0092189
0.00930922
0.00938844
0.00945649
0.00951328
0.00955876
0.00959284
0.00961542
0.00962597
0.000115615
0.000471753
0.00100303
0.00156317
0.00210529
0.002617
0.00309641
0.003545
0.00396525
0.00435986
0.00473137
0.00508201
0.00541372
0.00572818
0.00602676
0.00631064
0.00658077
0.00683793
0.00708274
0.00731571
0.00753721
0.00774748
0.00794689
0.00813542
0.00831319
0.00848027
0.00863663
0.00878227
0.00891713
0.00904114
0.00915423
0.00925632
0.00934731
0.00942713
0.0094957
0.00955293
0.00959876
0.00963311
0.00965587
0.00966649
0.000115733
0.000474018
0.00100754
0.00156953
0.00211322
0.00262632
0.003107
0.00355677
0.00397816
0.00437389
0.00474651
0.00509827
0.00543111
0.00574671
0.00604645
0.0063315
0.00660282
0.00686117
0.0071072
0.00734138
0.00756412
0.00777575
0.00797618
0.00816583
0.00834473
0.0085129
0.00867032
0.00881697
0.00895278
0.0090777
0.00919162
0.00929448
0.00938617
0.0094666
0.0095357
0.00959339
0.00963958
0.0096742
0.00969714
0.00970785
0.000115872
0.000476286
0.00101216
0.00157607
0.00212135
0.00263586
0.00311781
0.00356875
0.00399129
0.00438812
0.00476187
0.00511475
0.00544873
0.00576547
0.00606638
0.00635262
0.00662513
0.00688471
0.00713195
0.00736735
0.0075913
0.00780407
0.00800578
0.00819664
0.0083767
0.00854598
0.00870449
0.00885217
0.00898897
0.0091148
0.00922958
0.00933322
0.00942562
0.00950669
0.00957633
0.00963448
0.00968104
0.00971594
0.00973907
0.00974986
0.000116003
0.000478645
0.00101688
0.00158274
0.00212966
0.00264558
0.0031288
0.00358095
0.00400461
0.00440251
0.00477742
0.00513143
0.00546654
0.00578443
0.00608651
0.00637394
0.00664768
0.00690847
0.00715695
0.0073936
0.00761877
0.00783276
0.00803573
0.00822779
0.00840903
0.00857947
0.00873907
0.00888781
0.0090256
0.00915237
0.00926802
0.00937246
0.00946558
0.00954729
0.0096175
0.00967611
0.00972305
0.00975823
0.00978155
0.00979243
0.000116148
0.000481004
0.0010217
0.00158956
0.00213813
0.00265547
0.00313997
0.00359331
0.00401813
0.0044172
0.00479318
0.00514828
0.00548451
0.00580356
0.00610682
0.00639546
0.00667041
0.00693245
0.00718218
0.00742008
0.00764649
0.00786174
0.00806597
0.00825926
0.0084417
0.00861329
0.00877402
0.00892382
0.00906263
0.00919035
0.00930689
0.00941214
0.009506
0.00958836
0.00965913
0.00971822
0.00976554
0.00980102
0.00982452
0.00983549
0.000116292
0.00048343
0.00102662
0.0015965
0.00214673
0.00266551
0.00315129
0.00360581
0.0040318
0.00443212
0.00480907
0.00516526
0.00550263
0.00582284
0.00612729
0.00641714
0.00669333
0.00695663
0.00720763
0.00744678
0.00767442
0.007891
0.00809649
0.00829103
0.00847468
0.00864744
0.00880931
0.00896019
0.00910003
0.00922872
0.00934616
0.00945223
0.00954683
0.00962986
0.0097012
0.00976078
0.00980849
0.00984426
0.00986796
0.00987902
0.000116443
0.00048588
0.00103159
0.00160354
0.00215547
0.00267568
0.00316273
0.00361844
0.00404553
0.00444686
0.00482502
0.00518235
0.00552087
0.00584226
0.0061479
0.00643898
0.00671642
0.00698099
0.00723328
0.00747375
0.00770272
0.00792054
0.00812729
0.00832307
0.00850794
0.00868191
0.00884491
0.0089969
0.00913779
0.00926746
0.0093858
0.00949272
0.00958808
0.00967177
0.0097437
0.00980376
0.00985187
0.00988794
0.00991184
0.00992299
0.000116594
0.000488369
0.00103666
0.00161069
0.00216432
0.00268597
0.0031743
0.00363118
0.0040594
0.00446182
0.0048411
0.00519957
0.00553924
0.0058618
0.00616865
0.00646096
0.00673966
0.00700551
0.00725911
0.00750093
0.00773136
0.00795034
0.00815834
0.00835538
0.0085415
0.00871667
0.00888084
0.00903395
0.00917589
0.00930655
0.00942583
0.00953359
0.00962972
0.00971409
0.00978661
0.00984718
0.00989569
0.00993206
0.00995615
0.00996739
0.000116753
0.000490885
0.00104179
0.00161794
0.00217326
0.00269637
0.00318598
0.00364404
0.00407338
0.00447691
0.00485728
0.00521689
0.00555772
0.00588145
0.00618953
0.00648308
0.00676304
0.00703019
0.00728509
0.00752821
0.00775988
0.00798028
0.0081896
0.00838794
0.00857532
0.00875172
0.00891708
0.00907132
0.00921433
0.00934601
0.00946622
0.00957484
0.00967175
0.00975682
0.00982994
0.00989101
0.00993992
0.0099766
0.0100009
0.0100122
0.00011691
0.000493448
0.00104698
0.00162526
0.00218232
0.00270687
0.00319776
0.003657
0.00408746
0.00449209
0.00487358
0.00523431
0.00557629
0.00590123
0.00621052
0.00650532
0.00678657
0.00705502
0.00731124
0.00755569
0.00778868
0.00801044
0.00822111
0.00842076
0.00860942
0.00878707
0.00895363
0.00910902
0.00925312
0.00938582
0.00950699
0.00961648
0.00971418
0.00979995
0.00987368
0.00993525
0.00998459
0.0100216
0.0100461
0.0100575
0.000117072
0.000496027
0.00105223
0.00163267
0.00219146
0.00271746
0.00320963
0.00367005
0.00410163
0.00450736
0.00488996
0.00525182
0.00559497
0.0059211
0.00623162
0.00652768
0.00681023
0.00707999
0.00733755
0.00758335
0.0078177
0.00804082
0.00825285
0.00845383
0.0086438
0.00882271
0.00899049
0.00914704
0.00929226
0.00942599
0.00954812
0.00965851
0.009757
0.00984348
0.00991783
0.00997993
0.0100297
0.010067
0.0100917
0.0101032
0.000117235
0.000498644
0.00105755
0.00164015
0.00220067
0.00272814
0.00322159
0.00368317
0.00411588
0.00452271
0.00490639
0.00526941
0.00561373
0.00594106
0.00625282
0.00655017
0.00683402
0.00710512
0.00736403
0.00761117
0.00784693
0.00807144
0.00828483
0.00848717
0.00867846
0.00885864
0.00902766
0.0091854
0.00933173
0.00946653
0.00958964
0.00970092
0.00980023
0.00988743
0.0099624
0.010025
0.0100752
0.0101128
0.0101377
0.0101494
0.000117401
0.000501297
0.00106292
0.0016477
0.00220998
0.00273889
0.00323361
0.00369637
0.0041302
0.00453813
0.00492288
0.00528708
0.00563258
0.00596112
0.00627412
0.00657276
0.00685794
0.00713039
0.00739067
0.00763916
0.00787636
0.00810228
0.00831706
0.00852076
0.00871339
0.00889488
0.00906515
0.00922409
0.00937157
0.00950743
0.00963153
0.00974373
0.00984386
0.0099318
0.0100074
0.0100706
0.0101212
0.0101591
0.0101842
0.010196
0.000117568
0.000503972
0.00106835
0.00165533
0.00221935
0.00274971
0.0032457
0.00370963
0.00414458
0.00455364
0.00493957
0.00530486
0.0056515
0.00598125
0.00629552
0.00659545
0.00688198
0.00715581
0.00741751
0.00766744
0.00790603
0.00813335
0.00834953
0.00855462
0.00874861
0.00893142
0.00910297
0.00926312
0.00941176
0.0095487
0.00967382
0.00978694
0.00988791
0.00997658
0.0100528
0.0101165
0.0101676
0.0102058
0.0102312
0.010243
0.000117739
0.000506679
0.00107384
0.00166302
0.00222878
0.0027606
0.00325786
0.00372294
0.00415901
0.00456919
0.00495637
0.00532267
0.00567048
0.00600144
0.00631699
0.00661825
0.00690613
0.00718137
0.00744453
0.00769606
0.00793593
0.00816465
0.00838224
0.00858874
0.00878411
0.00896826
0.0091411
0.0093025
0.0094523
0.00959036
0.00971649
0.00983055
0.00993237
0.0100218
0.0100987
0.010163
0.0102144
0.010253
0.0102786
0.0102905
0.000117909
0.000509425
0.00107937
0.00167077
0.0022383
0.00277155
0.00327007
0.00373631
0.00417347
0.00458473
0.00497293
0.00534047
0.00568949
0.00602172
0.00633855
0.00664114
0.0069304
0.00720704
0.00747162
0.00772451
0.00796594
0.00819614
0.0084152
0.00862312
0.00881989
0.00900541
0.00917956
0.00934222
0.00949322
0.00963239
0.00975957
0.00987458
0.00997726
0.0100675
0.010145
0.0102098
0.0102618
0.0103007
0.0103265
0.0103385
0.000118083
0.00051219
0.00108496
0.00167858
0.00224786
0.00278256
0.00328233
0.00374972
0.00418799
0.00460034
0.00498964
0.00535835
0.00570858
0.00604205
0.00636019
0.00666413
0.00695478
0.00723285
0.00749886
0.00775322
0.00799615
0.00822785
0.00844839
0.00865777
0.00885596
0.00904287
0.00921836
0.0093823
0.0095345
0.00967481
0.00980304
0.00991902
0.0100226
0.0101136
0.0101918
0.0102572
0.0103096
0.0103488
0.0103749
0.010387
0.000118258
0.000514989
0.0010906
0.00168646
0.00225748
0.00279363
0.00329465
0.00376317
0.00420255
0.004616
0.0050064
0.00537628