/*--------------------------------*- C++ -*----------------------------------*\
| =========                 |                                                 |
| \\      /  F ield         | OpenFOAM: The Open Source CFD Toolbox           |
|  \\    /   O peration     | Version:  2.3.0                                 |
|   \\  /    A nd           | Web:      www.OpenFOAM.org                      |
|    \\/     M anipulation  |                                                 |
\*---------------------------------------------------------------------------*/
FoamFile
{
    version     2.0;
    format      ascii;
    class       volScalarField;
    location    "10";
    object      dQ;
}
// * * * * * * * * * * * * * * * * * * * * * * * * * * * * * * * * * * * * * //

dimensions      [1 2 -3 0 0 0 0];

internalField   nonuniform List<scalar> 
26600
(
3.2836e-19
5.68577e-16
1.84594e-14
2.24906e-13
2.00543e-12
1.38945e-11
6.17751e-11
1.92793e-10
4.71639e-10
1.02361e-09
1.81404e-09
3.05738e-09
4.67762e-09
6.78259e-09
9.41431e-09
1.27288e-08
1.6983e-08
2.23823e-08
2.85441e-08
3.65121e-08
4.6884e-08
6.06399e-08
7.84952e-08
1.00816e-07
1.30094e-07
1.6997e-07
2.25023e-07
3.00458e-07
4.01845e-07
5.31381e-07
6.91739e-07
8.90652e-07
1.13375e-06
1.4402e-06
1.81097e-06
2.25109e-06
2.75561e-06
3.35595e-06
4.10383e-06
5.31086e-06
1.15455e-16
8.2621e-15
1.81715e-13
1.60679e-12
1.11983e-11
6.24008e-11
2.1985e-10
5.55376e-10
1.11769e-09
2.17681e-09
3.38503e-09
5.83266e-09
8.92019e-09
1.31116e-08
1.9381e-08
2.71362e-08
4.06753e-08
5.67742e-08
8.69203e-08
1.32764e-07
2.00541e-07
3.23171e-07
5.44651e-07
8.87026e-07
1.64028e-06
2.71995e-06
5.33292e-06
7.87004e-06
1.58044e-05
2.31402e-05
2.89239e-05
3.96352e-05
5.20374e-05
7.39394e-05
9.81397e-05
0.000134722
0.000177466
0.000228528
0.000360009
5.67689e-05
3.00091e-15
1.07061e-13
1.68291e-12
1.3024e-11
7.21824e-11
2.59265e-10
7.20883e-10
1.66773e-09
3.16444e-09
5.82726e-09
1.01535e-08
1.65079e-08
2.86012e-08
4.47375e-08
8.26719e-08
1.30683e-07
2.53476e-07
4.35487e-07
7.90519e-07
1.83932e-06
3.24316e-06
6.84903e-06
2.02156e-05
3.09573e-05
4.91173e-05
8.84161e-05
0.00017558
0.000317767
0.000564498
0.000923522
0.00180593
0.00312882
0.00524747
0.0080225
0.0119694
0.0178377
0.0218879
0.0301613
0.0333818
0.0474851
1.79825e-14
6.09758e-13
7.90735e-12
5.19154e-11
2.47843e-10
7.94812e-10
1.89235e-09
3.88163e-09
7.182e-09
1.30456e-08
2.46088e-08
4.48267e-08
9.60387e-08
1.8287e-07
4.6352e-07
9.09555e-07
2.3752e-06
5.50404e-06
1.20365e-05
4.76283e-05
8.19787e-05
0.000181051
0.000361391
0.000670204
0.00171714
0.00412678
0.00923636
0.0169374
0.030988
0.0498299
0.0586064
0.0709257
0.0818976
0.092336
0.110473
0.162596
0.302968
0.516282
0.792814
1.02988
8.76937e-14
2.50411e-12
2.6856e-11
1.78539e-10
7.06883e-10
1.87836e-09
4.05681e-09
8.00836e-09
1.52723e-08
3.18834e-08
7.11615e-08
1.65196e-07
5.09463e-07
1.29397e-06
5.24928e-06
1.28889e-05
4.62046e-05
0.000161007
0.000291251
0.000846734
0.0023801
0.005157
0.0140669
0.0374075
0.0615266
0.0990958
0.161117
0.279638
0.519104
0.884264
1.45787
2.43458
3.09914
3.88426
4.33585
4.96196
5.26044
5.1762
5.04688
0
3.73462e-13
8.60145e-12
9.26182e-11
5.23003e-10
1.69356e-09
4.03817e-09
8.37394e-09
1.70365e-08
3.68215e-08
1.04793e-07
3.06367e-07
1.0897e-06
5.6713e-06
2.07495e-05
0.000156376
0.000427199
0.000953864
0.00395508
0.0124147
0.0329569
0.0832375
0.168345
0.373236
0.813206
1.70216
2.96909
4.68812
5.67543
5.13905
4.71569
4.09827
4.2212
4.24347
4.86694
5.12923
4.91572
5.08282
5.48867
7.10896
5.80527
1.41886e-12
3.04865e-11
2.90128e-10
1.31647e-09
3.65721e-09
8.27167e-09
1.77089e-08
4.16616e-08
1.20939e-07
5.79061e-07
2.41725e-06
1.69225e-05
0.000160263
0.000899499
0.0031772
0.0180864
0.0557671
0.17586
0.531649
1.60037
2.54468
4.15418
4.97154
4.64601
4.14886
3.65009
4.14415
4.2229
3.63707
3.63868
3.80237
4.45962
6.50796
6.36992
2.18868
1.4837
1.15803
0.998631
0.662778
0.637849
4.95718e-12
1.03548e-10
7.92269e-10
2.8669e-09
7.35477e-09
1.69761e-08
4.23062e-08
1.38931e-07
7.05504e-07
6.90157e-06
4.20435e-05
0.00079013
0.00266905
0.0292449
0.167645
0.846731
2.48421
5.08216
5.1774
4.35967
57.0016
2.35045
2.76199
2.88187
3.02944
3.65561
5.26814
7.23395
2.05843
1.31904
1.07743
0.910413
0.50722
0.0863126
0.0357477
0.0288004
0.0264302
0.0253481
0.0227613
0.0218332
1.83231e-11
3.14323e-10
1.82201e-09
5.67218e-09
1.4454e-08
3.81707e-08
1.34966e-07
8.30769e-07
1.04926e-05
0.000209799
0.00168321
0.0172753
0.144895
1.42402
4.05443
5.79111
3.6306
3.4337
3.05036
2.54023
2.50278
3.21426
7.62513
3.35844
1.3049
0.869322
0.620994
0.101454
0.0368389
0.0273341
0.0256992
0.0263832
0.0253022
0.0179633
0.0119189
0.00829971
0.00597105
0.00522639
0.0051847
0.00603345
6.24799e-11
8.25782e-10
3.7126e-09
1.08285e-08
3.01477e-08
1.09302e-07
7.54468e-07
1.35176e-05
0.000536441
0.00386814
0.0508468
1.37257
4.25936
4.57656
3.26739
2.68213
2.17329
3.25029
5.38547
3.27081
0.960578
0.644138
0.16206
0.0478692
0.0370436
0.0342022
0.0290069
0.0164265
0.010472
0.00675782
0.00404618
0.00214389
0.00104667
0.000459443
0.000331914
0.000281999
0.000277505
0.000300297
0.000352181
0.000468596
2.19563e-10
2.01176e-09
7.28291e-09
2.14916e-08
7.58499e-08
5.20658e-07
1.15857e-05
0.000892629
0.00794238
0.167853
3.18471
5.0134
2.94977
2.05293
2.30908
5.76767
1.17878
0.430444
0.188199
0.0457356
0.033468
0.0362011
0.0260446
0.0124473
0.00250808
0.000551239
0.000179012
0.000115081
8.51983e-05
4.83768e-05
2.52712e-05
1.40583e-05
9.83305e-06
9.31358e-06
1.00358e-05
1.28822e-05
1.87395e-05
2.8046e-05
4.13149e-05
7.48409e-05
8.70508e-10
4.73355e-09
1.47452e-08
4.9068e-08
2.93129e-07
6.70604e-06
0.000831775
0.0168019
0.65216
4.67965
4.03792
2.19556
1.87955
4.68067
0.818762
0.0709074
0.0310048
0.0375785
0.0410352
0.0224461
0.00703667
0.00119791
7.98785e-05
2.03268e-05
7.82882e-06
1.89602e-06
7.84258e-07
4.33829e-07
2.62976e-07
2.35587e-07
2.38498e-07
2.70616e-07
3.68857e-07
6.07658e-07
1.09117e-06
2.08865e-06
4.09555e-06
8.06984e-06
1.56034e-05
3.26881e-05
3.28803e-09
1.09691e-08
3.29264e-08
1.59473e-07
2.95507e-06
0.000479431
0.0124722
1.62742
4.74832
2.66387
1.89144
5.21716
1.07951
0.0756682
0.0336396
0.0478081
0.0301524
0.00478582
0.00035808
5.52518e-05
1.20742e-05
1.18124e-06
8.92446e-08
1.99084e-08
3.46045e-09
2.63492e-09
3.00328e-09
4.4747e-09
7.68114e-09
1.40541e-08
2.73719e-08
5.61805e-08
1.20403e-07
2.69868e-07
6.21062e-07
1.44664e-06
3.36219e-06
7.73051e-06
1.78243e-05
4.26323e-05
8.48921e-09
2.4806e-08
9.575e-08
1.32471e-06
0.000210741
0.00766689
1.74898
5.14147
2.42261
1.85289
3.18702
0.236207
0.0407913
0.0478082
0.0354061
0.00272245
6.56789e-05
1.89715e-05
7.45449e-07
3.49734e-08
1.00581e-09
1.28252e-10
8.6325e-11
1.01035e-10
1.43978e-10
2.5981e-10
5.53204e-10
1.27137e-09
3.07984e-09
7.716e-09
1.96964e-08
5.0532e-08
1.31861e-07
3.45011e-07
8.97457e-07
2.30244e-06
5.78169e-06
1.41386e-05
3.38617e-05
8.0558e-05
1.87206e-08
6.40581e-08
6.84557e-07
0.000117073
0.00404864
1.56241
4.71251
1.8621
2.02865
2.01157
0.139878
0.0501086
0.0564487
0.00705964
9.13257e-05
1.27791e-05
4.81779e-07
9.05833e-10
3.61663e-11
7.69406e-12
5.96613e-12
7.0457e-12
1.17236e-11
2.22692e-11
6.22883e-11
1.74893e-10
4.99808e-10
1.48183e-09
4.35649e-09
1.2546e-08
3.55371e-08
9.90457e-08
2.72516e-07
7.37611e-07
1.95407e-06
5.03478e-06
1.25346e-05
2.99835e-05
6.87699e-05
0.000150753
4.08794e-08
3.28701e-07
9.78111e-05
0.00294586
1.64795
4.42601
1.8746
3.66567
1.19913
0.0974687
0.0842604
0.0400225
0.00108547
1.14429e-05
1.44317e-06
1.61287e-09
1.55533e-11
1.23281e-12
6.80566e-13
7.48033e-13
1.27382e-12
3.10264e-12
8.64206e-12
2.84895e-11
1.00408e-10
3.44814e-10
1.16088e-09
3.80153e-09
1.16479e-08
3.3856e-08
9.5836e-08
2.65397e-07
7.18222e-07
1.89304e-06
4.83553e-06
1.18943e-05
2.7972e-05
6.24178e-05
0.000131118
0.000256206
1.04413e-07
3.64665e-05
0.00561758
1.51829
4.53753
2.02258
4.31297
0.397882
0.0990555
0.0983883
0.00907827
8.70504e-05
7.86449e-06
1.30381e-07
7.1524e-11
1.13838e-12
1.52229e-13
1.18249e-13
1.63197e-13
3.37648e-13
1.04728e-12
4.59928e-12
1.73452e-11
8.23866e-11
3.18932e-10
1.14539e-09
4.03732e-09
1.35579e-08
3.99053e-08
1.0963e-07
2.96663e-07
7.85124e-07
2.01644e-06
5.00515e-06
1.19463e-05
2.72349e-05
5.88297e-05
0.000119286
0.000224567
0.000387037
3.30725e-07
0.00381157
1.60967
4.39663
2.37946
4.36849
0.368796
0.163527
0.0718414
0.000515337
6.70307e-05
1.94116e-06
9.59503e-10
3.78985e-12
1.69519e-13
3.51594e-14
3.64378e-14
3.7739e-14
7.81261e-14
4.8492e-13
2.33966e-12
1.29715e-11
6.53377e-11
3.69302e-10
1.295e-09
4.42914e-09
1.60392e-08
5.45171e-08
1.43754e-07
3.57749e-07
9.1653e-07
2.28505e-06
5.46717e-06
1.25432e-05
2.74798e-05
5.71042e-05
0.000111598
0.000203048
0.000340053
0.000517679
8.80912e-07
10.428
4.21571
2.3217
5.19713
0.516149
0.245665
0.0226941
8.60567e-05
7.42727e-06
1.51212e-08
3.4741e-11
4.0585e-13
3.12191e-14
8.09926e-15
1.67984e-14
-1.67629e-20
3.60618e-14
1.49308e-13
1.23565e-12
8.30394e-12
6.21021e-11
2.65263e-10
1.41738e-09
5.72429e-09
1.98583e-08
6.37926e-08
1.89703e-07
5.11337e-07
1.15731e-06
2.65503e-06
6.15001e-06
1.35429e-05
2.84185e-05
5.66235e-05
0.000106412
0.000187008
0.000304349
0.000454112
0.000615654
1.93038e-06
16.4839
4.91031
8.3643
1.46351
0.350512
0.000305653
1.96053e-05
3.14503e-07
1.32853e-10
1.40569e-12
6.89578e-14
7.16617e-15
0
-7.43588e-21
-7.71126e-21
-1.59833e-20
6.87689e-14
4.2709e-13
5.15451e-12
2.88129e-11
2.31995e-10
1.32093e-09
6.24919e-09
2.39746e-08
7.84287e-08
2.29718e-07
6.17318e-07
1.54223e-06
3.30555e-06
6.98329e-06
1.47787e-05
2.97204e-05
5.67715e-05
0.00010255
0.000173985
0.000275002
0.000401565
0.000537679
0.000657087
1.16629e-14
8.39835e-06
4.07298e-05
5.44045e-05
2.56162e-05
2.25893e-06
5.22356e-08
8.43189e-11
1.59399e-12
9.08977e-14
1.26143e-14
1.63985e-15
0
0
0
-3.66755e-21
-1.90045e-20
1.30829e-13
1.35419e-12
1.48654e-11
1.47593e-10
1.09241e-09
5.93576e-09
2.54854e-08
8.9559e-08
2.69188e-07
7.20328e-07
1.76372e-06
4.01972e-06
8.14868e-06
1.60957e-05
3.10314e-05
5.69182e-05
9.8965e-05
0.000162242
0.000249127
0.000355803
0.000469651
0.00057051
0.000637527
3.00674e-17
7.27383e-14
1.27143e-12
1.3142e-12
7.71294e-13
1.943e-13
4.05869e-14
7.94086e-15
1.37979e-15
7.18637e-16
0
0
0
0
0
-2.6096e-21
-4.59763e-20
2.48239e-13
6.03828e-12
7.62304e-11
7.19496e-10
4.79114e-09
2.35261e-08
9.06995e-08
2.88653e-07
7.91729e-07
1.93868e-06
4.34815e-06
9.07356e-06
1.73629e-05
3.19759e-05
5.64572e-05
9.47531e-05
0.000150443
0.000224763
0.000314162
0.000408642
0.000492743
0.000550189
0.000570692
0
0
1.00226e-15
1.04997e-15
1.0988e-15
0
0
0
0
0
0
0
0
0
-3.96732e-22
-4.11424e-21
1.13362e-13
1.64374e-12
3.00458e-11
3.79044e-10
3.16711e-09
1.84434e-08
8.00487e-08
2.75829e-07
7.94171e-07
1.98943e-06
4.47164e-06
9.23671e-06
1.77915e-05
3.20272e-05
5.47832e-05
8.91838e-05
0.000137675
0.000200694
0.000275021
0.000352766
0.000422162
0.000470735
0.00048989
0.000478583
0
0
0
0
0
0
0
0
0
0
0
0
0
0
-3.74061e-22
-1.39649e-20
3.20653e-13
8.31533e-12
1.5472e-10
1.68735e-09
1.20342e-08
6.05638e-08
2.31425e-07
7.14151e-07
1.86721e-06
4.29048e-06
8.88416e-06
1.69772e-05
3.04871e-05
5.13343e-05
8.17649e-05
0.000123436
0.000176308
0.000237565
0.00030103
0.000357814
0.00039849
0.000416194
0.000409187
0.000381604
0
0
0
0
0
0
0
0
0
0
0
0
0
0
-1.22987e-21
-7.3974e-20
1.80732e-12
4.60123e-11
6.98515e-10
6.4097e-09
3.86735e-08
1.68294e-07
5.68883e-07
1.58196e-06
3.77964e-06
8.00916e-06
1.52419e-05
2.73843e-05
4.59325e-05
7.23787e-05
0.000107701
0.000151584
0.000201646
0.000253108
0.000299304
0.000333177
0.000349378
0.000346047
0.000325472
0.000293221
0
0
0
0
0
0
0
0
0
0
0
0
0
-1.58384e-22
-7.06749e-21
2.719e-13
9.12188e-12
2.06636e-10
2.7002e-09
2.04593e-08
1.04616e-07
3.97009e-07
1.19837e-06
3.02932e-06
6.66031e-06
1.2987e-05
2.3119e-05
3.90523e-05
6.14784e-05
9.095e-05
0.000126983
0.000167597
0.000209126
0.000246596
0.000274756
0.00028949
0.000289054
0.000274625
0.000249851
0.000219499
0
0
0
0
0
0
0
0
0
0
0
0
0
-8.84767e-22
-7.51353e-20
2.10957e-12
5.62812e-11
9.10256e-10
8.82271e-09
5.47156e-08
2.39706e-07
8.03449e-07
2.18976e-06
5.08035e-06
1.02953e-05
1.85169e-05
3.15257e-05
4.99639e-05
7.4071e-05
0.000103305
0.00013603
0.000169434
0.000199811
0.000223252
0.000236605
0.000238328
0.000228926
0.000210746
0.000187104
0.00016149
0
0
0
0
0
0
0
0
0
0
0
0
-6.57408e-23
-7.64613e-21
3.01368e-13
1.14944e-11
2.46238e-10
3.08924e-09
2.36373e-08
1.23098e-07
4.70743e-07
1.41399e-06
3.51904e-06
7.554e-06
1.40894e-05
2.4004e-05
3.87676e-05
5.80576e-05
8.14392e-05
0.000107606
0.000134401
0.000159044
0.00017861
0.00019068
0.000193925
0.00018845
0.00017572
0.000158008
0.000137856
0.00011758
0
0
0
0
0
0
0
0
0
0
0
0
-4.83853e-22
-5.23815e-20
1.66355e-12
4.73477e-11
8.12719e-10
8.18759e-09
5.23595e-08
2.36243e-07
8.04652e-07
2.19718e-06
5.04406e-06
9.95989e-06
1.74665e-05
2.87039e-05
4.37303e-05
6.21169e-05
8.28407e-05
0.000104252
0.000124248
0.00014062
0.00015149
0.000155726
0.000153198
0.000144779
0.000132001
0.000116684
0.000100592
8.51629e-05
0
0
0
0
0
0
0
0
0
0
0
0
-2.87156e-21
1.21972e-13
5.76642e-12
1.50241e-10
2.0908e-09
1.73095e-08
9.80366e-08
3.94013e-07
1.21735e-06
3.0617e-06
6.47718e-06
1.19029e-05
2.02505e-05
3.1598e-05
4.57596e-05
6.19696e-05
7.89748e-05
9.51767e-05
0.000108882
0.000118615
0.000123411
0.000123007
0.000117881
0.000109041
9.77719e-05
8.53915e-05
7.30468e-05
6.15913e-05
0
0
0
0
0
0
0
0
0
0
0
-9.61557e-23
-1.12916e-20
4.41424e-13
1.67969e-11
3.68224e-10
4.41007e-09
3.20917e-08
1.5992e-07
5.82251e-07
1.65647e-06
3.86646e-06
7.50038e-06
1.34376e-05
2.17829e-05
3.24466e-05
4.49305e-05
5.83143e-05
7.13845e-05
8.28301e-05
9.14739e-05
9.64889e-05
9.75454e-05
9.48533e-05
8.90603e-05
8.10529e-05
7.18013e-05
6.22004e-05
5.2965e-05
4.45857e-05
0
0
0
0
0
0
0
0
0
0
0
-3.01119e-22
-3.23655e-20
1.18487e-12
3.92795e-11
7.34444e-10
7.78709e-09
5.1025e-08
2.30767e-07
7.74518e-07
2.05323e-06
4.42225e-06
8.20978e-06
1.41482e-05
2.19817e-05
3.14185e-05
4.18194e-05
5.228e-05
6.1783e-05
6.93792e-05
7.4355e-05
7.63481e-05
7.54014e-05
7.19008e-05
6.64479e-05
5.97441e-05
5.24747e-05
4.52225e-05
3.84209e-05
3.23456e-05
0
0
0
0
0
0
0
0
0
0
0
-6.45256e-22
4.19483e-14
2.35232e-12
7.21299e-11
1.22851e-09
1.17182e-08
7.13336e-08
2.99229e-07
9.40278e-07
2.31976e-06
4.6582e-06
8.5432e-06
1.40569e-05
2.1001e-05
2.89362e-05
3.72011e-05
4.50115e-05
5.1599e-05
5.63459e-05
5.88833e-05
5.91384e-05
5.73194e-05
5.38211e-05
4.91399e-05
4.37914e-05
3.82404e-05
3.28563e-05
2.78975e-05
2.35158e-05
0
0
0
0
0
0
0
0
0
0
0
-1.15134e-21
7.27105e-14
3.59091e-12
1.12671e-10
1.7771e-09
1.58114e-08
8.94873e-08
3.52921e-07
1.04809e-06
2.40425e-06
4.67863e-06
8.33939e-06
1.32316e-05
1.91059e-05
2.54967e-05
3.1808e-05
3.74199e-05
4.17987e-05
4.45824e-05
4.56272e-05
4.50091e-05
4.29766e-05
3.98706e-05
3.60713e-05
3.19415e-05
2.77878e-05
2.38408e-05
2.02528e-05
1.71057e-05
0
0
0
0
0
0
0
0
0
0
0
-1.67007e-21
9.22863e-14
5.33851e-12
1.51613e-10
2.25378e-09
1.89589e-08
1.01567e-07
3.81819e-07
1.06686e-06
2.30583e-06
4.48484e-06
7.6978e-06
1.18322e-05
1.65933e-05
2.15468e-05
2.62018e-05
3.01023e-05
3.29032e-05
3.44175e-05
3.46295e-05
3.36736e-05
3.17753e-05
2.92069e-05
2.62451e-05
2.31376e-05
2.0083e-05
1.72238e-05
1.4649e-05
1.24016e-05
0
0
0
0
0
0
0
0
0
0
-2.18979e-23
-2.04964e-21
1.25845e-13
6.27888e-12
1.77126e-10
2.52333e-09
2.03323e-08
1.04483e-07
3.77861e-07
9.96843e-07
2.09329e-06
4.00628e-06
6.69403e-06
1.00263e-05
1.37239e-05
1.74207e-05
2.07408e-05
2.33678e-05
2.50938e-05
2.58384e-05
2.56487e-05
2.46601e-05
2.30582e-05
2.10467e-05
1.88195e-05
1.65416e-05
1.434e-05
1.23019e-05
1.04786e-05
8.89236e-06
0
0
0
0
0
0
0
0
0
0
-1.70317e-23
-2.12555e-21
1.17455e-13
6.49188e-12
1.80018e-10
2.48346e-09
1.93987e-08
9.67317e-08
3.38112e-07
8.49648e-07
1.76662e-06
3.3179e-06
5.42688e-06
7.96291e-06
1.06906e-05
1.33267e-05
1.56018e-05
1.73086e-05
1.833e-05
1.86446e-05
1.83155e-05
1.74581e-05
1.62124e-05
1.47224e-05
1.31189e-05
1.15087e-05
9.97133e-06
8.55935e-06
7.30207e-06
6.21043e-06
0
0
0
0
0
0
0
0
0
0
-1.21655e-23
-1.87251e-21
1.11862e-13
5.82774e-12
1.55628e-10
2.09822e-09
1.6037e-08
7.82629e-08
2.64734e-07
6.3998e-07
1.35353e-06
2.47814e-06
3.98303e-06
5.75392e-06
7.61366e-06
9.36348e-06
1.08253e-05
1.18727e-05
1.24447e-05
1.25453e-05
1.22308e-05
1.15859e-05
1.07069e-05
9.6883e-06
8.61299e-06
7.5469e-06
6.53763e-06
5.61572e-06
4.79736e-06
4.08766e-06
0
0
0
0
0
0
0
0
0
0
-7.29931e-24
-1.27533e-21
7.5507e-14
3.92455e-12
1.05396e-10
1.40377e-09
1.0566e-08
5.08296e-08
1.67977e-07
3.99401e-07
8.45415e-07
1.52832e-06
2.42852e-06
3.47221e-06
4.55066e-06
5.5468e-06
6.36009e-06
6.92319e-06
7.20806e-06
7.22417e-06
7.00867e-06
6.61265e-06
6.09205e-06
5.50022e-06
4.88288e-06
4.27568e-06
3.70389e-06
3.18337e-06
2.72217e-06
2.32247e-06
0
0
0
0
0
0
0
0
0
0
-2.4331e-24
-4.50414e-22
2.5169e-14
1.39531e-12
3.71137e-11
4.91243e-10
3.67261e-09
1.75527e-08
5.73867e-08
1.3561e-07
2.86672e-07
5.15562e-07
8.1505e-07
1.15986e-06
1.51348e-06
1.83729e-06
2.09879e-06
2.27681e-06
2.36327e-06
2.36234e-06
2.28682e-06
2.15374e-06
1.98144e-06
1.7872e-06
1.58564e-06
1.38809e-06
1.20251e-06
1.03381e-06
8.8446e-07
7.55056e-07
2.13551e-08
7.14917e-08
1.06929e-07
1.29753e-07
1.45153e-07
1.55797e-07
1.63106e-07
1.67934e-07
1.70827e-07
1.7216e-07
1.722e-07
1.71141e-07
1.69181e-07
1.66458e-07
1.63075e-07
1.59122e-07
1.54683e-07
1.49823e-07
1.446e-07
1.39071e-07
1.33278e-07
1.27255e-07
1.21043e-07
1.14664e-07
1.08145e-07
1.01515e-07
9.4789e-08
8.79821e-08
8.11116e-08
7.41877e-08
6.72189e-08
6.02164e-08
5.31858e-08
4.6132e-08
3.90616e-08
3.19774e-08
2.48821e-08
1.77794e-08
1.06706e-08
3.55747e-09
2.14812e-08
7.16352e-08
1.07321e-07
1.3025e-07
1.45679e-07
1.56319e-07
1.63619e-07
1.6842e-07
1.71283e-07
1.72605e-07
1.7262e-07
1.7151e-07
1.69533e-07
1.66783e-07
1.63372e-07
1.59402e-07
1.54935e-07
1.50051e-07
1.44814e-07
1.39262e-07
1.33447e-07
1.27414e-07
1.21186e-07
1.14787e-07
1.08259e-07
1.01614e-07
9.48744e-08
8.80609e-08
8.11794e-08
7.42453e-08
6.72714e-08
6.02604e-08
5.32222e-08
4.61643e-08
3.90874e-08
3.19973e-08
2.48982e-08
1.77904e-08
1.06769e-08
3.55968e-09
2.1636e-08
7.20934e-08
1.0778e-07
1.3077e-07
1.46259e-07
1.56935e-07
1.64238e-07
1.69036e-07
1.71881e-07
1.73163e-07
1.73078e-07
1.72022e-07
1.70026e-07
1.67252e-07
1.63815e-07
1.59806e-07
1.55312e-07
1.50401e-07
1.45128e-07
1.39551e-07
1.33712e-07
1.2765e-07
1.21411e-07
1.14983e-07
1.08429e-07
1.01767e-07
9.50132e-08
8.81804e-08
8.12859e-08
7.434e-08
6.73511e-08
6.03301e-08
5.32826e-08
4.6213e-08
3.91282e-08
3.20306e-08
2.49227e-08
1.78079e-08
1.06875e-08
3.56308e-09
2.17949e-08
7.2414e-08
1.08263e-07
1.31341e-07
1.46884e-07
1.57591e-07
1.64908e-07
1.69704e-07
1.72533e-07
1.73796e-07
1.73739e-07
1.72627e-07
1.70597e-07
1.67791e-07
1.6432e-07
1.60277e-07
1.5575e-07
1.50805e-07
1.455e-07
1.39891e-07
1.3402e-07
1.27925e-07
1.21644e-07
1.15206e-07
1.08633e-07
1.01952e-07
9.51777e-08
8.83261e-08
8.14144e-08
7.44526e-08
6.74489e-08
6.04143e-08
5.33543e-08
4.62733e-08
3.91778e-08
3.20702e-08
2.49528e-08
1.78291e-08
1.07001e-08
3.56727e-09
2.19838e-08
7.28716e-08
1.08811e-07
1.3196e-07
1.47544e-07
1.58275e-07
1.65612e-07
1.70404e-07
1.73208e-07
1.74389e-07
1.74389e-07
1.73257e-07
1.71204e-07
1.68362e-07
1.64854e-07
1.60783e-07
1.56218e-07
1.51236e-07
1.45903e-07
1.40259e-07
1.34353e-07
1.28228e-07
1.219e-07
1.15449e-07
1.08859e-07
1.02153e-07
9.53554e-08
8.84873e-08
8.1555e-08
7.45742e-08
6.75572e-08
6.05066e-08
5.34319e-08
4.63402e-08
3.92321e-08
3.21129e-08
2.49864e-08
1.78524e-08
1.07137e-08
3.5719e-09
2.21756e-08
7.33165e-08
1.09389e-07
1.32605e-07
1.48234e-07
1.58992e-07
1.66334e-07
1.71135e-07
1.73949e-07
1.75164e-07
1.75089e-07
1.73919e-07
1.71825e-07
1.68951e-07
1.65412e-07
1.613e-07
1.56704e-07
1.5169e-07
1.46317e-07
1.40642e-07
1.34709e-07
1.28552e-07
1.2221e-07
1.15718e-07
1.09094e-07
1.02364e-07
9.55453e-08
8.8652e-08
8.17018e-08
7.47043e-08
6.76677e-08
6.0603e-08
5.35151e-08
4.64083e-08
3.92888e-08
3.21588e-08
2.50205e-08
1.78767e-08
1.07284e-08
3.57665e-09
2.23863e-08
7.38113e-08
1.1e-07
1.33283e-07
1.4895e-07
1.59729e-07
1.67079e-07
1.71879e-07
1.74689e-07
1.75893e-07
1.75788e-07
1.74587e-07
1.72459e-07
1.69552e-07
1.65978e-07
1.61831e-07
1.57198e-07
1.5215e-07
1.46741e-07
1.41033e-07
1.35069e-07
1.28884e-07
1.22511e-07
1.15988e-07
1.09335e-07
1.0258e-07
9.57371e-08
8.8822e-08
8.18517e-08
7.48355e-08
6.77818e-08
6.07012e-08
5.35988e-08
4.64785e-08
3.93465e-08
3.2205e-08
2.50556e-08
1.79014e-08
1.07431e-08
3.58151e-09
2.25974e-08
7.43163e-08
1.10634e-07
1.33988e-07
1.49689e-07
1.60483e-07
1.67845e-07
1.72638e-07
1.75433e-07
1.76628e-07
1.76493e-07
1.75258e-07
1.73105e-07
1.70161e-07
1.66548e-07
1.62372e-07
1.577e-07
1.52612e-07
1.47174e-07
1.41428e-07
1.35429e-07
1.29225e-07
1.22812e-07
1.16256e-07
1.0958e-07
1.02797e-07
9.59285e-08
8.89951e-08
8.20026e-08
7.4966e-08
6.78978e-08
6.08e-08
5.36817e-08
4.65499e-08
3.94045e-08
3.22505e-08
2.50913e-08
1.79262e-08
1.07575e-08
3.58644e-09
2.28224e-08
7.48496e-08
1.11296e-07
1.3471e-07
1.5045e-07
1.61262e-07
1.68621e-07
1.73411e-07
1.76197e-07
1.77366e-07
1.77207e-07
1.75945e-07
1.73752e-07
1.70777e-07
1.67132e-07
1.62911e-07
1.58207e-07
1.53084e-07
1.47604e-07
1.41825e-07
1.35791e-07
1.29545e-07
1.23108e-07
1.16528e-07
1.09821e-07
1.03014e-07
9.61241e-08
8.91648e-08
8.21534e-08
7.50994e-08
6.8011e-08
6.08984e-08
5.37665e-08
4.66191e-08
3.9462e-08
3.2297e-08
2.51258e-08
1.79507e-08
1.07724e-08
3.59123e-09
2.30515e-08
7.53966e-08
1.11976e-07
1.35455e-07
1.51229e-07
1.62056e-07
1.69417e-07
1.74199e-07
1.7697e-07
1.78121e-07
1.77932e-07
1.76637e-07
1.74411e-07
1.71401e-07
1.67719e-07
1.63461e-07
1.58718e-07
1.53558e-07
1.4804e-07
1.42223e-07
1.36149e-07
1.29844e-07
1.23402e-07
1.16797e-07
1.10064e-07
1.03232e-07
9.63174e-08
8.93356e-08
8.23035e-08
7.52306e-08
6.81246e-08
6.0996e-08
5.38494e-08
4.66885e-08
3.9519e-08
3.23424e-08
2.51603e-08
1.7975e-08
1.07868e-08
3.596e-09
2.32848e-08
7.59592e-08
1.12672e-07
1.36222e-07
1.52026e-07
1.62865e-07
1.70231e-07
1.74998e-07
1.77752e-07
1.78897e-07
1.78666e-07
1.77333e-07
1.7508e-07
1.7203e-07
1.68307e-07
1.64017e-07
1.59232e-07
1.54031e-07
1.48483e-07
1.42628e-07
1.36519e-07
1.30202e-07
1.23708e-07
1.17068e-07
1.1031e-07
1.03449e-07
9.6508e-08
8.95073e-08
8.24527e-08
7.53591e-08
6.82385e-08
6.10926e-08
5.39302e-08
4.67579e-08
3.95751e-08
3.23864e-08
2.51947e-08
1.79988e-08
1.08006e-08
3.60074e-09
2.35283e-08
7.65381e-08
1.1339e-07
1.37e-07
1.52841e-07
1.63695e-07
1.71054e-07
1.75811e-07
1.78548e-07
1.79691e-07
1.79406e-07
1.78045e-07
1.7575e-07
1.72667e-07
1.68908e-07
1.64572e-07
1.59751e-07
1.54514e-07
1.48922e-07
1.43034e-07
1.36895e-07
1.30539e-07
1.24013e-07
1.17342e-07
1.10551e-07
1.03665e-07
9.67014e-08
8.96742e-08
8.26004e-08
7.54893e-08
6.83484e-08
6.11879e-08
5.4012e-08
4.68244e-08
3.96302e-08
3.24309e-08
2.52275e-08
1.80221e-08
1.08147e-08
3.60528e-09
2.37759e-08
7.71284e-08
1.1412e-07
1.37796e-07
1.5367e-07
1.64538e-07
1.71895e-07
1.76637e-07
1.79338e-07
1.80411e-07
1.80139e-07
1.7876e-07
1.76432e-07
1.7331e-07
1.69512e-07
1.65135e-07
1.60272e-07
1.54995e-07
1.49364e-07
1.43441e-07
1.37269e-07
1.30876e-07
1.24315e-07
1.17613e-07
1.10792e-07
1.0388e-07
9.68913e-08
8.98414e-08
8.27468e-08
7.56164e-08
6.84581e-08
6.12817e-08
5.40914e-08
4.68905e-08
3.96843e-08
3.24739e-08
2.52601e-08
1.8045e-08
1.08283e-08
3.60977e-09
2.40277e-08
7.77319e-08
1.14863e-07
1.38611e-07
1.54513e-07
1.65392e-07
1.72755e-07
1.77482e-07
1.80149e-07
1.81125e-07
1.80893e-07
1.79485e-07
1.77127e-07
1.7396e-07
1.70116e-07
1.65704e-07
1.60797e-07
1.55475e-07
1.4981e-07
1.43847e-07
1.37645e-07
1.31213e-07
1.24615e-07
1.1788e-07
1.11035e-07
1.04093e-07
9.70779e-08
9.00088e-08
8.28915e-08
7.57405e-08
6.85676e-08
6.13741e-08
5.41683e-08
4.69565e-08
3.97374e-08
3.25152e-08
2.52925e-08
1.80674e-08
1.08413e-08
3.61419e-09
2.4286e-08
7.83479e-08
1.15624e-07
1.39433e-07
1.55372e-07
1.66265e-07
1.73621e-07
1.78343e-07
1.81008e-07
1.82016e-07
1.81688e-07
1.80231e-07
1.77822e-07
1.74616e-07
1.70732e-07
1.66271e-07
1.61324e-07
1.55964e-07
1.5025e-07
1.44246e-07
1.38e-07
1.31537e-07
1.24912e-07
1.18149e-07
1.11271e-07
1.04305e-07
9.72668e-08
9.0171e-08
8.30344e-08
7.5866e-08
6.86729e-08
6.14649e-08
5.4246e-08
4.70191e-08
3.97892e-08
3.2557e-08
2.53231e-08
1.80891e-08
1.08544e-08
3.61841e-09
2.45521e-08
7.89748e-08
1.16398e-07
1.40272e-07
1.56243e-07
1.67147e-07
1.745e-07
1.7921e-07
1.81857e-07
1.82844e-07
1.82476e-07
1.80977e-07
1.78526e-07
1.75277e-07
1.7135e-07
1.66845e-07
1.61855e-07
1.56451e-07
1.50695e-07
1.44644e-07
1.38334e-07
1.31862e-07
1.25209e-07
1.18416e-07
1.11509e-07
1.04515e-07
9.74521e-08
9.03332e-08
8.31756e-08
7.59881e-08
6.87776e-08
6.1554e-08
5.4321e-08
4.70814e-08
3.98398e-08
3.2597e-08
2.53534e-08
1.81103e-08
1.08669e-08
3.62256e-09
2.48187e-08
7.96126e-08
1.1718e-07
1.41128e-07
1.57127e-07
1.68039e-07
1.75395e-07
1.80086e-07
1.82708e-07
1.83673e-07
1.83268e-07
1.81725e-07
1.79238e-07
1.75943e-07
1.71968e-07
1.67425e-07
1.62389e-07
1.56939e-07
1.51149e-07
1.45059e-07
1.38725e-07
1.32203e-07
1.2551e-07
1.18681e-07
1.11748e-07
1.04724e-07
9.76337e-08
9.04954e-08
8.3315e-08
7.61067e-08
6.8882e-08
6.16416e-08
5.43933e-08
4.71431e-08
3.98892e-08
3.26354e-08
2.53833e-08
1.81309e-08
1.08788e-08
3.62664e-09
2.50917e-08
8.02647e-08
1.17981e-07
1.4199e-07
1.58025e-07
1.68949e-07
1.76294e-07
1.80973e-07
1.83574e-07
1.84504e-07
1.84067e-07
1.82487e-07
1.79949e-07
1.76613e-07
1.72597e-07
1.68003e-07
1.62925e-07
1.57436e-07
1.51597e-07
1.45472e-07
1.39105e-07
1.32537e-07
1.25809e-07
1.18949e-07
1.11981e-07
1.04931e-07
9.78174e-08
9.06522e-08
8.34523e-08
7.62266e-08
6.89817e-08
6.17272e-08
5.44663e-08
4.72015e-08
3.99374e-08
3.2674e-08
2.54115e-08
1.81508e-08
1.08909e-08
3.63049e-09
2.53726e-08
8.0924e-08
1.18791e-07
1.42869e-07
1.58935e-07
1.69869e-07
1.77209e-07
1.81872e-07
1.84447e-07
1.85347e-07
1.84877e-07
1.83253e-07
1.8067e-07
1.77288e-07
1.73227e-07
1.68587e-07
1.63463e-07
1.5793e-07
1.5205e-07
1.45884e-07
1.39477e-07
1.3287e-07
1.26106e-07
1.19213e-07
1.12214e-07
1.05137e-07
9.79971e-08
9.08086e-08
8.35878e-08
7.6343e-08
6.90811e-08
6.18111e-08
5.45364e-08
4.72595e-08
3.99841e-08
3.27108e-08
2.54392e-08
1.81701e-08
1.09022e-08
3.63426e-09
2.56577e-08
8.15941e-08
1.19611e-07
1.43762e-07
1.59856e-07
1.70799e-07
1.78139e-07
1.82779e-07
1.85325e-07
1.862e-07
1.85701e-07
1.84019e-07
1.81399e-07
1.77968e-07
1.73857e-07
1.69177e-07
1.64004e-07
1.58422e-07
1.52506e-07
1.46298e-07
1.39844e-07
1.33204e-07
1.26401e-07
1.19472e-07
1.12448e-07
1.0534e-07
9.81729e-08
9.09648e-08
8.37211e-08
7.64557e-08
6.91796e-08
6.18932e-08
5.46037e-08
4.73166e-08
4.00297e-08
3.27458e-08
2.54665e-08
1.81888e-08
1.0913e-08
3.63795e-09
2.59454e-08
8.22751e-08
1.20448e-07
1.44662e-07
1.60791e-07
1.71746e-07
1.79073e-07
1.83699e-07
1.86218e-07
1.87049e-07
1.86538e-07
1.84795e-07
1.82125e-07
1.78654e-07
1.74499e-07
1.69764e-07
1.64546e-07
1.58921e-07
1.52955e-07
1.46717e-07
1.40216e-07
1.3353e-07
1.26694e-07
1.19735e-07
1.12675e-07
1.05542e-07
9.83505e-08
9.11153e-08
8.38521e-08
7.65693e-08
6.92735e-08
6.19732e-08
5.46715e-08
4.73704e-08
4.00737e-08
3.2781e-08
2.54919e-08
1.82068e-08
1.09239e-08
3.6414e-09
2.62411e-08
8.29638e-08
1.21294e-07
1.45578e-07
1.61738e-07
1.72702e-07
1.80024e-07
1.84631e-07
1.87119e-07
1.87898e-07
1.87298e-07
1.85561e-07
1.8286e-07
1.79345e-07
1.75142e-07
1.70358e-07
1.65091e-07
1.59416e-07
1.534e-07
1.47112e-07
1.40577e-07
1.33856e-07
1.26986e-07
1.19994e-07
1.12903e-07
1.05741e-07
9.8524e-08
9.12653e-08
8.3981e-08
7.66793e-08
6.93665e-08
6.20512e-08
5.47364e-08
4.74235e-08
4.01163e-08
3.28144e-08
2.55169e-08
1.82241e-08
1.0934e-08
3.64477e-09
2.6541e-08
8.36658e-08
1.22148e-07
1.46508e-07
1.62697e-07
1.73668e-07
1.8099e-07
1.85576e-07
1.88036e-07
1.88786e-07
1.88087e-07
1.86355e-07
1.83615e-07
1.80045e-07
1.75787e-07
1.70959e-07
1.65638e-07
1.5991e-07
1.53846e-07
1.4748e-07
1.40931e-07
1.34185e-07
1.27277e-07
1.20248e-07
1.13131e-07
1.05938e-07
9.86933e-08
9.14147e-08
8.41078e-08
7.67855e-08
6.94588e-08
6.21274e-08
5.47981e-08
4.74758e-08
4.01575e-08
3.28458e-08
2.55414e-08
1.82408e-08
1.09436e-08
3.64804e-09
2.68435e-08
8.43767e-08
1.23021e-07
1.47444e-07
1.63669e-07
1.74651e-07
1.81959e-07
1.86531e-07
1.88968e-07
1.89687e-07
1.89007e-07
1.87176e-07
1.84368e-07
1.80749e-07
1.76443e-07
1.71557e-07
1.6619e-07
1.60417e-07
1.54305e-07
1.47916e-07
1.41308e-07
1.34511e-07
1.27567e-07
1.20507e-07
1.13353e-07
1.06134e-07
9.88643e-08
9.15584e-08
8.42319e-08
7.68925e-08
6.95461e-08
6.22013e-08
5.48602e-08
4.75245e-08
4.01971e-08
3.28774e-08
2.55639e-08
1.82566e-08
1.09531e-08
3.65106e-09
2.7154e-08
8.50985e-08
1.23902e-07
1.48396e-07
1.64652e-07
1.75644e-07
1.82944e-07
1.87496e-07
1.89904e-07
1.90589e-07
1.8987e-07
1.87988e-07
1.85128e-07
1.81457e-07
1.77099e-07
1.72161e-07
1.66744e-07
1.60923e-07
1.54764e-07
1.48333e-07
1.41678e-07
1.34839e-07
1.27857e-07
1.20761e-07
1.13575e-07
1.06327e-07
9.9031e-08
9.17012e-08
8.43535e-08
7.69954e-08
6.96326e-08
6.22731e-08
5.49194e-08
4.75723e-08
4.02353e-08
3.29069e-08
2.55859e-08
1.82718e-08
1.0962e-08
3.654e-09
2.74687e-08
8.58305e-08
1.24791e-07
1.49363e-07
1.65649e-07
1.76645e-07
1.83944e-07
1.88472e-07
1.90846e-07
1.915e-07
1.90735e-07
1.88801e-07
1.85897e-07
1.8217e-07
1.77755e-07
1.72771e-07
1.67299e-07
1.61426e-07
1.55226e-07
1.48746e-07
1.42043e-07
1.35167e-07
1.28144e-07
1.21011e-07
1.13797e-07
1.06517e-07
9.91929e-08
9.18435e-08
8.44729e-08
7.70943e-08
6.97179e-08
6.23428e-08
5.49752e-08
4.76193e-08
4.02718e-08
3.29345e-08
2.56072e-08
1.82862e-08
1.09702e-08
3.65682e-09
2.77897e-08
8.65733e-08
1.25699e-07
1.50336e-07
1.66657e-07
1.77664e-07
1.84948e-07
1.89458e-07
1.91804e-07
1.92413e-07
1.91607e-07
1.89627e-07
1.86664e-07
1.82887e-07
1.78421e-07
1.73377e-07
1.67856e-07
1.61936e-07
1.55681e-07
1.49157e-07
1.42412e-07
1.35489e-07
1.2843e-07
1.21263e-07
1.14012e-07
1.06705e-07
9.93563e-08
9.19793e-08
8.45895e-08
7.71939e-08
6.97982e-08
6.241e-08
5.50312e-08
4.76626e-08
4.03066e-08
3.2962e-08
2.56267e-08
1.82998e-08
1.09784e-08
3.65938e-09
2.81149e-08
8.73239e-08
1.26615e-07
1.51326e-07
1.67678e-07
1.78693e-07
1.85967e-07
1.90455e-07
1.9277e-07
1.93338e-07
1.92486e-07
1.90457e-07
1.87441e-07
1.83609e-07
1.79088e-07
1.73989e-07
1.68415e-07
1.62443e-07