/*--------------------------------*- C++ -*----------------------------------*\
| =========                 |                                                 |
| \\      /  F ield         | OpenFOAM: The Open Source CFD Toolbox           |
|  \\    /   O peration     | Version:  2.3.0                                 |
|   \\  /    A nd           | Web:      www.OpenFOAM.org                      |
|    \\/     M anipulation  |                                                 |
\*---------------------------------------------------------------------------*/
FoamFile
{
    version     2.0;
    format      ascii;
    class       volScalarField;
    location    "10";
    object      k;
}
// * * * * * * * * * * * * * * * * * * * * * * * * * * * * * * * * * * * * * //

dimensions      [0 2 -2 0 0 0 0];

internalField   nonuniform List<scalar> 
26600
(
0.0909112
0.318136
0.611191
0.884631
1.11279
1.28768
1.41341
1.49537
1.55159
1.59369
1.63835
1.68153
1.72443
1.75895
1.79072
1.82211
1.85334
1.88522
1.91774
1.94942
1.9809
2.00945
2.03264
2.05413
2.0737
2.08694
2.09764
2.1064
2.1108
2.11246
2.11214
2.11048
2.1081
2.10525
2.10298
2.10132
2.1005
2.09843
2.09496
2.20193
0.0451528
0.0549015
0.070524
0.0944949
0.127878
0.179399
0.264073
0.405411
0.600698
0.815637
1.02043
1.19287
1.32925
1.43005
1.50308
1.55038
1.5841
1.60702
1.62357
1.63173
1.6382
1.63894
1.63079
1.6268
1.61952
1.60401
1.58694
1.56845
1.53984
1.51636
1.49998
1.47144
1.44772
1.41281
1.39003
1.35242
1.33583
1.2861
1.29157
1.23037
0.0619171
0.0810994
0.122062
0.176813
0.245162
0.388554
0.62132
0.892175
1.15854
1.38259
1.56839
1.70804
1.80318
1.85442
1.88006
1.87975
1.87233
1.85651
1.83682
1.80737
1.78712
1.7689
1.74217
1.73291
1.71805
1.6995
1.6716
1.6436
1.61558
1.57824
1.54203
1.5046
1.46889
1.43576
1.39291
1.3571
1.31892
1.28821
1.27119
1.1699
0.0485533
0.0800453
0.142427
0.207372
0.343373
0.589529
0.887895
1.20091
1.48278
1.69936
1.86715
1.97237
2.02507
2.03438
2.02411
1.997
1.96044
1.92167
1.8863
1.83888
1.81966
1.79657
1.76938
1.74049
1.71378
1.68547
1.65267
1.62705
1.5897
1.55829
1.5436
1.51616
1.48483
1.44862
1.39331
1.36158
1.32264
1.30456
1.30289
1.22888
0.0497491
0.102678
0.172009
0.278051
0.509332
0.820779
1.16092
1.48608
1.74708
1.926
2.04511
2.09373
2.10267
2.08714
2.048
2.00377
1.95342
1.89577
1.8576
1.79731
1.7704
1.74171
1.69226
1.66085
1.65059
1.62448
1.59523
1.56362
1.52435
1.51253
1.49879
1.47947
1.45358
1.42813
1.39298
1.37036
1.36878
1.37165
1.41968
1.31584
0.0510741
0.111066
0.186683
0.358247
0.687359
1.04899
1.40578
1.71052
1.91126
2.02967
2.09807
2.10141
2.08326
2.04026
1.96684
1.92196
1.86295
1.77629
1.72581
1.67815
1.65871
1.62555
1.57863
1.5551
1.53377
1.51658
1.50235
1.49755
1.50027
1.51115
1.53391
1.57528
1.60101
1.6309
1.6835
1.77756
1.9358
2.07029
2.32751
1.91825
0.0576879
0.109853
0.221909
0.50293
0.893073
1.27691
1.6144
1.84747
1.96902
2.03817
2.04873
2.02514
1.96768
1.90457
1.81831
1.72967
1.66949
1.58884
1.51782
1.48718
1.45117
1.47202
1.46323
1.47511
1.48915
1.51292
1.56028
1.60325
1.6663
1.78602
1.95709
2.15412
2.32866
2.65093
3.07393
3.67948
4.10916
4.63161
4.91641
5.18899
0.0535088
0.119255
0.29588
0.692551
1.11017
1.47854
1.7396
1.88609
1.93501
1.94174
1.91845
1.86666
1.79408
1.66978
1.57358
1.47191
1.39236
1.31376
1.27254
1.23407
1.25213
1.35278
1.42512
1.50748
1.62514
1.8362
2.13546
2.35939
2.62954
3.16678
3.58548
4.09851
4.63019
5.20728
5.65651
5.99427
6.13371
6.46062
6.59332
7.134
0.0557665
0.149736
0.438004
0.88877
1.2967
1.58847
1.76719
1.82182
1.80678
1.76488
1.6989
1.61345
1.5132
1.38291
1.26564
1.15745
1.08721
1.03975
1.04704
1.08751
1.16791
1.3668
1.55993
2.03333
2.62574
3.26926
3.78732
4.04732
4.49838
4.99513
5.27432
5.66937
5.92991
6.04868
6.01978
5.99014
5.96222
6.01856
6.04021
6.4826
0.0601908
0.201831
0.600338
1.05126
1.38685
1.60323
1.67986
1.66517
1.60329
1.51322
1.38002
1.26377
1.14578
1.04091
0.912045
0.862953
0.88875
0.942582
1.0333
1.31121
1.59177
2.1393
2.78462
3.53823
3.97497
4.20142
4.32174
4.43154
4.70298
4.73344
4.67027
4.53175
4.21132
3.92896
3.76617
3.74439
3.76686
3.86736
3.93842
4.26577
0.0686041
0.286874
0.753631
1.12943
1.39127
1.49681
1.49017
1.43354
1.31178
1.16359
1.00147
0.866814
0.710631
0.693225
0.719128
0.795665
1.06685
1.35301
1.75025
2.2813
2.59758
3.2697
3.50449
3.3699
2.98076
2.52123
2.26236
2.13954
2.09846
2.04091
1.98918
1.95518
1.92425
1.9224
1.93943
1.99508
2.07379
2.17129
2.23789
2.43094
0.0922602
0.43448
0.83546
1.13325
1.2737
1.2779
1.23359
1.10316
0.913214
0.743089
0.545722
0.484445
0.512205
0.615297
0.849664
1.31744
1.81349
1.98318
2.36534
2.34154
2.18418
1.78697
1.29099
1.01938
0.915902
0.904214
0.919883
0.95881
1.01134
1.05484
1.10545
1.1609
1.21185
1.25848
1.30426
1.35594
1.40749
1.46701
1.51018
1.602
0.191722
0.582892
0.858251
1.01798
1.03644
0.997878
0.896009
0.676212
0.450523
0.339243
0.339028
0.39313
0.582523
1.16991
1.48721
1.84868
1.7108
1.3873
0.925268
0.669111
0.552504
0.520311
0.529606
0.555567
0.610776
0.668644
0.728576
0.791429
0.853317
0.913803
0.97415
1.03102
1.08024
1.12051
1.15513
1.18793
1.219
1.25152
1.27635
1.31674
0.385715
0.638473
0.761158
0.772958
0.733004
0.635858
0.437637
0.285992
0.231667
0.248053
0.331861
0.717929
1.08767
1.51717
1.30589
0.76761
0.46846
0.349482
0.325199
0.339916
0.371489
0.426057
0.500123
0.584427
0.671085
0.747757
0.812964
0.868929
0.91935
0.967056
1.01187
1.05165
1.08495
1.11269
1.13659
1.1582
1.17732
1.19446
1.20786
1.2277
0.434275
0.559492
0.529404
0.452833
0.331662
0.231308
0.161525
0.166255
0.207432
0.361583
0.750284
1.22907
1.14205
0.650459
0.332207
0.226637
0.231213
0.252854
0.298661
0.376553
0.484066
0.593982
0.691917
0.776329
0.848629
0.906908
0.953308
0.991341
1.02456
1.05508
1.08265
1.10621
1.12536
1.14078
1.15363
1.16482
1.17453
1.18296
1.18933
1.19955
0.359022
0.338419
0.22326
0.139317
0.0968755
0.0937538
0.110467
0.179505
0.461847
0.706234
0.937885
0.708221
0.328123
0.192273
0.172161
0.184532
0.227246
0.327346
0.463351
0.591401
0.704689
0.803441
0.886158
0.953417
1.00764
1.04798
1.07688
1.09874
1.11686
1.13242
1.14548
1.15592
1.16388
1.16981
1.17437
1.17807
1.18097
1.18316
1.18493
1.18965
0.13004
0.104684
0.0653855
0.0521143
0.0565623
0.0855691
0.201491
0.521338
0.788634
0.72415
0.443668
0.218947
0.14534
0.14818
0.163792
0.226654
0.372585
0.542766
0.690965
0.814731
0.916697
0.99817
1.06011
1.10614
1.13976
1.16111
1.17313
1.1803
1.18539
1.18867
1.19038
1.19092
1.19061
1.1896
1.18823
1.18679
1.18528
1.18384
1.18269
1.18384
0.0462693
0.0425715
0.0414402
0.04468
0.0850345
0.255769
0.622034
0.792065
0.629945
0.281358
0.154833
0.124527
0.130646
0.150866
0.227393
0.403754
0.605117
0.781676
0.920358
1.02559
1.10377
1.16017
1.19774
1.22163
1.23571
1.23996
1.23792
1.23336
1.22805
1.22186
1.21535
1.2091
1.20328
1.19791
1.19303
1.18863
1.18461
1.18098
1.17797
1.17675
0.0421378
0.0401675
0.0461161
0.0855808
0.315081
0.720772
0.779649
0.548725
0.213805
0.119682
0.108053
0.114674
0.141953
0.232555
0.432098
0.660388
0.860004
1.01387
1.12353
1.19914
1.24843
1.2786
1.29413
1.29767
1.29485
1.28572
1.27264
1.25926
1.24669
1.2347
1.22337
1.21323
1.20435
1.19652
1.18963
1.18359
1.17827
1.17355
1.16951
1.1668
0.105073
0.0965436
0.136962
0.343852
0.804388
0.788659
0.470476
0.177624
0.1007
0.0950806
0.101235
0.132511
0.233097
0.450543
0.699408
0.922296
1.0897
1.20651
1.28103
1.32485
1.3477
1.35407
1.34993
1.33804
1.32181
1.30296
1.28328
1.26464
1.24773
1.23227
1.21829
1.20618
1.19586
1.18701
1.17937
1.17277
1.16703
1.16195
1.15743
1.1539
0.125488
0.200898
0.427393
0.793737
0.682697
0.365424
0.158745
0.094714
0.0867353
0.0953904
0.132685
0.237523
0.460539
0.722325
0.968462
1.15086
1.27165
1.34713
1.38864
1.40329
1.40256
1.3916
1.3723
1.3497
1.32527
1.30025
1.27619
1.2544
1.23521
1.21831
1.20354
1.19102
1.18055
1.17173
1.1642
1.15776
1.15215
1.14713
1.14256
1.13868
0.0415114
0.0604634
0.0923096
0.104604
0.104771
0.0881766
0.0783966
0.0817883
0.100846
0.152307
0.260033
0.471906
0.735709
0.999668
1.19846
1.32357
1.3941
1.43227
1.44493
1.44005
1.42387
1.39991
1.37129
1.34083
1.31076
1.28224
1.25624
1.23339
1.21376
1.19696
1.18268
1.17079
1.16096
1.15277
1.1459
1.14005
1.13489
1.13022
1.12588
1.12194
0.0565421
0.0557489
0.0567027
0.0633444
0.0719981
0.0784876
0.0895367
0.114879
0.180768
0.297853
0.48854
0.748652
1.02196
1.23184
1.35518
1.42154
1.45597
1.46912
1.46498
1.44783
1.42024
1.38703
1.35179
1.31694
1.28424
1.25459
1.22849
1.20613
1.18733
1.17159
1.15855
1.14788
1.13914
1.13194
1.12597
1.12087
1.11634
1.11217
1.10819
1.10434
0.0552458
0.0645309
0.0672683
0.0761383
0.0965688
0.114327
0.138713
0.190709
0.315264
0.515078
0.772628
1.04576
1.2484
1.36509
1.42701
1.46034
1.47555
1.47498
1.46045
1.43259
1.39753
1.35909
1.32058
1.28412
1.25102
1.22191
1.19698
1.17611
1.15888
1.14475
1.1333
1.12409
1.11664
1.11058
1.10555
1.10124
1.09736
1.09371
1.09012
1.08648
0.0517346
0.0571025
0.0705233
0.098428
0.143369
0.182637
0.230791
0.33296
0.550841
0.816699
1.07361
1.24748
1.35288
1.41031
1.44611
1.4643
1.46713
1.45789
1.43513
1.40194
1.3631
1.32254
1.28326
1.24713
1.21515
1.18766
1.16466
1.1458
1.13051
1.11823
1.10845
1.10071
1.09454
1.08957
1.08545
1.08187
1.0786
1.07544
1.07224
1.06888
0.0522094
0.0609583
0.0791172
0.121613
0.22975
0.32607
0.424679
0.622993
0.876822
1.0831
1.23102
1.31907
1.37628
1.40963
1.42942
1.44
1.43845
1.42497
1.39831
1.36284
1.32288
1.28235
1.244
1.20944
1.17948
1.15425
1.13355
1.11686
1.10356
1.09309
1.0849
1.07853
1.07353
1.06953
1.0662
1.06327
1.06053
1.05781
1.05498
1.05193
0.0654816
0.0805074
0.110459
0.230699
0.470125
0.624525
0.764098
0.934693
1.08268
1.18883
1.27158
1.31606
1.34063
1.36475
1.38694
1.39994
1.39887
1.38421
1.35642
1.32063
1.28123
1.24206
1.20566
1.17339
1.14588
1.12314
1.10479
1.0902
1.07879
1.06997
1.0632
1.05803
1.05402
1.05083
1.04816
1.04577
1.04348
1.04114
1.03865
1.03591
0.181674
0.203903
0.289093
0.603536
0.841756
0.925857
0.970942
1.05225
1.13402
1.19125
1.21717
1.23791
1.26656
1.30312
1.33579
1.35463
1.35591
1.34148
1.31405
1.27907
1.24117
1.20405
1.17004
1.14033
1.11538
1.0951
1.07893
1.06627
1.05653
1.04915
1.04359
1.03941
1.03622
1.03368
1.03153
1.02958
1.02765
1.02563
1.02344
1.02101
0.223931
0.285849
0.638367
0.915398
1.00505
1.00492
0.997456
1.01937
1.04573
1.0651
1.09249
1.13424
1.18838
1.24399
1.28779
1.31194
1.31526
1.30115
1.27441
1.2406
1.20451
1.16964
1.1381
1.11094
1.08847
1.0704
1.05616
1.04518
1.03688
1.03069
1.02613
1.02275
1.02019
1.01816
1.01642
1.0148
1.01317
1.01142
1.00949
1.00735
0.0797041
0.225095
0.60947
0.813197
0.833812
0.807391
0.79805
0.814426
0.848265
0.899283
0.967088
1.04508
1.12546
1.19676
1.2484
1.27562
1.27968
1.26554
1.23922
1.20652
1.17216
1.13941
1.11021
1.08543
1.06515
1.04898
1.03641
1.02685
1.01974
1.01454
1.01076
1.008
1.00593
1.00428
1.00285
1.00149
1.00008
0.998547
0.996858
0.994984
0.0440374
0.126609
0.357838
0.457901
0.468461
0.482175
0.516969
0.575916
0.666878
0.771851
0.879642
0.985442
1.08333
1.16388
1.21916
1.24687
1.25026
1.23546
1.20913
1.17724
1.14435
1.11348
1.08639
1.06369
1.04523
1.03067
1.01949
1.01111
1.00497
1.00054
0.99737
0.995082
0.993373
0.992005
0.990798
0.989622
0.988386
0.987038
0.985551
0.983916
0.0435929
0.0705074
0.141194
0.18017
0.209888
0.255587
0.334111
0.44445
0.574977
0.707849
0.835306
0.954689
1.06047
1.1441
1.19946
1.22544
1.227
1.21088
1.18413
1.1527
1.12095
1.09169
1.0664
1.04537
1.02843
1.0152
1.00517
0.997736
0.992357
0.988528
0.985821
0.983883
0.982437
0.981268
0.980218
0.979177
0.978075
0.976872
0.975556
0.97413
0.0457276
0.0537119
0.07445
0.0979615
0.126542
0.182654
0.27805
0.40344
0.544395
0.685513
0.81974
0.943966
1.05183
1.13479
1.18762
1.21039
1.20933
1.19139
1.16384
1.13253
1.10163
1.07371
1.04985
1.03014
1.01443
1.00228
0.99316
0.98648
0.981697
0.978328
0.975966
0.974283
0.973021
0.971989
0.971046
0.970101
0.969098
0.968011
0.966839
0.965592
0.047169
0.050188
0.0626871
0.0859252
0.114998
0.176265
0.274355
0.400544
0.541855
0.683838
0.819362
0.944487
1.05176
1.13248
1.1817
1.20056
1.19637
1.17631
1.1477
1.11627
1.08599
1.0591
1.03631
1.01765
1.00291
0.991622
0.983221
0.977125
0.972798
0.969773
0.967665
0.966162
0.965027
0.964084
0.963212
0.962332
0.961403
0.960409
0.959355
0.958258
0.0475229
0.0491907
0.0609944
0.0857162
0.118362
0.187038
0.287392
0.412844
0.552483
0.693205
0.82798
0.952109
1.05731
1.1347
1.17982
1.19466
1.18721
1.16493
1.13514
1.10342
1.07358
1.04743
1.02541
1.00756
0.993583
0.982965
0.975121
0.969472
0.965488
0.962719
0.960792
0.959414
0.958362
0.957475
0.956647
0.955812
0.954937
0.954015
0.953056
0.952083
0.0474727
0.0487363
0.0604939
0.0862624
0.123172
0.199002
0.302144
0.428025
0.56678
0.706423
0.840149
0.96281
1.06559
1.1395
1.18047
1.19157
1.18101
1.15658
1.12559
1.09353
1.06395
1.03829
1.01684
0.999603
0.986199
0.976089
0.968667
0.963352
0.959623
0.957037
0.955238
0.953943
0.952944
0.952091
0.95129
0.950483
0.949646
0.948779
0.947896
0.947021
0.0473881
0.0484474
0.0600322
0.0860149
0.126861
0.208559
0.31467
0.441701
0.580389
0.719553
0.852537
0.973889
1.07445
1.14523
1.18249
1.19032
1.17699
1.15065
1.11856
1.08617
1.05673
1.03137
1.01033
0.993527
0.980548
0.970811
0.9637
0.958628
0.955081
0.952626
0.950913
0.949673
0.948705
0.947872
0.947085
0.946296
0.945486
0.944659
0.943833
0.943034
0.0473465
0.0482621
0.0595285
0.0850776
0.129061
0.215271
0.324047
0.45235
0.591371
0.73049
0.863098
0.983498
1.0823
1.15057
1.18485
1.19006
1.17452
1.14663
1.11366
1.08099
1.0516
1.0264
1.00564
0.989148
0.976467
0.966992
0.960097
0.955195
0.951773
0.949405
0.947749
0.946543
0.945593
0.944769
0.943989
0.943211
0.942418
0.941619
0.940834
0.940091
0.047361
0.0481706
0.0590557
0.0839529
0.130172
0.219691
0.330496
0.459823
0.599259
0.738537
0.871012
0.990783
1.08833
1.1548
1.18694
1.19031
1.17321
1.14421
1.11061
1.07774
1.04834
1.02323
1.00263
0.986337
0.973844
0.964535
0.957777
0.952981
0.949637
0.947323
0.945702
0.944514
0.943574
0.942754
0.941978
0.941204
0.940423
0.939641
0.938881
0.938172
0.047438
0.0482557
0.059172
0.0842602
0.132249
0.223994
0.336084
0.466098
0.605891
0.745297
0.877575
0.996736
1.09326
1.15843
1.18916
1.19133
1.17323
1.14353
1.1095
1.07643
1.04697
1.02186
1.00131
0.985084
0.972669
0.963434
0.956738
0.951993
0.948688
0.946401
0.944798
0.94362
0.942685
0.941866
0.94109
0.940318
0.939539
0.938763
0.938013
0.937317
1.32082
1.68058
2.01543
2.27749
2.49568
2.68489
2.85318
3.0053
3.14432
3.27231
3.39073
3.50071
3.60307
3.6985
3.78755
3.87067
3.94827
4.02069
4.08824
4.1512
4.20981
4.26429
4.31485
4.36168
4.40496
4.44484
4.48146
4.51496
4.54547
4.5731
4.59794
4.6201
4.63965
4.65669
4.67127
4.68347
4.69337
4.70104
4.70658
4.71016
1.31998
1.69372
2.03094
2.2935
2.51165
2.70069
2.86877
3.02069
3.15952
3.28732
3.40557
3.51537
3.61757
3.71283
3.80171
3.88467
3.96211
4.03437
4.10176
4.16456
4.22302
4.27735
4.32777
4.37446
4.41761
4.45736
4.49386
4.52725
4.55766
4.58519
4.60994
4.63202
4.6515
4.66847
4.683
4.69515
4.70501
4.71266
4.71819
4.72175
1.32222
1.7015
2.04309
2.30855
2.5286
2.71887
2.88779
3.04029
3.17951
3.30759
3.42603
3.53595
3.6382
3.73347
3.82232
3.90522
3.98257
4.05473
4.12201
4.18468
4.24299
4.29717
4.34744
4.39398
4.43697
4.47658
4.51294
4.54619
4.57646
4.60386
4.6285
4.65047
4.66986
4.68674
4.7012
4.71329
4.7231
4.73071
4.7362
4.73975
1.32396
1.71149
2.05628
2.32406
2.54593
2.73766
2.90774
3.06118
3.20115
3.32981
3.44873
3.559
3.66152
3.75699
3.84597
3.92896
4.00635
4.07851
4.14576
4.20837
4.26661
4.3207
4.37086
4.41728
4.46015
4.49963
4.53586
4.56899
4.59914
4.62643
4.65096
4.67282
4.69212
4.70892
4.7233
4.73534
4.7451
4.75266
4.75813
4.76167
1.32734
1.72059
2.06914
2.3395
2.56334
2.75666
2.92805
3.08257
3.22345
3.35287
3.47239
3.58317
3.6861
3.78189
3.87113
3.9543
4.03182
4.10407
4.17136
4.23398
4.2922
4.34625
4.39634
4.4427
4.48548
4.52486
4.56099
4.59401
4.62406
4.65124
4.67567
4.69745
4.71666
4.73339
4.74771
4.75969
4.7694
4.77693
4.78238
4.7859
1.33014
1.73052
2.08239
2.35515
2.58091
2.77582
2.94855
3.10422
3.24608
3.37633
3.49655
3.60791
3.71132
3.80751
3.89707
3.98049
4.05821
4.1306
4.19798
4.26066
4.3189
4.37294
4.42301
4.46931
4.51202
4.55133
4.58737
4.62031
4.65027
4.67737
4.70172
4.72341
4.74255
4.75921
4.77347
4.78539
4.79507
4.80257
4.80799
4.81151
1.33415
1.74021
2.09563
2.37089
2.5986
2.79512
2.96922
3.12606
3.26892
3.40003
3.52099
3.63298
3.73693
3.83356
3.92347
4.00719
4.08513
4.15768
4.22519
4.28795
4.34623
4.40029
4.45035
4.49662
4.53929
4.57853
4.61451
4.64738
4.67726
4.70428
4.72855
4.75017
4.76924
4.78584
4.80004
4.81192
4.82155
4.82903
4.83444
4.83795
1.33772
1.7504
2.10915
2.38681
2.61644
2.81458
2.99005
3.14806
3.29195
3.42395
3.54566
3.65831
3.7628
3.85989
3.95019
4.03421
4.1124
4.18514
4.25278
4.31563
4.37397
4.42806
4.47812
4.52437
4.567
4.6062
4.64212
4.67492
4.70473
4.73167
4.75587
4.77743
4.79643
4.81297
4.82712
4.83895
4.84855
4.856
4.86139
4.8649
1.34213
1.76055
2.12277
2.40287
2.63444
2.83418
3.01103
3.17024
3.31515
3.44804
3.57053
3.68383
3.78889
3.88645
3.97714
4.06148
4.13992
4.21286
4.28065
4.3436
4.402
4.45612
4.50619
4.55242
4.59503
4.63418
4.67004
4.70277
4.73251
4.75939
4.78352
4.80501
4.82395
4.84042
4.85452
4.86631
4.87588
4.8833
4.88868
4.89219
1.34627
1.77105
2.13661
2.41912
2.6526
2.85395
3.03218
3.19258
3.33852
3.47231
3.59558
3.70955
3.81517
3.91321
4.00429
4.08895
4.16765
4.24079
4.30872
4.37179
4.43026
4.48441
4.53449
4.58071
4.62327
4.66238
4.69818
4.73085
4.76053
4.78733
4.81139
4.83281
4.85169
4.86811
4.88215
4.8939
4.90343
4.91082
4.91619
4.9197
1.35096
1.78159
2.1506
2.43553
2.67093
2.87389
3.05349
3.21508
3.36207
3.49676
3.6208
3.73544
3.84163
3.94015
4.03163
4.11661
4.19556
4.2689
4.33699
4.40015
4.4587
4.51289
4.56296
4.60917
4.6517
4.69075
4.7265
4.7591
4.78871
4.81544
4.83943
4.86078
4.87959
4.89595
4.90995
4.92165
4.93115
4.93851
4.94387
4.94737
1.35553
1.79241
2.16478
2.45211
2.68944
2.894
3.07498
3.23777
3.38579
3.52137
3.6462
3.76151
3.86827
3.96727
4.05914
4.14444
4.22365
4.29718
4.36542
4.42868
4.48729
4.54151
4.59159
4.63777
4.68027
4.71927
4.75496
4.7875
4.81703
4.84369
4.86761
4.88889
4.90763
4.92393
4.93787
4.94953
4.95899
4.96634
4.97167
4.97518
1.36046
1.80331
2.17913
2.46888
2.70812
2.91429
3.09665
3.26064
3.4097
3.54618
3.6718
3.78777
3.89509
3.99455
4.08682
4.17244
4.2519
4.32562
4.394
4.45736
4.51603
4.57027
4.62035
4.66652
4.70897
4.74792
4.78355
4.81601
4.84547
4.87206
4.8959
4.91711
4.93579
4.95202
4.96591
4.97752
4.98694
4.99426
4.99958
5.00309
1.36536
1.81443
2.19367
2.48584
2.72699
2.93477
3.11851
3.28369
3.43381
3.57121
3.69758
3.81421
3.92208
4.02201
4.11467
4.2006
4.28031
4.35422
4.42273
4.48619
4.5449
4.59917
4.64925
4.69539
4.7378
4.7767
4.81225
4.84464
4.87402
4.90053
4.92429
4.94543
4.96404
4.98021
4.99404
5.00561
5.01499
5.02228
5.02759
5.03109
1.37049
1.82567
2.20836
2.50297
2.74606
2.95544
3.14056
3.30694
3.45808
3.59638
3.72352
3.84081
3.94925
4.04965
4.14268
4.22893
4.30888
4.38298
4.45162
4.51516
4.57392
4.62821
4.67828
4.72439
4.76675
4.80558
4.84106
4.87338
4.90268
4.9291
4.95278
4.97384
4.99237
5.00848
5.02226
5.03377
5.04312
5.05038
5.05567
5.05917
1.37565
1.83709
2.22325
2.52029
2.76531
2.97631
3.16281
3.33038
3.48255
3.62173
3.74965
3.8676
3.9766
4.07746
4.17087
4.25742
4.33761
4.41189
4.48066
4.54428
4.60309
4.65739
4.70744
4.75351
4.79581
4.83457
4.86998
4.90221
4.93142
4.95776
4.98136
5.00234
5.0208
5.03684
5.05055
5.06202
5.07133
5.07856
5.08384
5.08733
1.38097
1.84865
2.23831
2.5378
2.78475
2.99737
3.18526
3.35401
3.50722
3.6473
3.77598
3.89459
4.00413
4.10545
4.19924
4.28609
4.3665
4.44096
4.50985
4.57355
4.6324
4.68669
4.73672
4.78274
4.82498
4.86367
4.899
4.93114
4.96026
4.98651
5.01002
5.03092
5.0493
5.06528
5.07893
5.09034
5.09961
5.10681
5.11207
5.11556
1.38632
1.86037
2.25354
2.5555
2.8044
3.01864
3.20791
3.37787
3.5321
3.67307
3.80252
3.92177
4.03186
4.13363
4.22778
4.31492
4.39556
4.47017
4.53917
4.60294
4.66182
4.71611
4.76611
4.81208
4.85426
4.89287
4.92811
4.96016
4.98919
5.01535
5.03877
5.05958
5.07788
5.09378
5.10737
5.11874
5.12796
5.13513
5.14038
5.14386
1.39181
1.87223
2.26895
2.57339
2.82425
3.04012
3.23078
3.40193
3.5572
3.69905
3.82926
3.94915
4.05978
4.162
4.25651
4.34393
4.42478
4.49955
4.56865
4.63247
4.69137
4.74565
4.79562
4.84153
4.88364
4.92217
4.95732
4.98927
5.0182
5.04426
5.06759
5.08831
5.10653
5.12236
5.13589
5.1472
5.15638
5.16352
5.16874
5.17223
1.39735
1.88424
2.28454
2.59148
2.8443
3.06182
3.25387
3.42621
3.58251
3.72525
3.85621
3.97674
4.08791
4.19056
4.28542
4.37311
4.45416
4.52908
4.59827
4.66215
4.72105
4.77532
4.82524
4.8711
4.91313
4.95156
4.98662
5.01847
5.0473
5.07326
5.09649
5.11712
5.13526
5.15101
5.16447
5.17572
5.18486
5.19197
5.19718
5.20066
1.40298
1.8964
2.3003
2.60976
2.86457
3.08372
3.27717
3.45072
3.60805
3.75166
3.88336
4.00454
4.11624
4.21932
4.31452
4.40247
4.48372
4.55877
4.62804
4.69196
4.75087
4.80511
4.85499
4.90077
4.94272
4.98106
5.01601
5.04776
5.07648
5.10234
5.12547
5.146
5.16405
5.17973
5.19312
5.20431
5.21341
5.22049
5.22567
5.22915
1.40867
1.90871
2.31625
2.62825
2.88505
3.10585
3.3007
3.47545
3.63381
3.77831
3.91076
4.03257
4.14478
4.24827
4.3438
4.43201
4.51345
4.58862
4.65797
4.72192
4.78083
4.83504
4.88485
4.93056
4.97241
5.01065
5.04549
5.07713
5.10575
5.13149
5.15452
5.17496
5.19292
5.20851
5.22183
5.23297
5.24201
5.24906
5.25423
5.2577
1.41444
1.92117
2.33239
2.64694
2.90574
3.12821
3.32447
3.50042
3.65982
3.80521
3.93843
4.06083
4.17353
4.27743
4.37328
4.46173
4.54335
4.61864
4.68806
4.75203
4.81093
4.86509
4.91484
4.96046
5.00221
5.04034
5.07507
5.10659
5.13509
5.16072
5.18364
5.20398
5.22185
5.23736
5.25061
5.26169
5.27068
5.27769
5.28284
5.28631
1.42027
1.93378
2.3487
2.66583
2.92666
3.15079
3.34847
3.52563
3.68605
3.83231
3.96626
4.08927
4.20248
4.30679
4.40296
4.49164
4.57343
4.64883
4.71831
4.7823
4.84117
4.89527
4.94494
4.99047
5.03211
5.07013
5.10474
5.13614
5.16451
5.19003
5.21284
5.23307
5.25085
5.26627
5.27945
5.29046
5.29941
5.30639
5.31151
5.31498
1.42617
1.94654
2.36521
2.68493
2.9478
3.17361
3.37271
3.55108
3.71253
3.85966
3.99433
4.11796
4.23166
4.33636
4.43283
4.52175
4.60369
4.67918
4.74871
4.8127
4.87153
4.92558
4.97516
5.02058
5.06212
5.10001
5.13449
5.16577
5.19402
5.21941
5.24211
5.26223
5.27991
5.29525
5.30835
5.3193
5.3282
5.33514
5.34024
5.3437
1.43212
1.95945
2.38191
2.70425
2.96916
3.19668
3.3972
3.57678
3.73926
3.88726
4.02265
4.14688
4.26107
4.36615
4.46292
4.55204
4.63413
4.70971
4.77927
4.84324
4.90203
4.95601
5.0055
5.05081
5.09222
5.12999
5.16434
5.19548
5.2236
5.24887
5.27145
5.29146
5.30904
5.32428
5.33731
5.34819
5.35704
5.36394
5.36903
5.37249
1.43814
1.97253
2.39879
2.72378
2.99077
3.21998
3.42194
3.60274
3.76625
3.91511
4.05123
4.17605
4.29071
4.39617
4.49321
4.58254
4.66475
4.74041
4.80999
4.87394
4.93268
4.98657
5.03596
5.08115
5.12243
5.16006
5.19427
5.22528
5.25326
5.2784
5.30085
5.32075
5.33823
5.35338
5.36633
5.37715
5.38594
5.39281
5.39787
5.40132
1.44422
1.98575
2.41588
2.74354
3.01261
3.24354
3.44694
3.62896
3.7935
3.94322
4.08006
4.20546
4.32059
4.42641
4.52372
4.61324
4.69557
4.77128
4.84087
4.90479
4.96346
5.01726
5.06654
5.1116
5.15275
5.19023
5.2243
5.25516
5.283
5.30801
5.33033
5.35012
5.36748
5.38255
5.39541
5.40616
5.4149
5.42173
5.42677
5.43022
1.45036
1.99913
2.43317
2.76352
3.03469
3.26736
3.47221
3.65544
3.82102
3.9716
4.10915
4.23513
4.35071
4.45688
4.55445
4.64414
4.72658
4.80233
4.87192
4.93579
4.99439
5.04809
5.09724
5.14217
5.18317
5.2205
5.25441
5.28512
5.31282
5.33769
5.35988
5.37955
5.3968
5.41177
5.42455
5.43523
5.44392
5.45071
5.45572
5.45917
1.45655
2.01269
2.45066
2.78373
3.05703
3.29144
3.49774
3.68221
3.84881
4.00026
4.1385
4.26505
4.38108
4.48759
4.5854
4.67525
4.75778
4.83357
4.90313
4.96695
5.02546
5.07904
5.12806
5.17285
5.21369
5.25087
5.28462
5.31517
5.34272
5.36744
5.3895
5.40904
5.42619
5.44106
5.45375
5.46436
5.47299
5.47974
5.48473
5.48817
1.4628
2.02639
2.46836
2.80418
3.07963
3.31578
3.52356
3.70926
3.87689
4.02919
4.16813
4.29523
4.4117
4.51854
4.61658
4.70658
4.78919
4.86499
4.93452
4.99828
5.05668
5.11014
5.15901
5.20364
5.24432
5.28133
5.31491
5.3453
5.37269
5.39727
5.41919
5.4386
5.45564
5.4704
5.48301
5.49355
5.50212
5.50883
5.5138
5.51723
1.4691
2.04027
2.48628
2.82488
3.10248
3.34041
3.54966
3.73659
3.90525
4.0584
4.19804
4.32569
4.44258
4.54973
4.64799
4.73813
4.8208
4.89661
4.9661
5.02977
5.08806
5.14137
5.19009
5.23455
5.27505
5.31189
5.3453
5.37552
5.40275
5.42717
5.44895
5.46823
5.48515
5.49981
5.51233
5.52279
5.53131
5.53797
5.54292
5.54635
1.47546
2.05433
2.50442
2.84582
3.12561
3.36532
3.57605
3.76423
3.93391
4.08791
4.22823
4.35642
4.47372
4.58117
4.67964
4.76989
4.85262
4.92842
4.99786
5.06142
5.11958
5.17274
5.22129
5.26557
5.30589
5.34255
5.37578
5.40582
5.43288
5.45715
5.47878
5.49793
5.51472
5.52928
5.54171
5.5521
5.56055
5.56718
5.57209
5.57552
1.48188
2.06855
2.52278
2.86702
3.14901
3.39052
3.60274
3.79216
3.96288
4.11772
4.25871
4.38743
4.50513
4.61287
4.71152
4.80188
4.88464
4.96041
5.02977
5.09323
5.15124
5.20424
5.25261
5.29671
5.33684
5.3733
5.40634
5.43621
5.4631
5.4872
5.50868
5.52769
5.54437
5.55881
5.57115
5.58146
5.58986
5.59644
5.60133
5.60475
1.48836
2.08296
2.54137
2.88848
3.17269
3.41602
3.62975
3.82041
3.99216
4.14783
4.28949
4.41873
4.53682
4.64483
4.74366
4.8341
4.91687
4.9926
5.06187
5.1252
5.18306
5.23588
5.28406
5.32796
5.36789
5.40415
5.437
5.46668
5.49339
5.51732
5.53865
5.55752
5.57407
5.58841
5.60065
5.61089
5.61922
5.62576
5.63062
5.63403
1.49489
2.09756
2.5602
2.91021
3.19668
3.44183
3.65707
3.84898
4.02176
4.17825
4.32057
4.45032
4.56879
4.67705
4.77604
4.86655
4.94932
5.02499
5.09415
5.15734
5.21503
5.26766
5.31564
5.35933
5.39905
5.4351
5.46775
5.49723
5.52376
5.54752
5.5687
5.58742
5.60384
5.61807
5.63021
5.64037
5.64864
5.65513
5.65997
5.66338
1.50148
2.11235
2.57928
2.93222
3.22096
3.46795
3.68471
3.87789
4.05169
4.20901
4.35197
4.48223
4.60105
4.70955
4.80867
4.89923
4.98198
5.05758
5.12661
5.18964
5.24715
5.29958
5.34735
5.39082
5.43032
5.46616
5.49859
5.52787
5.55421
5.5778
5.59881
5.61739
5.63368
5.64779
5.65983
5.66991
5.67812
5.68456
5.68938
5.69278
1.50812
2.12732
2.59861
2.95451
3.24555
3.49441
3.7127
3.90713
4.08196
4.24012
4.38373
4.51445
4.63361
4.74232
4.84155
4.93215
5.01486
5.09036
5.15926
5.22211
5.27942
5.33164
5.37918
5.42242
5.46169
5.4973
5.52952
5.5586
5.58474
5.60815
5.62899
5.64742
5.66358
5.67757
5.68952
5.69951
5.70766
5.71406
5.71884
5.72224
1.51483
2.14251
2.61819
2.9771
3.27046
3.5212
3.74103
3.93672
4.11257
4.27154
4.41579
4.54697
4.66645
4.77536
4.8747
4.96531
5.04797
5.12336
5.1921
5.25476
5.31185
5.36384
5.41114
5.45414
5.49318
5.52855
5.56055
5.58941
5.61535
5.63857
5.65925
5.67753
5.69354
5.70742
5.71926
5.72918
5.73726
5.74361
5.74837
5.75176
1.52159
2.1579
2.63804
3
3.2957
3.54833
3.76971
3.96667
4.14354
4.30331
4.44816
4.5798
4.69959
4.80869
4.90811
4.99872
5.0813
5.15656
5.22512
5.28758
5.34444
5.39618
5.44324
5.48598
5.52476
5.5599
5.59166
5.6203
5.64604
5.66907
5.68957
5.7077
5.72357
5.73733
5.74907
5.7589
5.76692
5.77322
5.77795
5.78134
1.52842
2.17351
2.65818
3.02321
3.32128
3.57583
3.79876
3.99698
4.17487
4.33543
4.48089
4.61296
4.73304
4.84231
4.94179
5.03238
5.11486
5.18997
5.25834
5.32056
5.37718
5.42867
5.47545
5.51794
5.55646
5.59134
5.62287
5.65128
5.67681
5.69965
5.71997
5.73793
5.75367
5.76731
5.77894
5.78869
5.79664
5.80289
5.8076
5.81097
1.53531
2.18934
2.67859
3.04674
3.34722
3.60368
3.82819
4.02768
4.20658
4.36793
4.51397
4.64646
4.76681
4.87623
4.97575
5.06628
5.14865
5.22358
5.29174
5.35373
5.41008
5.46129
5.5078
5.55001
5.58826
5.62289
5.65416
5.68235
5.70766
5.7303
5.75044
5.76824
5.78384
5.79735
5.80888
5.81854
5.82642
5.83263
5.8373
5.84067
1.54227
2.20539
2.6993
3.07061
3.37351
3.63193
3.85801
4.05877
4.23867
4.4008
4.54742
4.6803
4.8009
4.91045
5.00999
5.10045
5.18268
5.25741
5.32534
5.38706
5.44314
5.49406
5.54028
5.5822
5.62017
5.65453
5.68555
5.71349
5.73858
5.76102
5.78098
5.79862
5.81407
5.82745
5.83888
5.84845
5.85626
5.86242
5.86707
5.87043
1.54929
2.22169
2.72032
3.09483
3.40018
3.66056
3.88823
4.09026
4.27117
4.43405
4.58122
4.71448
4.83533
4.94498
5.04451
5.13488
5.21693
5.29145
5.35912
5.42057
5.47635
5.52697
5.57288
5.6145
5.65219
5.68626
5.71702
5.74472
5.76959
5.79182
5.81159
5.82906
5.84436
5.85762
5.86894
5.87842
5.88616
5.89228
5.89689
5.90025
1.55638
2.23824
2.74164
3.1194
3.42724
3.6896
3.91886
4.12217
4.30407
4.46771
4.61543
4.74904
4.87011
4.97983
5.07932
5.16956
5.25143
5.32571
5.39311
5.45426
5.50972
5.56002
5.60561
5.64692
5.6843
5.71809
5.74858
5.77603
5.80067
5.82269
5.84227
5.85957
5.87472
5.88785
5.89906
5.90846
5.91613
5.92219
5.92678
5.93014
1.56355
2.25503
2.76331
3.14434
3.4547
3.71906
3.94992
4.1545
4.33739
4.50178
4.65004
4.78403
4.90524
5.01499
5.11441
5.20451
5.28617
5.36019
5.42729
5.48812
5.54324
5.5932
5.63847
5.67945
5.71652
5.75001
5.78023
5.80742
5.83182
5.85363
5.87302
5.89014
5.90515
5.91815
5.92925
5.93855
5.94616
5.95217
5.95673
5.96008
1.57079
2.27209
2.78531
3.16968
3.48257
3.74895
3.98143
4.18727
4.37114
4.53626
4.68501
4.81931
4.94067
5.05044
5.14979
5.23973
5.32115
5.39489
5.46166
5.52214
5.57692
5.62652
5.67144
5.71208
5.74883
5.78203
5.81196
5.83889
5.86305
5.88464
5.90383
5.92079
5.93564
5.94851
5.9595
5.96871
5.97625
5.98221
5.98674
5.99009
1.5781
2.28943
2.80765
3.1954
3.51088
3.77929
4.01338
4.2205
4.40533
4.57115
4.72038
4.85495
4.97645
5.08623
5.18547
5.2752
5.35636
5.42978
5.49621
5.55633
5.61073
5.65997
5.70453
5.74482
5.78125
5.81413
5.84377
5.87043
5.89435
5.91572
5.93471
5.95149
5.96619
5.97893
5.98981
5.99893
6.0064
6.01232
6.01682
6.02016
1.5855
2.30705
2.83037
3.22155
3.53962
3.81009
4.04581
4.25419
4.43998
4.60648
4.75617
4.89099
5.0126
5.12235
5.22144
5.31093
5.3918
5.46488
5.53094
5.59068
5.6447
5.69355
5.73773
5.77767
5.81375
5.84632
5.87566
5.90205
5.92572
5.94686
5.96566
5.98226
5.99681
6.00941
6.02018
6.02922
6.03661
6.04248
6.04695
6.05029
1.59298
2.32496
2.85347
3.24812
3.56883
3.84137
4.07872
4.28836
4.47509
4.64227
4.79239
4.92746
5.04913
5.1588
5.2577
5.34693
5.42747
5.50019
5.56586
5.62519
5.6788
5.72726
5.77105
5.81062
5.84635
5.87859
5.90763
5.93375
5.95716
5.97808
5.99667
6.0131
6.02749
6.03996
6.05062
6.05956
6.06689