/*--------------------------------*- C++ -*----------------------------------*\
| =========                 |                                                 |
| \\      /  F ield         | OpenFOAM: The Open Source CFD Toolbox           |
|  \\    /   O peration     | Version:  2.3.0                                 |
|   \\  /    A nd           | Web:      www.OpenFOAM.org                      |
|    \\/     M anipulation  |                                                 |
\*---------------------------------------------------------------------------*/
FoamFile
{
    version     2.0;
    format      ascii;
    class       volScalarField;
    location    "10";
    object      N2;
}
// * * * * * * * * * * * * * * * * * * * * * * * * * * * * * * * * * * * * * //

dimensions      [0 0 0 0 0 0 0];

internalField   nonuniform List<scalar> 
26600
(
0.766
0.766
0.766
0.766
0.766
0.766
0.766
0.766
0.765999
0.765998
0.765996
0.765993
0.765988
0.765981
0.765972
0.765962
0.765948
0.765932
0.765916
0.765897
0.765876
0.76585
0.765821
0.76579
0.765755
0.765716
0.765671
0.765624
0.765571
0.765519
0.765466
0.765415
0.765367
0.765316
0.765267
0.76523
0.76518
0.765139
0.765086
0.765013
0.766
0.766
0.766
0.766
0.766
0.766
0.765999
0.765997
0.765994
0.765989
0.765978
0.765964
0.765939
0.765918
0.765877
0.765848
0.765793
0.765754
0.765687
0.765615
0.765546
0.765458
0.765349
0.765241
0.765094
0.764973
0.764787
0.764687
0.764465
0.764339
0.764263
0.764152
0.764057
0.763923
0.763837
0.763737
0.763639
0.763551
0.763308
0.764114
0.766
0.766
0.766
0.766
0.766
0.765999
0.765996
0.765991
0.765981
0.765961
0.765925
0.765888
0.765821
0.765766
0.765666
0.765593
0.765468
0.765363
0.765235
0.765038
0.764906
0.764711
0.764375
0.764236
0.764077
0.763872
0.763588
0.76334
0.763043
0.76276
0.762311
0.761926
0.761526
0.761198
0.760905
0.7606
0.760385
0.760068
0.75963
0.75927
0.766
0.766
0.766
0.766
0.765999
0.765996
0.765989
0.765976
0.765953
0.765908
0.76584
0.765762
0.765636
0.765526
0.765335
0.765193
0.76497
0.764754
0.764529
0.764112
0.763928
0.763605
0.763296
0.762998
0.762515
0.762008
0.761407
0.760908
0.760211
0.759464
0.758907
0.758344
0.757673
0.757229
0.756364
0.755818
0.755212
0.754578
0.753888
0.75304
0.766
0.766
0.766
0.765999
0.765996
0.76599
0.765976
0.765948
0.7659
0.76581
0.76569
0.765544
0.765313
0.765112
0.764756
0.764511
0.764138
0.763684
0.76343
0.763026
0.762445
0.761866
0.761093
0.760249
0.759708
0.759031
0.758016
0.7572
0.755423
0.754215
0.752647
0.750916
0.749137
0.747368
0.745552
0.74364
0.741464
0.739375
0.735489
0.739793
0.766
0.766
0.766
0.765997
0.765991
0.765976
0.765947
0.765894
0.765801
0.765627
0.765425
0.765151
0.764738
0.764377
0.763696
0.763314
0.762994
0.76229
0.761503
0.760944
0.759679
0.758426
0.75678
0.755693
0.754099
0.752013
0.749502
0.746861
0.743843
0.740786
0.736478
0.731135
0.725882
0.720454
0.714769
0.708674
0.700875
0.692533
0.685428
0.674382
0.766
0.766
0.765999
0.765993
0.765979
0.765949
0.765892
0.765788
0.765612
0.765292
0.764964
0.764438
0.7637
0.763016
0.762394
0.761403
0.760623
0.759588
0.757887
0.756557
0.751767
0.748541
0.74583
0.743615
0.740196
0.733809
0.725255
0.715105
0.707597
0.69889
0.690967
0.679557
0.670887
0.655324
0.645922
0.631709
0.614055
0.599895
0.580573
0.588151
0.766
0.766
0.765996
0.765984
0.765956
0.765898
0.765789
0.76559
0.765255
0.764691
0.764165
0.763081
0.762522
0.761126
0.759574
0.757841
0.755711
0.7529
0.74921
0.745671
0.719316
0.720356
0.714695
0.708383
0.697033
0.684645
0.665227
0.644907
0.634292
0.622164
0.606252
0.593543
0.571439
0.5592
0.529291
0.510058
0.494961
0.479206
0.462796
0.460868
0.766
0.765998
0.76599
0.765967
0.765914
0.765804
0.765596
0.765219
0.764577
0.763616
0.762751
0.761524
0.759877
0.757046
0.753784
0.749341
0.743748
0.734286
0.722725
0.707562
0.696212
0.681102
0.664464
0.643275
0.627053
0.59887
0.558992
0.543443
0.521982
0.501593
0.487196
0.471738
0.447877
0.404854
0.36703
0.341603
0.32488
0.319883
0.320958
0.329531
0.766
0.765996
0.765979
0.765936
0.765837
0.765632
0.765237
0.764502
0.763252
0.762374
0.760777
0.757258
0.753452
0.747953
0.738895
0.719357
0.700819
0.678193
0.665225
0.63832
0.623826
0.599984
0.583284
0.534315
0.500341
0.463048
0.419936
0.373462
0.344582
0.323873
0.300699
0.274841
0.252772
0.23352
0.226877
0.225065
0.226613
0.230432
0.236679
0.248803
0.765999
0.765989
0.765958
0.765878
0.765695
0.76531
0.764539
0.763034
0.76198
0.7599
0.755131
0.748637
0.738431
0.715441
0.683156
0.651789
0.632546
0.603419
0.588473
0.546625
0.512374
0.481597
0.415148
0.338964
0.265075
0.223588
0.200467
0.192686
0.189014
0.181599
0.172852
0.165454
0.162916
0.164138
0.167259
0.173978
0.183194
0.192857
0.202145
0.218765
0.765995
0.765973
0.765915
0.765766
0.765424
0.764671
0.763076
0.76154
0.758556
0.753025
0.743246
0.716956
0.684789
0.643766
0.615932
0.59354
0.539488
0.505876
0.445385
0.366426
0.291887
0.231197
0.177038
0.155988
0.143973
0.128891
0.120831
0.116001
0.114406
0.115527
0.117948
0.121496
0.127891
0.136845
0.147048
0.158681
0.171457
0.184453
0.198492
0.216164
0.765982
0.765937
0.765824
0.765537
0.764858
0.763276
0.761768
0.757497
0.750124
0.734238
0.69169
0.647543
0.619168
0.591427
0.525066
0.457904
0.356416
0.260221
0.193595
0.163378
0.14276
0.116553
0.0936383
0.0822925
0.0725762
0.0729056
0.0757155
0.081071
0.08826
0.09613
0.104881
0.114135
0.124847
0.136862
0.150028
0.164372
0.179953
0.197591
0.216548
0.23882
0.765952
0.76586
0.765623
0.765014
0.763522
0.762036
0.757374
0.747516
0.724613
0.674195
0.61361
0.593167
0.5372
0.462546
0.350196
0.229168
0.158364
0.142524
0.106999
0.0823704
0.0583718
0.0488512
0.0485562
0.0509881
0.0558407
0.0626895
0.0700894
0.0786374
0.0881945
0.0985891
0.109814
0.122353
0.135744
0.150151
0.165687
0.182454
0.200582
0.220387
0.242159
0.267116
0.765892
0.765685
0.765114
0.763609
0.762271
0.757642
0.745926
0.709423
0.667249
0.592626
0.554716
0.474734
0.381318
0.2503
0.159547
0.13417
0.101373
0.0554351
0.0387968
0.0332752
0.0337403
0.0362585
0.0411858
0.0484556
0.057024
0.0665049
0.0771728
0.0883
0.0998474
0.11191
0.124702
0.138506
0.153341
0.169284
0.186435
0.204889
0.224765
0.246251
0.26966
0.295623
0.765758
0.765208
0.76349
0.762185
0.757693
0.745201
0.705329
0.642053
0.591743
0.527224
0.433053
0.315904
0.197789
0.131639
0.110523
0.0584064
0.0337718
0.0240378
0.0231916
0.0251706
0.0296972
0.036984
0.0462358
0.05709
0.0683139
0.0798187
0.0919312
0.104542
0.117277
0.130335
0.144152
0.158968
0.174876
0.191952
0.210273
0.229902
0.250906
0.273377
0.297461
0.323365
0.765354
0.763489
0.761672
0.757942
0.745155
0.703739
0.624409
0.589041
0.500167
0.372569
0.240992
0.155535
0.127163
0.0897614
0.0415997
0.0226896
0.0165097
0.0171115
0.0198969
0.0260212
0.0354747
0.0470565
0.0590859
0.0726107
0.08518
0.0978153
0.111212
0.125121
0.138517
0.152092
0.166669
0.182325
0.199076
0.216981
0.236092
0.256434
0.278011
0.300814
0.324828
0.350005
0.763889
0.761262
0.75771
0.74608
0.700969
0.611617
0.554607
0.444681
0.315558
0.1811
0.152626
0.114063
0.0570645
0.0278668
0.0154622
0.0116252
0.0124807
0.0159883
0.0236895
0.0351518
0.047956
0.0628159
0.0764999
0.0928087
0.105393
0.118572
0.133523
0.14904
0.162334
0.175885
0.19121
0.207631
0.225016
0.243457
0.262993
0.283611
0.305258
0.327846
0.351248
0.375285
0.759588
0.754962
0.744306
0.701135
0.585794
0.526162
0.389147
0.253461
0.156998
0.129147
0.0767566
0.0398964
0.0191469
0.0104659
0.00807568
0.0089773
0.0125462
0.0214499
0.0337539
0.0493229
0.0644204
0.0826214
0.0961962
0.11319
0.128444
0.143125
0.158092
0.173343
0.188498
0.202058
0.217185
0.234146
0.251894
0.270559
0.290166
0.310668
0.331967
0.353922
0.376345
0.399004
0.739598
0.732991
0.708148
0.561644
0.435247
0.330387
0.176996
0.143339
0.103115
0.0495435
0.0254115
0.0128373
0.00632449
0.00542401
0.00625348
0.0097381
0.0180908
0.0324804
0.047762
0.0673733
0.0829638
0.10222
0.119814
0.137016
0.153153
0.168578
0.183805
0.199117
0.214678
0.228824
0.244115
0.261174
0.278964
0.297551
0.316916
0.336979
0.35761
0.378639
0.399857
0.42102
0.00922308
0.208971
0.220718
0.205466
0.182709
0.144776
0.1011
0.0531338
0.0284265
0.0144781
0.00731506
0.00352445
0.00317224
0.00392091
0.00705284
0.0150299
0.0282462
0.0471907
0.0638993
0.0845192
0.105437
0.125667
0.144468
0.162142
0.178721
0.194505
0.209905
0.225256
0.240799
0.255448
0.271098
0.287979
0.305556
0.323812
0.342684
0.362063
0.381804
0.401724
0.421619
0.441259
0.0006454
0.0169447
0.0313834
0.0309941
0.0270737
0.0193901
0.0122139
0.00710002
0.00392219
0.00213839
0.00124658
0.00136566
0.00212341
0.00458012
0.0113314
0.0239889
0.0420113
0.0599735
0.0834789
0.106809
0.129221
0.150243
0.169641
0.187606
0.204384
0.220312
0.235768
0.251084
0.266486
0.281527
0.297338
0.31392
0.331112
0.34885
0.367047
0.38558
0.404296
0.42302
0.44156
0.459713
0.000106218
0.00116937
0.00303345
0.00306391
0.00282678
0.00219088
0.00151931
0.00106581
0.000711272
0.000465658
0.000525164
0.00106053
0.00294439
0.00762854
0.0193635
0.0334792
0.0551466
0.0799407
0.105385
0.130177
0.153497
0.174987
0.194644
0.212719
0.229545
0.245485
0.260891
0.2761
0.291344
0.306604
0.322298
0.33852
0.355217
0.372318
0.389727
0.40732
0.424952
0.442459
0.459672
0.476416
2.78964e-05
0.000139644
0.000368728
0.000468083
0.000493833
0.000471186
0.000373719
0.00027609
0.000198442
0.000221604
0.000445575
0.00162093
0.00571221
0.0126008
0.0261691
0.0477635
0.0733851
0.100808
0.127815
0.153668
0.177519
0.199215
0.218923
0.236973
0.253744
0.269609
0.284861
0.299884
0.315038
0.330227
0.345679
0.361477
0.377603
0.393995
0.410559
0.427179
0.443723
0.460044
0.475996
0.491432
8.11442e-06
2.73387e-05
6.47711e-05
0.000112408
0.00014108
0.000137848
0.00011639
8.38129e-05
9.38361e-05
0.000190248
0.000791228
0.00329242
0.00810837
0.018929
0.038284
0.0632056
0.0917024
0.121575
0.15007
0.176658
0.200738
0.222433
0.242051
0.259983
0.276631
0.292355
0.3072
0.322266
0.337222
0.352187
0.367298
0.382614
0.398125
0.413776
0.429483
0.445141
0.460633
0.475832
0.490615
0.50486
2.3669e-06
7.03666e-06
1.4902e-05
2.84541e-05
4.2575e-05
4.20988e-05
3.493e-05
3.81877e-05
7.61678e-05
0.000340735
0.00169216
0.00486491
0.0122685
0.0285343
0.0520949
0.0802396
0.11077
0.141725
0.171854
0.198711
0.222744
0.244283
0.263723
0.281484
0.29796
0.313298
0.327977
0.342957
0.357684
0.372347
0.387055
0.401853
0.416732
0.431643
0.446513
0.46125
0.475753
0.489916
0.503633
0.516808
7.2826e-07
2.00828e-06
3.36317e-06
6.13746e-06
1.1722e-05
1.24632e-05
1.39531e-05
3.13122e-05
0.000123032
0.000752355
0.00256474
0.00776061
0.0213175
0.0432413
0.0705259
0.100924
0.132474
0.163572
0.192914
0.219471
0.243243
0.264527
0.283736
0.301308
0.317448
0.332223
0.347215
0.361898
0.376335
0.39065
0.404924
0.419193
0.433446
0.447642
0.461718
0.475595
0.489187
0.502407
0.515168
0.527392
2.61128e-07
5.94415e-07
8.41254e-07
1.60028e-06
3.39829e-06
4.35144e-06
8.78371e-06
4.50337e-05
0.000270664
0.00116251
0.00434425
0.013905
0.0324314
0.0580314
0.0880232
0.120085
0.15239
0.183636
0.212427
0.238589
0.262027
0.283015
0.301973
0.319329
0.334873
0.349616
0.364585
0.379022
0.393154
0.407102
0.420936
0.434684
0.448337
0.46186
0.475198
0.488287
0.501055
0.513429
0.52534
0.536724
1.17225e-07
2.02995e-07
3.02432e-07
6.1953e-07
1.24626e-06
2.25644e-06
1.00952e-05
6.78217e-05
0.000448822
0.00210922
0.00799776
0.0217149
0.0439368
0.0722587
0.1042
0.137467
0.170291
0.201527
0.230043
0.255881
0.278996
0.29969
0.318379
0.335142
0.350421
0.365581
0.380208
0.39436
0.408178
0.42176
0.435165
0.448416
0.461507
0.474407
0.487073
0.499451
0.511481
0.523105
0.534267
0.544915
2.94627e-08
7.06621e-08
1.3078e-07
2.88889e-07
5.88491e-07
2.11058e-06
1.85206e-05
0.000144972
0.000860968
0.00396046
0.0126114
0.0299293
0.0548305
0.0852601
0.118718
0.152927
0.186125
0.21694
0.245687
0.27131
0.294145
0.314565
0.332717
0.348936
0.364746
0.379724
0.394088
0.407968
0.42148
0.43471
0.447709
0.460497
0.473071
0.485407
0.497469
0.509213
0.520591
0.531556
0.542062
0.55207
6.4496e-09
2.10054e-08
5.69224e-08
1.29333e-07
4.70499e-07
3.85641e-06
3.91339e-05
0.000290393
0.00164162
0.00627253
0.0175493
0.0374247
0.0645129
0.0966989
0.131441
0.166467
0.20012
0.231156
0.259557
0.28494
0.30753
0.327611
0.344812
0.361654
0.377347
0.392156
0.4063
0.419928
0.433153
0.446055
0.458678
0.471045
0.483152
0.494983
0.506509
0.517694
0.528501
0.538892
0.54883
0.558285
1.86702e-09
6.14592e-09
1.99344e-08
8.38119e-08
7.889e-07
8.66541e-06
7.97327e-05
0.000552812
0.00256271
0.00858269
0.0219863
0.0438492
0.0727851
0.106508
0.142387
0.17814
0.212184
0.243387
0.271653
0.296851
0.319213
0.338546
0.355757
0.372725
0.38833
0.402987
0.416937
0.430338
0.443302
0.455904
0.468188
0.480176
0.491869
0.503254
0.51431
0.525009
0.535321
0.545216
0.554665
0.563645
7.61715e-10
2.9886e-09
1.63333e-08
1.86633e-07
1.90019e-06
1.88018e-05
0.000151401
0.000843049
0.00342764
0.010578
0.02565
0.0491532
0.0796833
0.114767
0.151665
0.188057
0.222262
0.253827
0.282074
0.307165
0.329013
0.347587
0.365628
0.382342
0.397813
0.412325
0.426102
0.439301
0.45203
0.464364
0.476347
0.488001
0.499331
0.510329
0.520979
0.53126
0.541147
0.550618
0.55965
0.568226
5.87965e-10
4.04904e-09
3.82952e-08
4.455e-07
4.06285e-06
3.52434e-05
0.000227402
0.00110692
0.00415388
0.0121938
0.0285667
0.0534381
0.0853386
0.121617
0.159428
0.196445
0.231091
0.262709
0.290944
0.315905
0.336953
0.355664
0.373926
0.390533
0.405886
0.420268
0.433892
0.446912
0.459437
0.471537
0.483258
0.494623
0.505641
0.516307
0.526611
0.536536
0.546065
0.555178
0.56386
0.572096
7.57633e-10
7.01282e-09
7.52674e-08
8.12448e-07
7.02174e-06
5.24678e-05
0.000298093
0.00133283
0.00474352
0.0134775
0.0308331
0.0568323
0.0898893
0.127196
0.165811
0.203393
0.238388
0.270126
0.298409
0.32289
0.343215
0.362859
0.380897
0.397388
0.412635
0.426903
0.440396
0.453263
0.465611
0.477511
0.489009
0.50013
0.510885
0.521273
0.531288
0.540917
0.550147
0.558964
0.567355
0.57531
1.0544e-09
1.06197e-08
1.18229e-07
1.17398e-06
9.94835e-06
6.83763e-05
0.000359315
0.0015189
0.00520984
0.0144692
0.0325599
0.0594589
0.0934649
0.131632
0.17093
0.208991
0.24429
0.276168
0.304484
0.328337
0.348606
0.368582
0.386567
0.402976
0.418136
0.432308
0.44569
0.45843
0.470631
0.482366
0.493679
0.504599
0.515138
0.525299
0.535078
0.544467
0.553454
0.562031
0.570187
0.577916
1.35712e-09
1.39661e-08
1.54428e-07
1.50022e-06
1.25418e-05
8.18818e-05
0.000409327
0.00166568
0.00556612
0.0152096
0.0338391
0.0614264
0.0961796
0.135037
0.174889
0.21333
0.248898
0.280929
0.309177
0.332405
0.353004
0.373069
0.391015
0.407361
0.422452
0.436546
0.449839
0.462477
0.474561
0.486164
0.497331
0.508092
0.518461
0.528444
0.538038
0.547238
0.556037
0.564427
0.5724
0.579952
1.60105e-09
1.64469e-08
1.79593e-07
1.74769e-06
1.45704e-05
9.22888e-05
0.000447053
0.0017739
0.00582279
0.0157333
0.0347394
0.062822
0.0981267
0.137502
0.177774
0.216501
0.252281
0.284432
0.312427
0.335064
0.356656
0.376437
0.394301
0.410593
0.42563
0.439666
0.452893
0.465454
0.477451
0.488956
0.500015
0.510658
0.520902
0.530752
0.54021
0.549272
0.557932
0.566185
0.574024
0.581446
1.76071e-09
1.79491e-08
1.9477e-07
1.90675e-06
1.59222e-05
9.92042e-05
0.000471854
0.00184409
0.00598695
0.0160645
0.0353079
0.0637088
0.0993741
0.139093
0.179649
0.218594
0.254488
0.286708
0.314482
0.336968
0.358918
0.378634
0.396447
0.412701
0.427702
0.441699
0.454882
0.467393
0.479333
0.490773
0.501761
0.512327
0.522488
0.532253
0.541623
0.550594
0.559164
0.567327
0.575079
0.582418
1.83036e-09
1.86024e-08
2.01389e-07
1.97816e-06
1.65343e-05
0.000102327
0.00048303
0.00187552
0.00605993
0.0162112
0.0355602
0.0641044
0.0999333
0.139809
0.180496
0.219537
0.255485
0.287735
0.315402
0.337856
0.35992
0.379625
0.397418
0.413654
0.428639
0.442618
0.455781
0.468269
0.480182
0.491593
0.502549
0.51308
0.523204
0.53293
0.54226
0.551191
0.55972
0.567843
0.575556
0.582857
0.682864
0.682852
0.682843
0.682834
0.682827
0.68282
0.682813
0.682806
0.682799
0.682793
0.682787
0.682781
0.682774
0.682769
0.682763
0.682757
0.682752
0.682746
0.682741
0.682736
0.682732
0.682727
0.682723
0.682719
0.682715
0.682711
0.682708
0.682704
0.682701
0.682699
0.682696
0.682694
0.682692
0.68269
0.682689
0.682687
0.682686
0.682686
0.682685
0.682685
0.682865
0.682853
0.682843
0.682835
0.682827
0.68282
0.682813
0.682806
0.6828
0.682793
0.682787
0.68278
0.682774
0.682768
0.682763
0.682757
0.682751
0.682746
0.682741
0.682736
0.682731
0.682727
0.682722
0.682718
0.682714
0.682711
0.682707
0.682704
0.682701
0.682698
0.682696
0.682694
0.682692
0.68269
0.682688
0.682687
0.682686
0.682685
0.682685
0.682685
0.682865
0.682854
0.682844
0.682835
0.682828
0.68282
0.682813
0.682806
0.6828
0.682793
0.682787
0.68278
0.682774
0.682768
0.682762
0.682757
0.682751
0.682746
0.682741
0.682736
0.682731
0.682726
0.682722
0.682718
0.682714
0.68271
0.682707
0.682703
0.6827
0.682698
0.682695
0.682693
0.682691
0.682689
0.682688
0.682686
0.682685
0.682684
0.682684
0.682684
0.682866
0.682854
0.682844
0.682836
0.682828
0.682821
0.682814
0.682807
0.6828
0.682793
0.682787
0.68278
0.682774
0.682768
0.682762
0.682756
0.682751
0.682745
0.68274
0.682735
0.68273
0.682726
0.682721
0.682717
0.682713
0.682709
0.682706
0.682703
0.6827
0.682697
0.682694
0.682692
0.68269
0.682688
0.682687
0.682685
0.682684
0.682684
0.682683
0.682683
0.682867
0.682855
0.682845
0.682836
0.682828
0.682821
0.682814
0.682807
0.6828
0.682793
0.682787
0.68278
0.682774
0.682768
0.682762
0.682756
0.682751
0.682745
0.68274
0.682735
0.68273
0.682725
0.682721
0.682716
0.682712
0.682709
0.682705
0.682702
0.682699
0.682696
0.682693
0.682691
0.682689
0.682687
0.682686
0.682684
0.682683
0.682682
0.682682
0.682682
0.682868
0.682856
0.682845
0.682837
0.682829
0.682821
0.682814
0.682807
0.6828
0.682793
0.682787
0.68278
0.682774
0.682768
0.682762
0.682756
0.68275
0.682745
0.682739
0.682734
0.682729
0.682724
0.68272
0.682716
0.682712
0.682708
0.682704
0.682701
0.682698
0.682695
0.682692
0.68269
0.682688
0.682686
0.682684
0.682683
0.682682
0.682681
0.682681
0.682681
0.682868
0.682856
0.682846
0.682837
0.682829
0.682822
0.682814
0.682807
0.6828
0.682794
0.682787
0.68278
0.682774
0.682768
0.682761
0.682756
0.68275
0.682744
0.682739
0.682733
0.682728
0.682724
0.682719
0.682715
0.682711
0.682707
0.682703
0.6827
0.682697
0.682694
0.682691
0.682689
0.682687
0.682685
0.682683
0.682682
0.682681
0.68268
0.68268
0.682679
0.682869
0.682857
0.682847
0.682838
0.68283
0.682822
0.682815
0.682808
0.682801
0.682794
0.682787
0.68278
0.682774
0.682767
0.682761
0.682755
0.682749
0.682744
0.682738
0.682733
0.682728
0.682723
0.682718
0.682714
0.68271
0.682706
0.682702
0.682699
0.682696
0.682693
0.68269
0.682688
0.682686
0.682684
0.682682
0.682681
0.68268
0.682679
0.682678
0.682678
0.68287
0.682857
0.682847
0.682838
0.68283
0.682822
0.682815
0.682808
0.682801
0.682794
0.682787
0.68278
0.682774
0.682767
0.682761
0.682755
0.682749
0.682743
0.682738
0.682732
0.682727
0.682722
0.682718
0.682713
0.682709
0.682705
0.682701
0.682698
0.682695
0.682692
0.682689
0.682687
0.682685
0.682683
0.682681
0.68268
0.682679
0.682678
0.682677
0.682677
0.68287
0.682858
0.682848
0.682839
0.682831
0.682823
0.682815
0.682808
0.682801
0.682794
0.682787
0.68278
0.682773
0.682767
0.682761
0.682754
0.682748
0.682743
0.682737
0.682732
0.682727
0.682722
0.682717
0.682712
0.682708
0.682704
0.6827
0.682697
0.682694
0.682691
0.682688
0.682686
0.682683
0.682681
0.68268
0.682678
0.682677
0.682677
0.682676
0.682676
0.682871
0.682859
0.682848
0.682839
0.682831
0.682823
0.682816
0.682808
0.682801
0.682794
0.682787
0.68278
0.682773
0.682767
0.68276
0.682754
0.682748
0.682742
0.682736
0.682731
0.682726
0.682721
0.682716
0.682711
0.682707
0.682703
0.682699
0.682696
0.682693
0.68269
0.682687
0.682684
0.682682
0.68268
0.682679
0.682677
0.682676
0.682675
0.682675
0.682675
0.682872
0.682859
0.682849
0.68284
0.682832
0.682824
0.682816
0.682808
0.682801
0.682794
0.682787
0.68278
0.682773
0.682767
0.68276
0.682754
0.682748
0.682742
0.682736
0.68273
0.682725
0.68272
0.682715
0.682711
0.682706
0.682702
0.682698
0.682695
0.682691
0.682688
0.682686
0.682683
0.682681
0.682679
0.682677
0.682676
0.682675
0.682674
0.682673
0.682673
0.682873
0.68286
0.68285
0.68284
0.682832
0.682824
0.682816
0.682809
0.682801
0.682794
0.682787
0.68278
0.682773
0.682766
0.68276
0.682753
0.682747
0.682741
0.682735
0.68273
0.682724
0.682719
0.682714
0.68271
0.682705
0.682701
0.682697
0.682694
0.68269
0.682687
0.682684
0.682682
0.68268
0.682678
0.682676
0.682675
0.682674
0.682673
0.682672
0.682672
0.682874
0.682861
0.68285
0.682841
0.682833
0.682824
0.682817
0.682809
0.682801
0.682794
0.682787
0.68278
0.682773
0.682766
0.682759
0.682753
0.682747
0.682741
0.682735
0.682729
0.682724
0.682718
0.682714
0.682709
0.682704
0.6827
0.682696
0.682693
0.682689
0.682686
0.682683
0.682681
0.682678
0.682677
0.682675
0.682673
0.682672
0.682671
0.682671
0.682671
0.682874
0.682862
0.682851
0.682842
0.682833
0.682825
0.682817
0.682809
0.682802
0.682794
0.682787
0.68278
0.682773
0.682766
0.682759
0.682753
0.682746
0.68274
0.682734
0.682728
0.682723
0.682718
0.682713
0.682708
0.682703
0.682699
0.682695
0.682692
0.682688
0.682685
0.682682
0.68268
0.682677
0.682675
0.682674
0.682672
0.682671
0.68267
0.68267
0.682669
0.682875
0.682862
0.682852
0.682842
0.682834
0.682825
0.682817
0.68281
0.682802
0.682794
0.682787
0.68278
0.682773
0.682766
0.682759
0.682752
0.682746
0.68274
0.682734
0.682728
0.682722
0.682717
0.682712
0.682707
0.682702
0.682698
0.682694
0.68269
0.682687
0.682684
0.682681
0.682678
0.682676
0.682674
0.682672
0.682671
0.68267
0.682669
0.682668
0.682668
0.682876
0.682863
0.682852
0.682843
0.682834
0.682826
0.682818
0.68281
0.682802
0.682794
0.682787
0.68278
0.682772
0.682765
0.682758
0.682752
0.682745
0.682739
0.682733
0.682727
0.682721
0.682716
0.682711
0.682706
0.682701
0.682697
0.682693
0.682689
0.682686
0.682683
0.68268
0.682677
0.682675
0.682673
0.682671
0.682669
0.682668
0.682667
0.682667
0.682667
0.682877
0.682864
0.682853
0.682843
0.682835
0.682826
0.682818
0.68281
0.682802
0.682795
0.682787
0.68278
0.682772
0.682765
0.682758
0.682751
0.682745
0.682738
0.682732
0.682726
0.682721
0.682715
0.68271
0.682705
0.6827
0.682696
0.682692
0.682688
0.682685
0.682681
0.682678
0.682676
0.682673
0.682671
0.68267
0.682668
0.682667
0.682666
0.682665
0.682665
0.682878
0.682865
0.682854
0.682844
0.682835
0.682827
0.682818
0.68281
0.682802
0.682795
0.682787
0.682779
0.682772
0.682765
0.682758
0.682751
0.682744
0.682738
0.682732
0.682726
0.68272
0.682714
0.682709
0.682704
0.682699
0.682695
0.682691
0.682687
0.682683
0.68268
0.682677
0.682674
0.682672
0.68267
0.682668
0.682667
0.682665
0.682665
0.682664
0.682664
0.682879
0.682866
0.682854
0.682845
0.682836
0.682827
0.682819
0.682811
0.682803
0.682795
0.682787
0.682779
0.682772
0.682765
0.682758
0.682751
0.682744
0.682737
0.682731
0.682725
0.682719
0.682714
0.682708
0.682703
0.682698
0.682694
0.68269
0.682686
0.682682
0.682679
0.682676
0.682673
0.682671
0.682669
0.682667
0.682665
0.682664
0.682663
0.682663
0.682662
0.68288
0.682866
0.682855
0.682845
0.682836
0.682828
0.682819
0.682811
0.682803
0.682795
0.682787
0.682779
0.682772
0.682764
0.682757
0.68275
0.682743
0.682737
0.68273
0.682724
0.682718
0.682713
0.682707
0.682702
0.682697
0.682693
0.682689
0.682685
0.682681
0.682678
0.682675
0.682672
0.682669
0.682667
0.682665
0.682664
0.682663
0.682662
0.682661
0.682661
0.682881
0.682867
0.682856
0.682846
0.682837
0.682828
0.68282
0.682811
0.682803
0.682795
0.682787
0.682779
0.682772
0.682764
0.682757
0.68275
0.682743
0.682736
0.68273
0.682723
0.682718
0.682712
0.682706
0.682701
0.682696
0.682692
0.682687
0.682683
0.68268
0.682676
0.682673
0.68267
0.682668
0.682666
0.682664
0.682662
0.682661
0.68266
0.68266
0.682659
0.682882
0.682868
0.682857
0.682847
0.682837
0.682829
0.68282
0.682812
0.682803
0.682795
0.682787
0.682779
0.682771
0.682764
0.682757
0.682749
0.682742
0.682736
0.682729
0.682723
0.682717
0.682711
0.682705
0.6827
0.682695
0.682691
0.682686
0.682682
0.682679
0.682675
0.682672
0.682669
0.682667
0.682664
0.682663
0.682661
0.68266
0.682659
0.682658
0.682658
0.682883
0.682869
0.682857
0.682847
0.682838
0.682829
0.68282
0.682812
0.682803
0.682795
0.682787
0.682779
0.682771
0.682764
0.682756
0.682749
0.682742
0.682735
0.682728
0.682722
0.682716
0.68271
0.682704
0.682699
0.682694
0.68269
0.682685
0.682681
0.682677
0.682674
0.682671
0.682668
0.682665
0.682663
0.682661
0.682659
0.682658
0.682657
0.682657
0.682656
0.682884
0.68287
0.682858
0.682848
0.682839
0.68283
0.682821
0.682812
0.682804
0.682795
0.682787
0.682779
0.682771
0.682763
0.682756
0.682748
0.682741
0.682734
0.682728
0.682721
0.682715
0.682709
0.682704
0.682698
0.682693
0.682688
0.682684
0.68268
0.682676
0.682672
0.682669
0.682666
0.682664
0.682662
0.68266
0.682658
0.682657
0.682656
0.682655
0.682655
0.682885
0.682871
0.682859
0.682849
0.682839
0.68283
0.682821
0.682813
0.682804
0.682796
0.682787
0.682779
0.682771
0.682763
0.682755
0.682748
0.682741
0.682734
0.682727
0.68272
0.682714
0.682708
0.682703
0.682697
0.682692
0.682687
0.682683
0.682679
0.682675
0.682671
0.682668
0.682665
0.682662
0.68266
0.682658
0.682656
0.682655
0.682654
0.682654
0.682653
0.682886
0.682872
0.68286
0.68285
0.68284
0.682831
0.682822
0.682813
0.682804
0.682796
0.682787
0.682779
0.682771
0.682763
0.682755
0.682748
0.68274
0.682733
0.682726
0.68272
0.682713
0.682707
0.682702
0.682696
0.682691
0.682686
0.682681
0.682677
0.682673
0.68267
0.682666
0.682663
0.682661
0.682659
0.682657
0.682655
0.682654
0.682653
0.682652
0.682652
0.682887
0.682873
0.682861
0.68285
0.682841
0.682831
0.682822
0.682813
0.682804
0.682796
0.682787
0.682779
0.682771
0.682763
0.682755
0.682747
0.68274
0.682732
0.682726
0.682719
0.682712
0.682706
0.6827
0.682695
0.68269
0.682685
0.68268
0.682676
0.682672
0.682668
0.682665
0.682662
0.682659
0.682657
0.682655
0.682653
0.682652
0.682651
0.68265
0.68265
0.682888
0.682874
0.682862
0.682851
0.682841
0.682832
0.682823
0.682814
0.682805
0.682796
0.682787
0.682779
0.68277
0.682762
0.682754
0.682747
0.682739
0.682732
0.682725
0.682718
0.682712
0.682705
0.682699
0.682694
0.682689
0.682684
0.682679
0.682675
0.682671
0.682667
0.682664
0.682661
0.682658
0.682656
0.682654
0.682652
0.682651
0.68265
0.682649
0.682649
0.682889
0.682875
0.682863
0.682852
0.682842
0.682832
0.682823
0.682814
0.682805
0.682796
0.682787
0.682779
0.68277
0.682762
0.682754
0.682746
0.682739
0.682731
0.682724
0.682717
0.682711
0.682704
0.682698
0.682693
0.682687
0.682682
0.682678
0.682673
0.682669
0.682666
0.682662
0.682659
0.682656
0.682654
0.682652
0.68265
0.682649
0.682648
0.682647
0.682647
0.682891
0.682876
0.682864
0.682853
0.682843
0.682833
0.682824
0.682814
0.682805
0.682796
0.682787
0.682779
0.68277
0.682762
0.682754
0.682746
0.682738
0.682731
0.682723
0.682716
0.68271
0.682703
0.682697
0.682692
0.682686
0.682681
0.682676
0.682672
0.682668
0.682664
0.682661
0.682658
0.682655
0.682652
0.68265
0.682649
0.682647
0.682646
0.682646
0.682645
0.682892
0.682877
0.682865
0.682854
0.682843
0.682834
0.682824
0.682815
0.682806
0.682796
0.682787
0.682779
0.68277
0.682762
0.682753
0.682745
0.682737
0.68273
0.682723
0.682716
0.682709
0.682702
0.682696
0.682691
0.682685
0.68268
0.682675
0.682671
0.682666
0.682663
0.682659
0.682656
0.682653
0.682651
0.682649
0.682647
0.682646
0.682645
0.682644
0.682644
0.682893
0.682878
0.682865
0.682854
0.682844
0.682834
0.682825
0.682815
0.682806
0.682797
0.682788
0.682779
0.68277
0.682761
0.682753
0.682745
0.682737
0.682729
0.682722
0.682715
0.682708
0.682701
0.682695
0.682689
0.682684
0.682679
0.682674
0.682669
0.682665
0.682661
0.682658
0.682654
0.682652
0.682649
0.682647
0.682645
0.682644
0.682643
0.682642
0.682642
0.682894
0.682879
0.682866
0.682855
0.682845
0.682835
0.682825
0.682816
0.682806
0.682797
0.682788
0.682779
0.68277
0.682761
0.682753
0.682744
0.682736
0.682729
0.682721
0.682714
0.682707
0.6827
0.682694
0.682688
0.682683
0.682677
0.682672
0.682668
0.682664
0.68266
0.682656
0.682653
0.68265
0.682648
0.682645
0.682644
0.682642
0.682641
0.682641
0.68264
0.682896
0.68288
0.682868
0.682856
0.682846
0.682836
0.682826
0.682816
0.682806
0.682797
0.682788
0.682779
0.68277
0.682761
0.682752
0.682744
0.682736
0.682728
0.68272
0.682713
0.682706
0.682699
0.682693
0.682687
0.682681
0.682676
0.682671
0.682666
0.682662
0.682658
0.682655
0.682651
0.682648
0.682646
0.682644
0.682642
0.682641
0.68264
0.682639
0.682638
0.682897
0.682881
0.682869
0.682857
0.682847
0.682836
0.682826
0.682816
0.682807
0.682797
0.682788
0.682778
0.682769
0.68276
0.682752
0.682743
0.682735
0.682727
0.682719
0.682712
0.682705
0.682698
0.682692
0.682686
0.68268
0.682675
0.68267
0.682665
0.682661
0.682657
0.682653
0.68265
0.682647
0.682644
0.682642
0.68264
0.682639
0.682638
0.682637
0.682637
0.682898
0.682883
0.68287
0.682858
0.682847
0.682837
0.682827
0.682817
0.682807
0.682797
0.682788
0.682778
0.682769
0.68276
0.682751
0.682743
0.682734
0.682726
0.682719
0.682711
0.682704
0.682697
0.682691
0.682685
0.682679
0.682673
0.682668
0.682663
0.682659
0.682655
0.682651
0.682648
0.682645
0.682643
0.68264
0.682639
0.682637
0.682636
0.682635
0.682635
0.6829
0.682884
0.682871
0.682859
0.682848
0.682838
0.682828
0.682817
0.682807
0.682798
0.682788
0.682778
0.682769
0.68276
0.682751
0.682742
0.682734
0.682726
0.682718
0.68271
0.682703
0.682696
0.68269
0.682683
0.682677
0.682672
0.682667
0.682662
0.682658
0.682653
0.68265
0.682646
0.682643
0.682641
0.682639
0.682637
0.682635
0.682634
0.682633
0.682633
0.682901
0.682885
0.682872
0.68286
0.682849
0.682838
0.682828
0.682818
0.682808
0.682798
0.682788
0.682778
0.682769
0.68276
0.682751
0.682742
0.682733
0.682725
0.682717
0.682709
0.682702
0.682695
0.682688
0.682682
0.682676
0.682671
0.682665
0.68266
0.682656
0.682652
0.682648
0.682645
0.682642
0.682639
0.682637
0.682635
0.682633
0.682632
0.682632
0.682631
0.682902
0.682886
0.682873
0.682861
0.68285
0.682839
0.682829
0.682818
0.682808
0.682798
0.682788
0.682778
0.682769
0.682759
0.68275
0.682741
0.682733
0.682724
0.682716
0.682708
0.682701
0.682694
0.682687
0.682681
0.682675
0.682669
0.682664
0.682659
0.682654
0.68265
0.682646
0.682643
0.68264
0.682637
0.682635
0.682633
0.682632
0.682631
0.68263
0.682629
0.682904
0.682888
0.682874
0.682862
0.682851
0.68284
0.682829
0.682819