/*--------------------------------*- C++ -*----------------------------------*\
| =========                 |                                                 |
| \\      /  F ield         | OpenFOAM: The Open Source CFD Toolbox           |
|  \\    /   O peration     | Version:  2.3.0                                 |
|   \\  /    A nd           | Web:      www.OpenFOAM.org                      |
|    \\/     M anipulation  |                                                 |
\*---------------------------------------------------------------------------*/
FoamFile
{
    version     2.0;
    format      ascii;
    class       volScalarField;
    location    "10";
    object      O2;
}
// * * * * * * * * * * * * * * * * * * * * * * * * * * * * * * * * * * * * * //

dimensions      [0 0 0 0 0 0 0];

internalField   nonuniform List<scalar> 
26600
(
0.234
0.234
0.234
0.234
0.234
0.234
0.234
0.233999
0.233997
0.233994
0.233986
0.233973
0.23395
0.233921
0.233878
0.233827
0.233757
0.233678
0.233599
0.233504
0.233391
0.233257
0.233105
0.232945
0.232766
0.232565
0.232332
0.232083
0.231812
0.231546
0.231278
0.231025
0.230759
0.230508
0.230239
0.22999
0.229752
0.229529
0.229277
0.228969
0.234
0.234
0.234
0.234
0.234
0.233999
0.233998
0.233993
0.233981
0.233963
0.233914
0.233856
0.233733
0.233634
0.233428
0.233282
0.232992
0.232785
0.232442
0.232067
0.231682
0.231198
0.23062
0.230074
0.229314
0.22867
0.227736
0.227192
0.226133
0.225548
0.225223
0.224724
0.224269
0.223661
0.223108
0.222491
0.221916
0.221407
0.220419
0.224343
0.234
0.234
0.234
0.234
0.233999
0.233997
0.233991
0.233974
0.233935
0.233854
0.233684
0.233507
0.233171
0.232892
0.232365
0.231982
0.23131
0.230738
0.230087
0.229007
0.228251
0.22722
0.225486
0.224783
0.223971
0.222875
0.221511
0.220234
0.218942
0.217773
0.216025
0.214447
0.212766
0.211215
0.20952
0.207613
0.206429
0.204636
0.203204
0.20199
0.234
0.234
0.234
0.234
0.233998
0.233991
0.233971
0.233924
0.233827
0.233623
0.233286
0.2329
0.232247
0.231662
0.230642
0.229878
0.228658
0.227471
0.226355
0.223994
0.222995
0.221453
0.219951
0.218472
0.215965
0.213279
0.210428
0.208009
0.205271
0.202467
0.200694
0.198659
0.195986
0.193698
0.188885
0.185964
0.182982
0.180089
0.17743
0.174768
0.234
0.234
0.234
0.233999
0.233993
0.233974
0.233926
0.233821
0.233609
0.233169
0.232561
0.231804
0.230586
0.229491
0.227568
0.226231
0.224152
0.221689
0.220489
0.21797
0.215227
0.21303
0.209446
0.205065
0.202096
0.19862
0.193932
0.190109
0.183346
0.178841
0.17291
0.16612
0.158394
0.149677
0.140397
0.13113
0.122329
0.114075
0.104348
0.124321
0.234
0.234
0.233999
0.233996
0.23398
0.233935
0.233828
0.233602
0.233168
0.232283
0.231238
0.229778
0.227554
0.225566
0.221855
0.219734
0.217856
0.213995
0.210204
0.20634
0.202077
0.198263
0.190344
0.184216
0.175993
0.166198
0.154761
0.143382
0.132598
0.123468
0.113062
0.104443
0.0926296
0.0783564
0.063055
0.0511674
0.040126
0.0329333
0.0208218
0.0186811
0.234
0.234
0.233998
0.233987
0.23395
0.23385
0.233622
0.233152
0.232282
0.230608
0.228873
0.226011
0.221988
0.218174
0.214774
0.209278
0.204635
0.199034
0.190535
0.182481
0.171734
0.161238
0.149072
0.136741
0.125079
0.110606
0.0953198
0.075719
0.0625567
0.0518749
0.0426559
0.035077
0.0183642
0.00163918
0.000620242
0.000460572
0.000394816
0.000368819
0.0003
0.000276749
0.234
0.234
0.233994
0.233969
0.233886
0.233674
0.2332
0.232247
0.230527
0.227509
0.224664
0.218702
0.215632
0.207755
0.19925
0.189743
0.177408
0.162641
0.147132
0.132371
0.121027
0.110414
0.0920215
0.0710647
0.0543696
0.0415013
0.0287027
0.00224017
0.000686277
0.000490238
0.000431654
0.000394488
0.000300393
0.000119721
9.28603e-05
9.62342e-05
0.000104018
0.000116383
0.000126481
0.000124057
0.234
0.233998
0.233985
0.23393
0.233758
0.233319
0.232355
0.230453
0.227047
0.221817
0.21705
0.21022
0.201118
0.18518
0.168018
0.14896
0.128967
0.109895
0.0858707
0.067265
0.0498497
0.0391798
0.00811794
0.00119644
0.000560756
0.000445864
0.000424463
0.000166666
0.00011204
0.000112075
0.000121134
0.000139803
0.00017283
0.000236148
0.000311662
0.000370404
0.000405227
0.000408825
0.00039769
0.000367835
0.234
0.233996
0.233966
0.233852
0.233501
0.232613
0.230674
0.226811
0.220033
0.215167
0.206262
0.186777
0.166123
0.143831
0.122689
0.0890253
0.0549208
0.0350713
0.0144666
0.00130812
0.000506964
0.000408594
0.000193034
0.000134788
0.000152357
0.000202959
0.000289109
0.000376303
0.000442341
0.000484748
0.000547646
0.000632558
0.000691563
0.000718228
0.000718515
0.000703607
0.000682006
0.000656455
0.000622182
0.000573493
0.233999
0.233989
0.233928
0.233694
0.232982
0.231186
0.227205
0.219067
0.213198
0.20159
0.175127
0.148411
0.122119
0.0791729
0.0496374
0.00331022
0.000668248
0.000358181
0.000225993
0.000133709
0.00014578
0.000195492
0.000323153
0.000589391
0.000912447
0.00103952
0.00105694
0.00104527
0.00100721
0.00096814
0.0009464
0.000930816
0.000897819
0.000869782
0.000840424
0.000798764
0.000754932
0.000716623
0.000683138
0.000630592
0.233997
0.233972
0.233843
0.233356
0.231895
0.228139
0.219576
0.211038
0.194256
0.164315
0.135846
0.0890516
0.0488611
0.00267608
0.000573043
0.000140586
0.000125515
0.000178683
0.000325025
0.000602362
0.0010368
0.00139267
0.00147034
0.00146256
0.00141736
0.00132498
0.00125077
0.00119464
0.00110297
0.00105157
0.00100598
0.000965322
0.000915103
0.000864818
0.000819893
0.000776538
0.00073477
0.000697941
0.000659535
0.000612838
0.233991
0.233931
0.233641
0.232581
0.229405
0.221059
0.212674
0.188708
0.151495
0.113367
0.0698543
0.00584232
0.000749215
0.000155737
0.000153969
0.000330249
0.000857794
0.00165249
0.00207441
0.0020342
0.00195989
0.00184075
0.00166625
0.00154828
0.00136261
0.00126436
0.00119356
0.00111893
0.0010437
0.000982533
0.000930016
0.000887884
0.000842981
0.000799367
0.000757957
0.000717648
0.000677216
0.000631966
0.000586841
0.000535211
0.233977
0.233828
0.233113
0.230559
0.222977
0.214663
0.188583
0.146317
0.0948202
0.045712
0.00200453
0.000315549
0.000163968
0.000332735
0.00107976
0.00261412
0.00291663
0.00276655
0.00253253
0.00214491
0.00189056
0.00157752
0.00143512
0.00133805
0.00121297
0.00110701
0.00103994
0.000979087
0.000924083
0.000875826
0.000832756
0.000787917
0.000748541
0.000711494
0.000675097
0.000638049
0.000599154
0.000556711
0.000510296
0.000456706
0.23395
0.233529
0.231462
0.224321
0.216818
0.190634
0.141727
0.0852617
0.0324951
0.00145499
0.000300478
0.000321092
0.000942199
0.00288214
0.00380556
0.003682
0.00323289
0.00258562
0.00210049
0.00163785
0.00145684
0.00132834
0.00120689
0.00109899
0.00100743
0.000933998
0.000865355
0.000818423
0.000782207
0.000751097
0.000721988
0.000691976
0.000661877
0.00063113
0.000598869
0.000564256
0.000526503
0.000484765
0.00043828
0.000385606
0.2339
0.232423
0.224934
0.217649
0.191666
0.139911
0.0825862
0.0119972
0.0010392
0.000310548
0.000667544
0.00219172
0.00458569
0.00465097
0.00428632
0.00345897
0.00247304
0.00178334
0.00149074
0.00130505
0.00116401
0.00104292
0.000913094
0.000831044
0.000776471
0.000738458
0.000707591
0.000683896
0.000664321
0.000646148
0.000627345
0.000606396
0.000583012
0.000556881
0.000527592
0.000494747
0.000457999
0.000417045
0.000371656
0.000321698
0.233782
0.226873
0.216802
0.194078
0.140703
0.0837116
0.00432236
0.000523765
0.000406462
0.00157904
0.00491591
0.00590769
0.00563091
0.00476941
0.00335742
0.00224104
0.00150593
0.00129314
0.00113103
0.000976017
0.000810648
0.000720145
0.000660737
0.000624159
0.000602717
0.000590124
0.000581303
0.00057402
0.000566481
0.000557443
0.00054568
0.000530365
0.000511201
0.000488019
0.000460698
0.000429184
0.000393518
0.000353878
0.000310659
0.000264632
0.233282
0.21834
0.194882
0.141688
0.0875125
0.00433195
0.0006214
0.000925973
0.00341625
0.00714773
0.0070472
0.00642422
0.00485478
0.00322931
0.00203577
0.00129835
0.00110728
0.000936421
0.000714887
0.000598617
0.000532557
0.000498529
0.000481476
0.000475708
0.000476481
0.000479836
0.000483835
0.000486176
0.000485837
0.000482435
0.000474793
0.000462564
0.000445705
0.000424199
0.000398149
0.00036778
0.000333467
0.000295804
0.000255694
0.000214462
0.231932
0.182145
0.136953
0.0869056
0.00519233
0.000951394
0.00231253
0.00809655
0.00919729
0.00854069
0.00699865
0.00489525
0.00281843
0.00168116
0.00104742
0.000877625
0.000653646
0.000512909
0.000421006
0.000376058
0.000357877
0.000356666
0.000362298
0.000373488
0.000386362
0.00039865
0.00040895
0.000416061
0.00041927
0.000418227
0.000412666
0.000401744
0.000385901
0.000365269
0.000340141
0.000310972
0.000278425
0.000243423
0.000207204
0.000171315
0.225773
0.143144
0.104588
0.00989776
0.00391451
0.00796497
0.0130984
0.0121318
0.00979023
0.0065673
0.00424381
0.00245014
0.00115532
0.000821343
0.000659013
0.000442827
0.000328435
0.000274927
0.000251041
0.000246871
0.000253118
0.000267539
0.000285373
0.000304118
0.000322122
0.000337966
0.000350608
0.000359264
0.000363424
0.000362861
0.000357601
0.000346917
0.000331358
0.000311216
0.00028696
0.000259251
0.000228977
0.000197271
0.000165499
0.000135156
0.0027453
0.0420125
0.0432334
0.0370145
0.0306905
0.0232897
0.0154543
0.00947013
0.00566606
0.00313209
0.0016697
0.000735504
0.000523858
0.000420334
0.0002766
0.000200788
0.000167919
0.00015827
0.000162138
0.000174107
0.000192256
0.000213262
0.000235129
0.000256247
0.000275391
0.000291576
0.00030403
0.000312187
0.000315685
0.000314444
0.000308445
0.000297408
0.000281822
0.000262124
0.000238938
0.000213086
0.000185597
0.000157673
0.000130606
0.000105642
0.00018695
0.00350367
0.00629147
0.00618402
0.00542472
0.00395416
0.00257157
0.00153447
0.000858156
0.000472387
0.00025074
0.00021697
0.000200183
0.000141309
0.000110511
9.5431e-05
9.51552e-05
0.000102155
0.000116765
0.000135513
0.000156966
0.000179488
0.000201615
0.000222161
0.000240161
0.000254854
0.000265653
0.000272153
0.000274114
0.000271545
0.000264414
0.000252825
0.000237222
0.000218168
0.000196401
0.000172839
0.000148538
0.000124628
0.000102187
8.2122e-05
2.9188e-05
0.000251288
0.000622198
0.000625441
0.000577226
0.000448847
0.000312234
0.000219604
0.000149203
8.98011e-05
7.90528e-05
7.67059e-05
6.1037e-05
5.15947e-05
4.97658e-05
5.33143e-05
6.29215e-05
7.70394e-05
9.46988e-05
0.000114813
0.000136241
0.000157756
0.000178215
0.000196661
0.00021232
0.000224587
0.000233014
0.000237329
0.000237406
0.000233275
0.000225048
0.000212995
0.000197604
0.000179526
0.000159563
0.000138636
0.000117727
9.77799e-05
7.95972e-05
6.3757e-05
7.42532e-06
3.15495e-05
7.79433e-05
9.77497e-05
0.000102708
9.81356e-05
7.78262e-05
5.85256e-05
3.89533e-05
3.3972e-05
3.14356e-05
2.46384e-05
2.22592e-05
2.34208e-05
2.83774e-05
3.78278e-05
5.06806e-05
6.63694e-05
8.42853e-05
0.000103643
0.000123506
0.00014285
0.000160746
0.000176413
0.000189227
0.000198718
0.000204542
0.000206565
0.000204753
0.000199186
0.000190095
0.000177858
0.000163024
0.000146282
0.00012843
0.000110313
9.27558e-05
7.64715e-05
6.19927e-05
4.96374e-05
2.12869e-06
6.4828e-06
1.42786e-05
2.40751e-05
2.98858e-05
2.91453e-05
2.49571e-05
1.69831e-05
1.54836e-05
1.44563e-05
1.11043e-05
9.80838e-06
1.08036e-05
1.4741e-05
2.25331e-05
3.34772e-05
4.70273e-05
6.2577e-05
7.95598e-05
9.73026e-05
0.000114962
0.000131682
0.000146704
0.000159404
0.00016929
0.000176009
0.000179298
0.000179224
0.000175738
0.000169034
0.000159429
0.000147372
0.000133446
0.000118327
0.000102744
8.74098e-05
7.2955e-05
5.98694e-05
4.8467e-05
3.88861e-05
6.15162e-07
1.72265e-06
3.44746e-06
6.30313e-06
9.21453e-06
9.09655e-06
7.36069e-06
6.63858e-06
6.50413e-06
5.23725e-06
4.62668e-06
5.19426e-06
7.76738e-06
1.32691e-05
2.19477e-05
3.33468e-05
4.68524e-05
6.17792e-05
7.742e-05
9.3235e-05
0.000108494
0.000122506
0.000134668
0.000144493
0.000151612
0.00015573
0.000156837
0.000154947
0.000150138
0.000142676
0.000132939
0.000121413
0.000108669
9.53285e-05
8.20047e-05
6.92522e-05
5.75163e-05
4.71017e-05
3.81665e-05
3.07398e-05
1.88383e-07
4.99544e-07
8.14818e-07
1.4192e-06
2.60457e-06
2.71414e-06
2.59989e-06
2.62073e-06
2.31475e-06
2.15191e-06
2.51166e-06
4.06243e-06
7.77284e-06
1.45738e-05
2.39227e-05
3.5378e-05
4.83533e-05
6.22099e-05
7.6314e-05
9.01047e-05
0.000102985
0.000114403
0.00012389
0.000131087
0.000135693
0.000137594
0.000136879
0.000133548
0.000127806
0.000119969
0.000110447
9.97219e-05
8.83195e-05
7.67676e-05
6.55512e-05
5.50711e-05
4.56172e-05
3.73587e-05
3.03541e-05
2.45734e-05
6.74065e-08
1.49882e-07
2.09981e-07
3.80041e-07
7.8923e-07
9.13676e-07
9.78876e-07
9.17814e-07
9.24241e-07
1.14362e-06
2.05002e-06
4.48466e-06
9.57405e-06
1.71515e-05
2.68039e-05
3.80377e-05
5.02815e-05
6.29417e-05
7.54348e-05
8.72504e-05
9.78947e-05
0.000106934
0.000114019
0.000118895
0.000121325
0.000121463
0.000119268
0.00011489
0.000108591
0.000100715
9.16719e-05
8.19106e-05
7.18846e-05
6.20169e-05
5.26671e-05
4.41062e-05
3.6507e-05
2.99484e-05
2.44305e-05
1.98959e-05
3.0246e-08
5.18161e-08
7.65472e-08
1.5196e-07
2.88604e-07
3.43449e-07
3.41192e-07
3.56639e-07
4.72431e-07
9.48216e-07
2.40958e-06
5.93878e-06
1.19233e-05
1.99958e-05
2.97323e-05
4.06033e-05
5.20411e-05
6.34857e-05
7.4422e-05
8.43956e-05
9.30085e-05
9.99332e-05
0.000104926
0.000107771
0.000108509
0.000107196
0.000103897
9.88322e-05
9.22943e-05
8.46343e-05
7.6238e-05
6.74987e-05
5.87872e-05
5.04252e-05
4.26643e-05
3.56755e-05
2.95504e-05
2.43116e-05
1.99282e-05
1.6333e-05
7.59233e-09
1.81218e-08
3.33569e-08
7.15756e-08
1.10334e-07
1.27985e-07
1.30027e-07
1.7433e-07
3.84987e-07
1.14849e-06
3.30296e-06
7.71027e-06
1.42677e-05
2.26408e-05
3.23322e-05
4.27754e-05
5.3401e-05
6.36787e-05
7.31671e-05
8.1472e-05
8.82856e-05
9.33764e-05
9.65486e-05
9.77743e-05
9.71535e-05
9.47198e-05
9.06503e-05
8.51966e-05
7.86634e-05
7.13876e-05
6.37142e-05
5.5972e-05
4.84506e-05
4.1383e-05
3.49356e-05
2.92074e-05
2.42369e-05
2.00135e-05
1.64917e-05
1.36045e-05
1.65788e-09
5.37467e-09
1.46544e-08
2.83671e-08
3.93539e-08
4.27504e-08
5.6825e-08
1.34263e-07
4.67609e-07
1.60218e-06
4.38345e-06
9.36947e-06
1.63414e-05
2.48978e-05
3.44744e-05
4.44685e-05
5.43152e-05
6.35184e-05
7.16898e-05
7.85152e-05
8.37671e-05
8.7281e-05
8.89352e-05
8.89111e-05
8.71969e-05
8.39476e-05
7.93813e-05
7.37671e-05
6.74046e-05
6.06026e-05
5.36572e-05
4.68329e-05
4.03469e-05
3.43603e-05
2.89763e-05
2.42444e-05
2.01698e-05
1.67239e-05
1.38561e-05
1.15033e-05
4.70853e-10
1.52904e-09
4.48718e-09
8.10393e-09
1.0763e-08
1.53258e-08
3.89172e-08
1.5688e-07
6.45976e-07
2.10592e-06
5.37598e-06
1.07786e-05
1.80585e-05
2.67269e-05
3.61536e-05
4.57057e-05
5.48243e-05
6.30562e-05
7.00632e-05
7.56028e-05
7.95182e-05
8.16739e-05
8.21844e-05
8.11251e-05
7.85869e-05
7.47702e-05
6.99183e-05
6.43039e-05
5.82099e-05
5.19094e-05
4.56489e-05
3.96342e-05
3.40224e-05
2.89195e-05
2.43836e-05
2.04316e-05
1.70485e-05
1.41968e-05
1.18255e-05
9.87756e-06
1.59103e-10
4.75746e-10
1.15523e-09
2.02749e-09
3.4011e-09
9.41585e-09
4.32299e-08
2.11415e-07
8.3289e-07
2.55115e-06
6.18986e-06
1.19122e-05
1.94261e-05
2.81588e-05
3.74205e-05
4.6555e-05
5.50115e-05
6.23842e-05
6.838e-05
7.28242e-05
7.5582e-05
7.66731e-05
7.62608e-05
7.43937e-05
7.12511e-05
6.70597e-05
6.20745e-05
5.65614e-05
5.07799e-05
4.49656e-05
3.93186e-05
3.3995e-05
2.91045e-05
2.47124e-05
2.08455e-05
1.74996e-05
1.46482e-05
1.22501e-05
1.02564e-05
8.61567e-06
5.98408e-11
1.73348e-10
3.81995e-10
7.80481e-10
2.12874e-09
1.02869e-08
5.71638e-08
2.67857e-07
9.94302e-07
2.91125e-06
6.82549e-06
1.27964e-05
2.04873e-05
2.92509e-05
3.83457e-05
4.7099e-05
5.49747e-05
6.15976e-05
6.67302e-05
7.02458e-05
7.20378e-05
7.23189e-05
7.11519e-05
6.86749e-05
6.51026e-05
6.06794e-05
5.56628e-05
5.03059e-05
4.48419e-05
3.94711e-05
3.43533e-05
2.96042e-05
2.52974e-05
2.14691e-05
1.81247e-05
1.5247e-05
1.28029e-05
1.07504e-05
9.0435e-06
7.63613e-06
2.22319e-11
6.9277e-11
1.68344e-10
4.85084e-10
2.18663e-09
1.33627e-08
7.21894e-08
3.17985e-07
1.12608e-06
3.19453e-06
7.30691e-06
1.34691e-05
2.12913e-05
3.00631e-05
3.90001e-05
4.74167e-05
5.47909e-05
6.07806e-05
6.5197e-05
6.7913e-05
6.89732e-05
6.85985e-05
6.68463e-05
6.39174e-05
6.00487e-05
5.54942e-05
5.05079e-05
4.53272e-05
4.01598e-05
3.51747e-05
3.04983e-05
2.62152e-05
2.23721e-05
1.89845e-05
1.60438e-05
1.35244e-05
1.13903e-05
9.59977e-06
8.11001e-06
6.87933e-06
8.40368e-12
2.9833e-11
9.49398e-11
4.22949e-10
2.62569e-09
1.6676e-08
8.57482e-08
3.59745e-07
1.23002e-06
3.41035e-06
7.66355e-06
1.39679e-05
2.1885e-05
3.06514e-05
3.94475e-05
4.75774e-05
5.45336e-05
6.00031e-05
6.38323e-05
6.58982e-05
6.64144e-05
6.55138e-05
6.33213e-05
6.00656e-05
5.59988e-05
5.13793e-05
4.64544e-05
4.14454e-05
3.65374e-05
3.18732e-05
2.75531e-05
2.36377e-05
2.01547e-05
1.71052e-05
1.44713e-05
1.22226e-05
1.03213e-05
8.72725e-06
7.4001e-06
6.30181e-06
3.41133e-12
1.47055e-11
6.76672e-11
4.28737e-10
3.11548e-09
1.96242e-08
9.69857e-08
3.92772e-07
1.30898e-06
3.56908e-06
7.9206e-06
1.43265e-05
2.23097e-05
3.10642e-05
3.97422e-05
4.76398e-05
5.42628e-05
5.93245e-05
6.26822e-05
6.42542e-05
6.43636e-05
6.30651e-05
6.05507e-05
5.70655e-05
5.28712e-05
4.82268e-05
4.33721e-05
3.8514e-05
3.38188e-05
2.94087e-05
2.53642e-05
2.17288e-05
1.85166e-05
1.57189e-05
1.33119e-05
1.12623e-05
9.53196e-06
8.08169e-06
6.87354e-06
5.8722e-06
1.62329e-12
8.93344e-12
5.77556e-11
4.53103e-10
3.52987e-09
2.19387e-08
1.05509e-07
4.17107e-07
1.36552e-06
3.67981e-06
8.09714e-06
1.45716e-05
2.25987e-05
3.13402e-05
3.99271e-05
4.76498e-05
5.40242e-05
5.87851e-05
6.17838e-05
6.30198e-05
6.28254e-05
6.12464e-05
5.85091e-05
5.48706e-05
5.0598e-05
4.59498e-05
4.11586e-05
3.642e-05
3.18859e-05
2.76635e-05
2.38192e-05
2.03849e-05
1.73653e-05
1.47456e-05
1.24981e-05
1.0588e-05
8.97704e-06
7.62716e-06
6.50206e-06
5.56844e-06
9.77623e-13
6.76501e-12
5.4454e-11
4.74573e-10
3.81542e-09
2.3489e-08
1.11121e-07
4.32866e-07
1.4015e-06
3.7491e-06
8.20656e-06
1.47232e-05
2.27768e-05
3.15079e-05
4.00335e-05
4.76405e-05
5.38512e-05
5.84145e-05
6.11767e-05
6.2206e-05
6.18106e-05
6.00549e-05
5.71791e-05
5.34477e-05
4.91314e-05
4.44871e-05
3.97425e-05
3.50853e-05
3.06578e-05
2.65578e-05
2.28426e-05
1.95368e-05
1.66396e-05
1.41324e-05
1.19855e-05
1.0163e-05
8.62708e-06
7.34019e-06
6.26718e-06
5.37606e-06
7.86402e-13
6.08627e-12
5.36009e-11
4.8546e-10
3.94658e-09
2.41913e-08
1.13652e-07
4.39914e-07
1.41744e-06
3.7796e-06
8.25465e-06
1.47899e-05
2.28551e-05
3.15812e-05
4.00786e-05
4.76328e-05
5.3769e-05
5.82427e-05
6.08978e-05
6.18358e-05
6.13495e-05
5.95153e-05
5.65784e-05
5.28069e-05
4.84725e-05
4.38315e-05
3.91093e-05
3.44896e-05
3.01107e-05
2.60659e-05
2.24087e-05
1.91603e-05
1.63176e-05
1.38604e-05
1.17581e-05
9.97455e-06
8.47178e-06
7.21275e-06
6.1628e-06
5.29049e-06
1.06409e-06
1.05033e-06
1.03864e-06
1.02894e-06
1.0202e-06
1.01202e-06
1.00422e-06
9.967e-07
9.89414e-07
9.82334e-07
9.75425e-07
9.68665e-07
9.62096e-07
9.55714e-07
9.49518e-07
9.43513e-07
9.37702e-07
9.32092e-07
9.26689e-07
9.21499e-07
9.16527e-07
9.11779e-07
9.0726e-07
9.02973e-07
8.98923e-07
8.95114e-07
8.91548e-07
8.88228e-07
8.85157e-07
8.82336e-07
8.79767e-07
8.77453e-07
8.75393e-07
8.7359e-07
8.72044e-07
8.70756e-07
8.69727e-07
8.68959e-07
8.68453e-07
8.68223e-07
1.06637e-06
1.05155e-06
1.04031e-06
1.03035e-06
1.02138e-06
1.01302e-06
1.00508e-06
9.97446e-07
9.90064e-07
9.82915e-07
9.75939e-07
9.69092e-07
9.62469e-07
9.56038e-07
9.49796e-07
9.43747e-07
9.37895e-07
9.32248e-07
9.2681e-07
9.21588e-07
9.16587e-07
9.11812e-07
9.07267e-07
9.02958e-07
8.98886e-07
8.95058e-07
8.91474e-07
8.88137e-07
8.85051e-07
8.82217e-07
8.79636e-07
8.77311e-07
8.75242e-07
8.73431e-07
8.71878e-07
8.70584e-07
8.69551e-07
8.68779e-07
8.68271e-07
8.6804e-07
1.06741e-06
1.05365e-06
1.04161e-06
1.03157e-06
1.02255e-06
1.01412e-06
1.00609e-06
9.98361e-07
9.90885e-07
9.83637e-07
9.76491e-07
9.69663e-07
9.62992e-07
9.565e-07
9.50196e-07
9.44087e-07
9.38179e-07
9.32479e-07
9.26991e-07
9.21721e-07
9.16676e-07
9.1186e-07
9.07277e-07
9.02931e-07
8.98827e-07
8.94967e-07
8.91354e-07
8.87992e-07
8.84882e-07
8.82026e-07
8.79427e-07
8.77084e-07
8.75e-07
8.73175e-07
8.71611e-07
8.70309e-07
8.69268e-07
8.68491e-07
8.67979e-07
8.67746e-07
1.06905e-06
1.05468e-06
1.04286e-06
1.0328e-06
1.02372e-06
1.01522e-06
1.00712e-06
9.99318e-07
9.91757e-07
9.84429e-07
9.77269e-07
9.70334e-07
9.63584e-07
9.5702e-07
9.50648e-07
9.44473e-07
9.38502e-07
9.32742e-07
9.27197e-07
9.21873e-07
9.16776e-07
9.11911e-07
9.07282e-07
9.02894e-07
8.9875e-07
8.94853e-07
8.91206e-07
8.87812e-07
8.84673e-07
8.81791e-07
8.79167e-07
8.76804e-07
8.74701e-07
8.7286e-07
8.71282e-07
8.69967e-07
8.68918e-07
8.68133e-07
8.67617e-07
8.67383e-07
1.0703e-06
1.05616e-06
1.04418e-06
1.03404e-06
1.02489e-06
1.01633e-06
1.00816e-06
1.00029e-06
9.9264e-07
9.85151e-07
9.78017e-07
9.7102e-07
9.64198e-07
9.57562e-07
9.51119e-07
9.44876e-07
9.3884e-07
9.33016e-07
9.27411e-07
9.22029e-07
9.16877e-07
9.1196e-07
9.07282e-07
9.02847e-07
8.98659e-07
8.94722e-07
8.91037e-07
8.87608e-07
8.84437e-07
8.81525e-07
8.78875e-07
8.76487e-07
8.74363e-07
8.72504e-07
8.7091e-07
8.69583e-07
8.68523e-07
8.67731e-07
8.67209e-07
8.66973e-07
1.07186e-06
1.05747e-06
1.04546e-06
1.03527e-06
1.02606e-06
1.01744e-06
1.00921e-06
1.00127e-06
9.93575e-07
9.86083e-07
9.78807e-07
9.71719e-07
9.64818e-07
9.58108e-07
9.51595e-07
9.45284e-07
9.39181e-07
9.33292e-07
9.27625e-07
9.22183e-07
9.16975e-07
9.12003e-07
9.07273e-07
9.02789e-07
8.98556e-07
8.94575e-07
8.9085e-07
8.87384e-07
8.84179e-07
8.81236e-07
8.78557e-07
8.76144e-07
8.73998e-07
8.72119e-07
8.70508e-07
8.69167e-07
8.68096e-07
8.67296e-07
8.66769e-07
8.66529e-07
1.07322e-06
1.05886e-06
1.04677e-06
1.03652e-06
1.02724e-06
1.01855e-06
1.01026e-06
1.00225e-06
9.94491e-07
9.86937e-07
9.7958e-07
9.72413e-07
9.65437e-07
9.58654e-07
9.5207e-07
9.45689e-07
9.39518e-07
9.33565e-07
9.27834e-07
9.22332e-07
9.17065e-07
9.12037e-07
9.07254e-07
9.02721e-07
8.98439e-07
8.94414e-07
8.90648e-07
8.87144e-07
8.83903e-07
8.80928e-07
8.7822e-07
8.7578e-07
8.7361e-07
8.71711e-07
8.70083e-07
8.68727e-07
8.67644e-07
8.66835e-07
8.66303e-07
8.66061e-07
1.07475e-06
1.06024e-06
1.04809e-06
1.03777e-06
1.02843e-06
1.01967e-06
1.0113e-06
1.00323e-06
9.954e-07
9.87776e-07
9.80344e-07
9.73102e-07
9.66052e-07
9.59197e-07
9.52541e-07
9.4609e-07
9.39852e-07
9.33832e-07
9.28036e-07
9.22473e-07
9.17146e-07
9.12062e-07
9.07225e-07
9.0264e-07
8.98311e-07
8.9424e-07
8.90432e-07
8.86888e-07
8.83611e-07
8.80602e-07
8.77864e-07
8.75398e-07
8.73203e-07
8.71283e-07
8.69637e-07
8.68266e-07
8.67171e-07
8.66353e-07
8.65815e-07
8.65571e-07
1.07619e-06
1.06164e-06
1.04942e-06
1.03903e-06
1.02962e-06
1.02079e-06
1.01236e-06
1.00421e-06
9.9631e-07
9.88614e-07
9.81106e-07
9.73789e-07
9.66664e-07
9.59735e-07
9.53008e-07
9.46487e-07
9.40179e-07
9.34092e-07
9.28232e-07
9.22605e-07
9.17218e-07
9.12076e-07
9.07185e-07
9.02548e-07
8.98169e-07
8.94053e-07
8.90201e-07
8.86617e-07
8.83303e-07
8.80261e-07
8.77492e-07
8.74997e-07
8.72779e-07
8.70837e-07
8.69173e-07
8.67786e-07
8.66679e-07
8.65852e-07
8.65308e-07
8.65061e-07
1.07773e-06
1.06305e-06
1.05076e-06
1.0403e-06
1.03082e-06
1.02193e-06
1.01342e-06
1.0052e-06
9.97222e-07
9.89455e-07
9.81868e-07
9.74473e-07
9.67273e-07
9.60271e-07
9.5347e-07
9.46878e-07
9.405e-07
9.34345e-07
9.28419e-07
9.22729e-07
9.17281e-07
9.1208e-07
9.07133e-07
9.02444e-07
8.98015e-07
8.93852e-07
8.89957e-07
8.86332e-07
8.8298e-07
8.79904e-07
8.77103e-07
8.74581e-07
8.72337e-07
8.70373e-07
8.6869e-07
8.67289e-07
8.66169e-07
8.65333e-07
8.64783e-07
8.64532e-07
1.07922e-06
1.06448e-06
1.05212e-06
1.04159e-06
1.03204e-06
1.02307e-06
1.01448e-06
1.00619e-06
9.98137e-07
9.90305e-07
9.8263e-07
9.75156e-07
9.67881e-07
9.60804e-07
9.53929e-07
9.47264e-07
9.40816e-07
9.34591e-07
9.28598e-07
9.22844e-07
9.17334e-07
9.12074e-07
9.07071e-07
9.02327e-07
8.97848e-07
8.93638e-07
8.89698e-07
8.86032e-07
8.82642e-07
8.79531e-07
8.76699e-07
8.74148e-07
8.71879e-07
8.69893e-07
8.68191e-07
8.66773e-07
8.65641e-07
8.64796e-07
8.64239e-07
8.63986e-07
1.08078e-06
1.06593e-06
1.05349e-06
1.04289e-06
1.03326e-06
1.02422e-06
1.01556e-06
1.00718e-06
9.99053e-07
9.91174e-07
9.8339e-07
9.75838e-07
9.68487e-07
9.61335e-07
9.54385e-07
9.47646e-07
9.41125e-07
9.3483e-07
9.2877e-07
9.2295e-07
9.17377e-07
9.12057e-07
9.06996e-07
9.02199e-07
8.97669e-07
8.9341e-07
8.89425e-07
8.85717e-07
8.82289e-07
8.79142e-07
8.76278e-07
8.73698e-07
8.71403e-07
8.69395e-07
8.67674e-07
8.6624e-07
8.65095e-07
8.6424e-07
8.63678e-07
8.63422e-07
1.08233e-06
1.06739e-06
1.05487e-06
1.0442e-06
1.0345e-06
1.02538e-06
1.01664e-06
1.00818e-06
9.99956e-07
9.91951e-07
9.84134e-07
9.76519e-07
9.69094e-07
9.61864e-07
9.54837e-07
9.48023e-07
9.41428e-07
9.35062e-07
9.28933e-07
9.23046e-07
9.1741e-07
9.12029e-07
9.0691e-07
9.02058e-07
8.97476e-07
8.93168e-07
8.89138e-07
8.85388e-07
8.8192e-07
8.78738e-07
8.75841e-07
8.73232e-07
8.70911e-07
8.6888e-07
8.67139e-07
8.6569e-07
8.64532e-07
8.63667e-07
8.63098e-07
8.62839e-07
1.08393e-06
1.06888e-06
1.05628e-06
1.04553e-06
1.03575e-06
1.02655e-06
1.01774e-06
1.0092e-06
1.00088e-06
9.92709e-07
9.84892e-07
9.77208e-07
9.69703e-07
9.62392e-07
9.55286e-07
9.48395e-07
9.41726e-07
9.35287e-07
9.29087e-07
9.23134e-07
9.17433e-07
9.1199e-07
9.06812e-07
9.01904e-07
8.97269e-07
8.92912e-07
8.88836e-07
8.85043e-07
8.81536e-07
8.78317e-07
8.75387e-07
8.72748e-07
8.70401e-07
8.68347e-07
8.66587e-07
8.65121e-07
8.6395e-07
8.63076e-07
8.625e-07
8.62239e-07
1.08552e-06
1.07038e-06
1.0577e-06
1.04687e-06
1.03702e-06
1.02774e-06
1.01884e-06
1.01023e-06
1.00184e-06
9.93661e-07
9.85689e-07
9.77905e-07
9.70312e-07
9.62918e-07
9.55732e-07
9.48762e-07
9.42017e-07
9.35505e-07
9.29234e-07
9.23212e-07
9.17444e-07
9.1194e-07
9.06702e-07
9.01738e-07
8.9705e-07
8.92642e-07
8.88519e-07
8.84683e-07
8.81136e-07
8.7788e-07
8.74917e-07
8.72248e-07
8.69875e-07
8.67797e-07
8.66017e-07
8.64534e-07
8.6335e-07
8.62466e-07
8.61884e-07
8.61619e-07
1.08716e-06
1.0719e-06
1.05913e-06
1.04822e-06
1.03829e-06
1.02893e-06
1.01996e-06
1.01126e-06
1.00279e-06
9.94535e-07
9.86471e-07
9.78598e-07
9.70919e-07
9.63442e-07
9.56174e-07
9.49125e-07
9.42303e-07
9.35716e-07
9.29373e-07
9.2328e-07
9.17447e-07
9.11878e-07
9.0658e-07
9.01558e-07
8.96816e-07
8.92358e-07
8.88188e-07
8.84307e-07
8.8072e-07
8.77427e-07
8.7443e-07
8.71731e-07
8.6933e-07
8.67229e-07
8.65429e-07
8.63929e-07
8.62732e-07
8.61837e-07
8.61249e-07
8.60981e-07
1.0888e-06
1.07344e-06
1.06059e-06
1.0496e-06
1.03958e-06
1.03014e-06
1.02108e-06
1.0123e-06
1.00375e-06
9.95402e-07
9.87252e-07
9.79291e-07
9.71525e-07
9.63964e-07
9.56613e-07
9.49483e-07
9.42583e-07
9.3592e-07
9.29503e-07
9.2334e-07
9.17439e-07
9.11806e-07
9.06446e-07
9.01366e-07
8.96569e-07
8.9206e-07
8.87841e-07
8.83916e-07
8.80287e-07
8.76956e-07
8.73925e-07
8.71195e-07
8.68767e-07
8.66643e-07
8.64822e-07
8.63305e-07
8.62094e-07
8.6119e-07
8.60595e-07
8.60324e-07
1.09048e-06
1.07501e-06
1.06206e-06
1.05099e-06
1.04089e-06
1.03136e-06
1.02221e-06
1.01334e-06
1.00471e-06
9.96274e-07
9.88036e-07
9.79985e-07
9.72132e-07
9.64483e-07
9.57049e-07
9.49838e-07
9.42857e-07
9.36117e-07
9.29625e-07
9.23391e-07
9.17421e-07
9.11722e-07
9.063e-07
9.0116e-07
8.96308e-07
8.91746e-07
8.87479e-07
8.83509e-07
8.79838e-07
8.76469e-07
8.73403e-07
8.70642e-07
8.68187e-07
8.66038e-07
8.64196e-07
8.62662e-07
8.61438e-07
8.60523e-07
8.59921e-07
8.59647e-07
1.09218e-06
1.07659e-06
1.06356e-06
1.0524e-06
1.04221e-06
1.0326e-06
1.02336e-06
1.0144e-06
1.00567e-06
9.9715e-07
9.88826e-07
9.80682e-07
9.72737e-07
9.65002e-07
9.57483e-07
9.50187e-07
9.43126e-07
9.36307e-07
9.29739e-07
9.23432e-07
9.17392e-07
9.11626e-07
9.06141e-07
9.00942e-07
8.96033e-07
8.91418e-07
8.87101e-07
8.83085e-07
8.79372e-07
8.75965e-07
8.72864e-07
8.70071e-07
8.67587e-07
8.65414e-07
8.63551e-07
8.62e-07
8.60762e-07
8.59836e-07
8.59228e-07
8.58951e-07
1.0939e-06
1.0782e-06
1.06507e-06
1.05382e-06
1.04355e-06
1.03385e-06
1.02452e-06
1.01547e-06
1.00664e-06
9.98031e-07
9.89624e-07
9.81379e-07
9.73343e-07
9.65519e-07
9.57913e-07
9.50533e-07
9.43389e-07
9.3649e-07
9.29845e-07
9.23464e-07
9.17352e-07
9.11519e-07
9.0597e-07
9.00709e-07
8.95743e-07
8.91075e-07
8.86708e-07
8.82645e-07
8.78889e-07
8.75442e-07
8.72306e-07
8.69481e-07
8.66969e-07
8.64771e-07
8.62887e-07
8.61318e-07
8.60066e-07
8.5913e-07
8.58514e-07
8.58235e-07
1.09565e-06
1.07982e-06
1.0666e-06
1.05526e-06
1.0449e-06
1.03511e-06
1.02569e-06
1.01654e-06
1.00762e-06
9.98912e-07
9.90435e-07
9.82073e-07
9.73947e-07
9.66036e-07
9.58342e-07
9.50876e-07
9.43647e-07
9.36666e-07
9.29943e-07
9.23486e-07
9.17302e-07
9.114e-07
9.05785e-07
9.00463e-07
8.95439e-07
8.90716e-07
8.86298e-07
8.82189e-07
8.78389e-07
8.74902e-07
8.7173e-07
8.68872e-07
8.66332e-07
8.64108e-07
8.62203e-07
8.60616e-07
8.59349e-07
8.58403e-07
8.57781e-07
8.57498e-07
1.09742e-06
1.08147e-06
1.06815e-06
1.05672e-06
1.04627e-06
1.03639e-06
1.02687e-06
1.01763e-06
1.00861e-06
9.99788e-07
9.9117e-07
9.82758e-07
9.74553e-07
9.66553e-07
9.58769e-07
9.51214e-07
9.43899e-07
9.36836e-07
9.30032e-07
9.23498e-07
9.17241e-07
9.11269e-07
9.05588e-07
9.00203e-07
8.9512e-07
8.90342e-07
8.85872e-07
8.81715e-07
8.77872e-07
8.74344e-07
8.71135e-07
8.68245e-07
8.65675e-07
8.63426e-07
8.61499e-07
8.59894e-07
8.58613e-07
8.57656e-07
8.57026e-07
8.5674e-07
1.09922e-06
1.08315e-06
1.06973e-06
1.0582e-06
1.04766e-06
1.03768e-06
1.02807e-06
1.01873e-06
1.00962e-06
1.00069e-06
9.91921e-07
9.83467e-07
9.75168e-07
9.67072e-07
9.59194e-07
9.51549e-07
9.44147e-07
9.36998e-07
9.30113e-07
9.23501e-07
9.1717e-07
9.11127e-07
9.05378e-07
8.9993e-07
8.94786e-07
8.89952e-07
8.8543e-07
8.81224e-07
8.77336e-07
8.73768e-07
8.70522e-07
8.67598e-07
8.64998e-07
8.62724e-07
8.60775e-07
8.59151e-07
8.57855e-07
8.56888e-07
8.56251e-07
8.55961e-07
1.10104e-06
1.08484e-06
1.07132e-06
1.0597e-06
1.04906e-06
1.03899e-06
1.02928e-06
1.01984e-06
1.01063e-06
1.00162e-06
9.92803e-07
9.84194e-07
9.75786e-07
9.6759e-07
9.59617e-07
9.5188e-07
9.44388e-07
9.37154e-07
9.30186e-07
9.23494e-07
9.17087e-07
9.10972e-07
9.05155e-07
8.99642e-07
8.94437e-07
8.89546e-07
8.84971e-07
8.80716e-07
8.76783e-07
8.73173e-07
8.69889e-07
8.66931e-07
8.64302e-07
8.62001e-07
8.60029e-07
8.58388e-07
8.57077e-07
8.56098e-07
8.55454e-07
8.55161e-07
1.10289e-06
1.08656e-06
1.07294e-06
1.06122e-06
1.05049e-06
1.04031e-06
1.0305e-06
1.02096e-06
1.01165e-06
1.00254e-06
9.93627e-07
9.84912e-07
9.76402e-07