/*--------------------------------*- C++ -*----------------------------------*\
| =========                 |                                                 |
| \\      /  F ield         | OpenFOAM: The Open Source CFD Toolbox           |
|  \\    /   O peration     | Version:  2.3.0                                 |
|   \\  /    A nd           | Web:      www.OpenFOAM.org                      |
|    \\/     M anipulation  |                                                 |
\*---------------------------------------------------------------------------*/
FoamFile
{
    version     2.0;
    format      ascii;
    class       volScalarField;
    location    "10";
    object      T;
}
// * * * * * * * * * * * * * * * * * * * * * * * * * * * * * * * * * * * * * //

dimensions      [0 0 0 1 0 0 0];

internalField   nonuniform List<scalar> 
26600
(
413.36
415.815
417.943
419.763
421.274
422.488
423.411
424.04
424.397
424.564
424.687
424.825
425.083
425.415
425.946
426.592
427.473
428.488
429.706
431.093
432.675
434.493
436.493
438.583
440.889
443.436
446.318
449.372
452.641
455.91
459.09
462.199
465.262
468.339
471.418
474.388
477.237
480.037
483.002
487.008
411.108
411.191
411.281
411.385
411.502
411.621
411.753
411.933
412.227
412.752
413.571
414.53
416.202
417.584
420.124
422.085
425.492
428.202
432.195
436.581
441.012
446.603
453.321
459.722
468.552
476.008
486.965
493.282
505.895
512.909
516.952
523.044
528.508
535.864
542.123
549.203
555.773
561.728
573.74
530.133
411.017
411.031
411.046
411.062
411.082
411.133
411.246
411.485
411.989
412.975
414.997
417.129
421.114
424.421
430.602
435.135
442.939
449.64
457.285
469.763
478.423
490.276
510.299
518.451
527.857
540.412
556.262
570.86
586.027
599.951
620.676
639.122
658.567
675.983
694.345
714.531
727.458
746.486
763.776
778.269
411.007
411.014
411.02
411.029
411.053
411.138
411.373
411.915
413.057
415.44
419.36
423.86
431.467
438.262
450.069
458.923
472.947
486.573
499.556
526.268
537.616
555.5
572.818
589.736
617.804
647.543
679.41
706.133
737.443
769.443
790.431
813.625
843.006
866.784
915.287
944.552
974.568
1003.89
1031.63
1060.75
411.006
411.011
411.016
411.03
411.094
411.304
411.845
413.052
415.5
420.606
427.653
436.42
450.507
463.1
485.167
500.45
523.992
551.839
565.717
593.312
624.522
650.573
690.784
737.972
769.361
806.189
855.725
895.551
967.362
1014.52
1075.21
1142.55
1215.94
1294.78
1376.01
1454.49
1526.46
1588.69
1664.1
1538.45
411.005
411.01
411.018
411.058
411.228
411.728
412.939
415.535
420.555
430.786
442.874
459.679
485.193
507.804
549.726
573.467
594.204
636.812
679.027
719.097
769.081
814.387
896.682
956.787
1036.84
1130.92
1237.16
1339.03
1433.38
1509.05
1592.26
1651.25
1731.4
1810.82
1894.2
1939.79
1973.01
1963.96
2012.6
1972.96
411.005
411.011
411.03
411.143
411.55
412.675
415.277
420.697
430.756
450.05
470.015
502.652
548.121
590.55
628.162
687.769
736.673
795.508
883.525
961.455
1089.58
1196.35
1305.45
1400.54
1486.05
1589.84
1676.1
1778.22
1843.35
1876.01
1908.79
1899.62
1963.59
1963.46
1905.89
1817.97
1721.83
1650.74
1576.8
1614.97
411.005
411.013
411.067
411.339
412.248
414.657
420.083
431.092
450.931
485.492
517.905
584.604
618.712
703.607
793.26
889.672
1008.85
1146.63
1287.45
1396.22
1647.91
1642.97
1728.36
1795.99
1831.46
1856.03
1830.25
1883.47
1833.04
1769.5
1695.82
1639.18
1546.24
1492.7
1381.26
1317.16
1270.07
1224.25
1181.34
1177.55
411.005
411.023
411.157
411.752
413.673
418.673
429.751
451.693
490.668
549.794
602.891
677.18
773.942
933.84
1098.13
1266.74
1417.47
1527.92
1685.94
1743.11
1821.39
1812
1921.13
1836.42
1752.16
1624.5
1468.37
1418.27
1351.29
1289.74
1248.1
1204.79
1140.29
1033.89
949.527
896.819
862.48
851.511
852.804
870.09
411.007
411.048
411.345
412.587
416.545
426.711
449.01
493.246
569.542
623.479
719.638
918.212
1114.85
1304
1454.42
1630.92
1758.8
1766.79
1855.53
1797.2
1730.19
1619.13
1547.39
1373.29
1270.11
1168.75
1064.28
962.568
903.266
861.442
816.57
768.821
728.168
691.649
678.307
673.098
673.721
678.257
686.999
703.037
411.01
411.108
411.737
414.316
422.391
443.005
488.581
580.13
644.719
768.613
1030.6
1265.17
1455.44
1675.66
1705.14
1835.06
1745.85
1612.74
1553.75
1403.39
1296.41
1209.76
1047.21
889.581
753.576
680.657
640.191
626.268
618.721
604.163
587.239
572.463
564.766
564.281
567.047
574.986
586.783
599.683
612.53
634.272
411.018
411.253
412.614
418.05
434.714
477.716
574.22
667.968
843.339
1130.15
1355.49
1606.9
1719.22
1795.58
1669.67
1573.64
1376.28
1272.31
1112.72
938.85
797.792
693.644
602.031
566.024
544.613
516.788
501.233
491.551
485.057
484.329
485.602
488.778
495.745
506.657
519.71
534.925
551.739
569.665
588.669
612.343
411.043
411.618
414.746
426.688
462.976
557.334
650.049
898.804
1242.85
1504.71
1606.88
1797.3
1684.51
1566.12
1331.31
1144.81
919.418
741.914
629.533
578.469
543.353
498.202
457.49
437.096
416.706
414.746
417.463
423.903
432.648
442.426
453.457
465.65
479.48
495.078
512.32
531.215
551.771
574.4
599.476
629.256
411.104
412.583
420.456
449.405
535.3
627.867
899.802
1279.5
1605.04
1680.09
1652.66
1573.5
1370.69
1157.04
906.372
687.481
568.17
540.979
480.886
438.085
395.921
377.113
374.855
377.467
382.8
390.987
400.637
411.72
424.116
437.674
452.356
468.362
485.772
504.649
525.111
547.298
571.386
597.735
627.058
661.11
411.194
415.567
438.661
519.295
603.426
878.689
1314.32
1590.63
1731.14
1566.04
1429.05
1188.95
970.312
721.473
566.123
522.925
467.483
389.241
360.529
349.813
349.366
352.117
358.262
367.58
378.562
390.778
404.229
418.645
433.784
449.687
466.567
484.668
504.158
525.187
547.919
572.532
599.252
628.43
660.712
697.249
411.281
427.221
511.086
592.869
867.175
1326.35
1588.85
1730.65
1565.1
1338.42
1084.33
837.015
626.146
513.573
478.084
390.497
349.971
333.78
331.817
334.154
340.016
349.441
360.96
374.882
389.428
404.409
420.128
436.577
453.282
470.487
488.728
508.287
529.335
552.032
576.55
603.068
631.798
663.038
697.245
735.058
411.119
487.491
599.991
841.264
1317.4
1570.38
1691.44
1556.81
1257.64
948.816
696.745
548.901
500.681
438.888
360.115
330.413
320.946
321.722
325.403
333.385
345.324
360.19
375.616
393.005
409.246
425.643
443.062
461.214
478.786
496.678
515.962
536.746
559.096
583.165
609.117
637.115
667.333
699.974
735.294
773.573
411.373
579.633
830.424
1311.26
1524.33
1632.94
1428.5
1111.87
831.808
585.75
537.075
472.851
379.715
335.211
317.913
313.19
314.571
319.374
329.312
344.068
360.47
379.473
396.99
417.888
434.092
451.136
470.555
490.819
508.302
526.231
546.623
568.622
592.113
617.311
644.387
673.48
704.709
738.182
773.988
812.166
410.58
951.859
1342.85
1525.65
1520.85
1333.49
979.945
701.939
533.671
488.178
403.353
348.352
320.782
310.345
308.16
309.668
314.585
326.209
342.037
361.91
381.147
404.299
421.617
443.336
462.929
481.911
501.401
521.412
541.46
559.562
579.923
602.973
627.394
653.47
681.369
711.198
743.019
776.852
812.66
850.33
404.87
1220.66
1419.41
1405.53
1075.65
838.773
548.959
495.323
435.657
356.522
324.833
310.921
305.144
304.756
306.226
311.124
322.038
340.451
359.915
384.785
404.564
428.99
451.375
473.377
494.162
514.2
534.166
554.443
575.267
594.416
615.347
639.006
664.079
690.776
719.218
749.464
781.517
815.324
850.758
887.614
300.887
445.89
468.428
477.617
470.616
441.396
402.624
347.073
322.406
310.119
304.536
302.192
302.345
303.611
307.971
318.333
335.219
359.257
380.426
406.501
432.953
458.616
482.596
505.312
526.823
547.525
567.96
588.581
609.732
629.947
651.852
675.876
701.382
728.474
757.209
787.592
819.573
853.041
887.815
923.634
299.699
309.864
321.467
321.667
319.329
313.724
308.438
304.692
302.413
301.139
300.551
300.785
301.809
305.117
313.81
329.942
352.797
375.534
405.202
434.656
463.03
489.797
514.704
538.011
560.042
581.236
602.09
623.059
644.474
665.734
688.474
712.801
738.596
765.895
794.706
824.991
856.657
889.55
923.456
958.09
299.6
300.211
301.548
301.692
301.582
301.151
300.676
300.352
300.09
299.937
300.047
300.748
303.208
309.228
324.159
342.08
369.485
400.765
432.854
464.199
493.853
521.424
546.934
570.706
593.162
614.77
635.995
657.308
679.052
701.234
724.519
749.134
775.114
802.471
831.181
861.177
892.335
924.476
957.371
990.733
299.579
299.636
299.789
299.872
299.903
299.889
299.824
299.756
299.717
299.764
300.066
301.602
306.841
315.626
332.863
360.187
392.521
427.085
461.188
494.015
524.581
552.732
578.68
602.833
625.664
647.651
669.184
690.799
713.044
735.821
759.529
784.379
810.442
837.728
866.194
895.751
926.26
957.529
989.325
1021.39
299.572
299.58
299.603
299.637
299.66
299.659
299.644
299.628
299.647
299.778
300.567
303.781
309.937
323.699
348.22
379.699
415.619
453.291
489.4
523.405
554.606
583.168
609.456
633.941
657.123
679.462
700.987
723.294
745.935
769.128
793.138
818.133
844.183
871.29
899.399
928.411
958.175
988.501
1019.18
1050
299.569
299.57
299.575
299.584
299.595
299.596
299.592
299.6
299.651
300
301.743
305.811
315.251
335.887
365.68
401.176
439.653
478.787
517.191
551.887
583.462
612.306
638.878
663.678
687.191
709.565
731.454
754.304
777.321
800.823
825.032
850.084
876.034
902.876
930.547
958.939
987.905
1017.27
1046.88
1076.49
299.568
299.568
299.57
299.572
299.576
299.577
299.58
299.603
299.725
300.541
302.873
309.515
326.735
354.477
388.908
427.209
467.035
506.555
544.302
579.048
610.782
639.826
666.65
691.772
715.399
737.539
760.535
783.626
806.921
830.642
854.964
879.995
905.776
932.288
959.466
987.2
1015.36
1043.81
1072.37
1100.83
299.568
299.567
299.569
299.57
299.571
299.572
299.578
299.626
299.921
301.075
305.156
317.326
340.805
373.145
410.942
451.356
492.273
532.266
569.714
604.437
636.269
665.483
692.543
717.957
741.296
763.982
787.601
810.993
834.516
858.388
882.756
907.706
933.263
959.404
986.058
1013.13
1040.52
1068.09
1095.66
1123.03
299.567
299.567
299.568
299.568
299.569
299.57
299.581
299.658
300.155
302.294
309.812
327.231
355.35
391.08
431.317
473.319
515.098
555.421
592.96
627.774
659.728
689.112
716.38
741.503
765.008
788.944
812.673
836.273
859.967
883.933
908.294
933.117
958.416
984.162
1010.29
1036.74
1063.41
1090.13
1116.77
1143.13
299.567
299.566
299.567
299.567
299.568
299.57
299.593
299.759
300.687
304.661
315.677
337.635
369.106
407.461
449.621
492.931
535.436
575.583
613.887
648.939
681.066
710.634
737.679
762.524
787.414
811.663
835.584
859.362
883.186
907.204
931.52
956.185
981.207
1006.56
1032.2
1058.06
1084.03
1109.97
1135.74
1161.18
299.566
299.566
299.566
299.566
299.567
299.572
299.62
299.948
301.69
307.608
321.945
347.121
381.325
421.873
465.693
510.19
553.554
594.38
632.701
667.944
700.268
729.887
756.017
782.343
807.603
832.144
856.274
880.212
904.134
928.173
952.417
976.908
1001.65
1026.63
1051.82
1077.12
1102.45
1127.66
1152.64
1177.24
299.566
299.565
299.566
299.566
299.567
299.579
299.673
300.287
302.868
310.549
327.573
355.247
391.759
434.238
479.556
525.146
569.302
610.734
649.33
684.812
717.318
746.321
772.93
799.961
825.594
850.407
874.735
898.813
922.809
946.848
971.004
995.313
1019.79
1044.44
1069.2
1093.99
1118.72
1143.28
1167.55
1191.4
299.565
299.565
299.565
299.566
299.569
299.592
299.766
300.66
303.973
313.087
332.219
361.955
400.459
444.659
491.338
537.92
582.562
624.839
663.837
699.63
731.848
760.128
788.461
815.56
841.444
866.484
890.988
915.184
939.236
963.258
987.319
1011.46
1035.7
1060.04
1084.4
1108.73
1132.94
1156.91
1180.55
1203.74
299.565
299.564
299.565
299.566
299.571
299.613
299.864
300.998
304.9
315.142
335.918
367.372
407.592
453.31
501.225
548.777
594.264
636.956
676.331
712.353
743.781
772.64
801.731
829.077
855.181
880.414
905.068
929.362
953.454
977.45
1001.42
1025.41
1049.44
1073.49
1097.51
1121.43
1145.16
1168.63
1191.72
1214.34
299.564
299.564
299.565
299.566
299.575
299.635
299.954
301.287
305.651
316.774
338.792
371.663
413.332
460.363
509.374
557.814
604
647.163
686.953
722.637
753.299
783.933
813.039
840.559
866.846
892.241
917.019
941.392
965.509
989.475
1013.36
1037.22
1061.06
1084.87
1108.58
1132.14
1155.48
1178.5
1201.13
1223.26
299.564
299.564
299.564
299.566
299.578
299.656
300.033
301.525
306.246
318.035
340.982
374.984
417.844
465.977
515.926
565.125
611.921
655.538
695.675
730.732
761.572
793.02
822.349
850.038
876.479
902.005
926.884
951.318
975.453
999.387
1023.21
1046.95
1070.63
1094.22
1117.68
1140.95
1163.95
1186.61
1208.85
1230.58
299.564
299.563
299.564
299.566
299.582
299.673
300.097
301.713
306.7
318.976
342.604
377.471
421.27
470.29
521.003
570.81
618.136
662.18
702.462
736.823
768.375
800.21
829.724
857.553
884.117
909.747
934.704
959.183
983.328
1007.24
1031
1054.66
1078.2
1101.62
1124.87
1147.9
1170.64
1193.01
1214.94
1236.36
299.563
299.563
299.564
299.566
299.584
299.686
300.146
301.851
307.027
319.642
343.746
379.235
423.727
473.416
524.71
574.977
622.718
667.091
707.188
740.825
774.063
805.647
835.216
863.137
889.79
915.496
940.509
965.022
989.172
1013.06
1036.78
1060.37
1083.81
1107.1
1130.2
1153.05
1175.59
1197.75
1219.45
1240.63
299.563
299.563
299.564
299.567
299.586
299.695
300.177
301.941
307.236
320.063
344.467
380.357
425.302
475.433
527.121
577.731
625.713
670.292
710.188
743.701
777.604
809.212
838.822
866.8
893.51
919.265
944.314
968.847
993
1016.88
1040.57
1064.11
1087.49
1110.69
1133.68
1156.41
1178.82
1200.84
1222.4
1243.42
299.563
299.563
299.564
299.567
299.587
299.699
300.192
301.981
307.329
320.249
344.787
380.857
426.008
476.342
528.21
578.975
627.069
671.74
711.535
745.045
779.179
810.826
840.457
868.461
895.197
920.974
946.04
970.581
994.735
1018.61
1042.29
1065.8
1089.15
1112.31
1135.26
1157.94
1180.29
1202.24
1223.73
1244.68
893.865
985.635
1023.9
1045.57
1060.36
1071.53
1080.5
1087.98
1094.4
1100.01
1104.98
1109.41
1113.42
1117.06
1120.39
1123.43
1126.22
1128.79
1131.16
1133.34
1135.36
1137.22
1138.93
1140.51
1141.96
1143.29
1144.5
1145.61
1146.62
1147.53
1148.34
1149.07
1149.7
1150.25
1150.72
1151.11
1151.42
1151.65
1151.8
1151.86
893.967
985.609
1023.94
1045.67
1060.49
1071.67
1080.64
1088.13
1094.54
1100.16
1105.12
1109.55
1113.56
1117.2
1120.52
1123.56
1126.36
1128.92
1131.29
1133.47
1135.49
1137.35
1139.06
1140.64
1142.08
1143.41
1144.63
1145.73
1146.74
1147.65
1148.46
1149.19
1149.82
1150.37
1150.84
1151.23
1151.54
1151.76
1151.91
1151.98
894.309
985.808
1024.1
1045.83
1060.65
1071.84
1080.82
1088.31
1094.73
1100.34
1105.28
1109.74
1113.76
1117.4
1120.72
1123.76
1126.56
1129.12
1131.49
1133.67
1135.69
1137.55
1139.27
1140.83
1142.28
1143.6
1144.82
1145.93
1146.93
1147.84
1148.66
1149.38
1150.01
1150.56
1151.03
1151.42
1151.73
1151.95
1152.1
1152.17
894.591
986.011
1024.28
1046.01
1060.84
1072.04
1081.02
1088.52
1094.94
1100.55
1105.52
1109.97
1113.99
1117.63
1120.95
1124
1126.79
1129.36
1131.73
1133.91
1135.92
1137.77
1139.48
1141.06
1142.51
1143.84
1145.05
1146.16
1147.17
1148.07
1148.89
1149.61
1150.25
1150.8
1151.26
1151.65
1151.96
1152.19
1152.33
1152.4
895.005
986.294
1024.51
1046.23
1061.05
1072.25
1081.24
1088.74
1095.16
1100.76
1105.75
1110.21
1114.23
1117.87
1121.2
1124.25
1127.04
1129.61
1131.98
1134.16
1136.17
1138.03
1139.73
1141.31
1142.76
1144.1
1145.31
1146.42
1147.42
1148.33
1149.15
1149.87
1150.5
1151.05
1151.52
1151.91
1152.21
1152.44
1152.59
1152.66
895.384
986.591
1024.76
1046.46
1061.28
1072.48
1081.47
1088.98
1095.41
1101.02
1106
1110.46
1114.48
1118.13
1121.46
1124.5
1127.3
1129.87
1132.24
1134.43
1136.44
1138.3
1140.01
1141.59
1143.04
1144.37
1145.58
1146.69
1147.7
1148.6
1149.42
1150.14
1150.78
1151.33
1151.79
1152.18
1152.49
1152.71
1152.86
1152.93
895.834
986.926
1025.04
1046.71
1061.53
1072.72
1081.71
1089.22
1095.66
1101.28
1106.26
1110.72
1114.74
1118.39
1121.72
1124.77
1127.57
1130.14
1132.52
1134.7
1136.72
1138.58
1140.29
1141.87
1143.32
1144.65
1145.86
1146.97
1147.98
1148.88
1149.7
1150.42
1151.06
1151.61
1152.07
1152.46
1152.77
1152.99
1153.14
1153.21
896.27
987.273
1025.33
1046.98
1061.78
1072.97
1081.96
1089.47
1095.91
1101.53
1106.52
1110.98
1115
1118.66
1121.99
1125.04
1127.84
1130.42
1132.79
1134.98
1137
1138.87
1140.57
1142.15
1143.6
1144.93
1146.15
1147.25
1148.26
1149.17
1149.98
1150.71
1151.34
1151.89
1152.36
1152.75
1153.05
1153.28
1153.43
1153.5
896.742
987.642
1025.63
1047.26
1062.05
1073.23
1082.22
1089.73
1096.17
1101.8
1106.78
1111.24
1115.27
1118.93
1122.26
1125.31
1128.12
1130.7
1133.07
1135.26
1137.28
1139.15
1140.86
1142.43
1143.89
1145.22
1146.43
1147.54
1148.55
1149.46
1150.27
1151
1151.63
1152.18
1152.65
1153.04
1153.34
1153.57
1153.72
1153.79
897.213
988.02
1025.95
1047.54
1062.32
1073.5
1082.49
1089.99
1096.43
1102.06
1107.05
1111.51
1115.54
1119.2
1122.54
1125.59
1128.4
1130.98
1133.35
1135.54
1137.56
1139.4
1141.14
1142.72
1144.17
1145.51
1146.72
1147.83
1148.84
1149.75
1150.57
1151.29
1151.92
1152.48
1152.94
1153.33
1153.64
1153.86
1154.01
1154.08
897.703
988.411
1026.27
1047.84
1062.6
1073.77
1082.76
1090.26
1096.7
1102.34
1107.32
1111.78
1115.81
1119.48
1122.82
1125.87
1128.68
1131.26
1133.64
1135.83
1137.85
1139.71
1141.43
1143.01
1144.47
1145.8
1147.02
1148.13
1149.14
1150.05
1150.86
1151.58
1152.22
1152.77
1153.24
1153.62
1153.93
1154.16
1154.31
1154.38
898.195
988.811
1026.6
1048.14
1062.89
1074.05
1083.03
1090.53
1096.97
1102.62
1107.59
1112.06
1116.09
1119.76
1123.1
1126.16
1128.97
1131.55
1133.93
1136.12
1138.15
1140.01
1141.73
1143.31
1144.76
1146.09
1147.31
1148.42
1149.43
1150.34
1151.16
1151.88
1152.52
1153.07
1153.54
1153.92
1154.23
1154.46
1154.61
1154.67
898.699
989.218
1026.94
1048.45
1063.18
1074.34
1083.31
1090.81
1097.24
1102.88
1107.87
1112.34
1116.38
1120.04
1123.38
1126.45
1129.26
1131.84
1134.22
1136.42
1138.45
1140.31
1142.02
1143.6
1145.06
1146.39
1147.61
1148.72
1149.73
1150.64
1151.45
1152.18
1152.82
1153.37
1153.83
1154.22
1154.53
1154.76
1154.91
1154.97
899.207
989.631
1027.29
1048.76
1063.48
1074.63
1083.6
1091.09
1097.52
1103.13
1108.14
1112.62
1116.66
1120.33
1123.67
1126.74
1129.55
1132.13
1134.51
1136.71
1138.75
1140.6
1142.32
1143.9
1145.36
1146.69
1147.91
1149.02
1150.03
1150.94
1151.75
1152.48
1153.12
1153.67
1154.13
1154.52
1154.83
1155.06
1155.21
1155.27
899.721
990.05
1027.64
1049.08
1063.78
1074.92
1083.88
1091.38
1097.82
1103.44
1108.44
1112.91
1116.95
1120.62
1123.96
1127.03
1129.84
1132.43
1134.81
1137
1139.03
1140.9
1142.62
1144.2
1145.66
1146.99
1148.21
1149.32
1150.33
1151.24
1152.06
1152.78
1153.42
1153.97
1154.44
1154.82
1155.13
1155.36
1155.51
1155.58
900.241
990.473
1027.99
1049.4
1064.08
1075.21
1084.17
1091.67
1098.11
1103.74
1108.73
1113.2
1117.24
1120.91
1124.26
1127.32
1130.14
1132.72
1135.1
1137.3
1139.3
1141.19
1142.91
1144.5
1145.96
1147.29
1148.51
1149.62
1150.63
1151.54
1152.36
1153.08
1153.72
1154.27
1154.74
1155.13
1155.43
1155.66
1155.81
1155.88
900.765
990.9
1028.35
1049.73
1064.39
1075.51
1084.47
1091.96
1098.4
1104.03
1109.02
1113.5
1117.54
1121.2
1124.55
1127.62
1130.43
1133.02
1135.41
1137.6
1139.63
1141.5
1143.22
1144.8
1146.26
1147.6
1148.82
1149.93
1150.94
1151.85
1152.66
1153.39
1154.02
1154.58
1155.04
1155.43
1155.74
1155.97
1156.12
1156.18
901.292
991.332
1028.71
1050.05
1064.7
1075.81
1084.76
1092.25
1098.69
1104.32
1109.32
1113.79
1117.83
1121.5
1124.85
1127.92
1130.73
1133.32
1135.71
1137.91
1139.93
1141.8
1143.52
1145.11
1146.57
1147.9
1149.12
1150.23
1151.24
1152.15
1152.97
1153.69
1154.33
1154.88
1155.35
1155.74
1156.04
1156.27
1156.42
1156.49
901.823
991.765
1029.08
1050.38
1065.01
1076.11
1085.06
1092.55
1098.98
1104.62
1109.61
1114.09
1118.13
1121.8
1125.15
1128.22
1131.04
1133.63
1136.02
1138.22
1140.24
1142.11
1143.83
1145.42
1146.87
1148.21
1149.43
1150.54
1151.55
1152.46
1153.28
1154
1154.64
1155.19
1155.66
1156.04
1156.35
1156.58
1156.73
1156.8
902.357
992.201
1029.44
1050.71
1065.32
1076.42
1085.36
1092.84
1099.28
1104.91
1109.91
1114.39
1118.43
1122.1
1125.45
1128.52
1131.34
1133.93
1136.32
1138.53
1140.55
1142.42
1144.14
1145.72
1147.18
1148.52
1149.74
1150.85
1151.86
1152.77
1153.58
1154.31
1154.95
1155.5
1155.97
1156.35
1156.66
1156.89
1157.04
1157.11
902.894
992.641
1029.81
1051.05
1065.64
1076.72
1085.66
1093.14
1099.58
1105.21
1110.22
1114.68
1118.73
1122.4
1125.76
1128.83
1131.65
1134.24
1136.63
1138.84
1140.86
1142.73
1144.45
1146.03
1147.49
1148.83
1150.05
1151.16
1152.17
1153.08
1153.9
1154.62
1155.26
1155.81
1156.28
1156.66
1156.97
1157.2
1157.35
1157.42
903.434
993.081
1030.18
1051.38
1065.96
1077.03
1085.96
1093.45
1099.87
1105.5
1110.5
1114.98
1119.03
1122.71
1126.06
1129.13
1131.95
1134.54
1136.93
1139.14
1141.16
1143.03
1144.76
1146.34
1147.8
1149.14
1150.36
1151.47
1152.48
1153.39
1154.21
1154.93
1155.57
1156.12
1156.59
1156.97
1157.28
1157.51
1157.66
1157.73
903.977
993.523
1030.55
1051.72
1066.27
1077.34
1086.27
1093.75
1100.18
1105.81
1110.78
1115.28
1119.34
1123.01
1126.37
1129.44
1132.26
1134.85
1137.24
1139.42
1141.47
1143.34
1145.07
1146.66
1148.11
1149.45
1150.67
1151.78
1152.79
1153.7
1154.52
1155.24
1155.88
1156.43
1156.9
1157.29
1157.59
1157.82
1157.97
1158.04
904.521
993.967
1030.92
1052.05
1066.59
1077.65
1086.58
1094.05
1100.48
1106.12
1111.11
1115.6
1119.65
1123.32
1126.68
1129.75
1132.57
1135.17
1137.55
1139.75
1141.79
1143.66
1145.38
1146.97
1148.43
1149.76
1150.99
1152.1
1153.11
1154.02
1154.83
1155.56
1156.2
1156.75
1157.21
1157.6
1157.91
1158.14
1158.29
1158.35
905.068
994.412
1031.29
1052.39
1066.92
1077.97
1086.88
1094.36
1100.79
1106.42
1111.42
1115.91
1119.96
1123.63
1126.99
1130.07
1132.89
1135.48
1137.87
1140.07
1142.1
1143.98
1145.7
1147.29
1148.74
1150.08
1151.3
1152.41
1153.42
1154.33
1155.15
1155.87
1156.51
1157.06
1157.53
1157.92
1158.22
1158.45
1158.6
1158.67
905.617
994.858
1031.67
1052.73
1067.24
1078.28
1087.19
1094.67
1101.1
1106.73
1111.73
1116.22
1120.27
1123.95
1127.31
1130.38
1133.2
1135.8
1138.19
1140.39
1142.42
1144.29
1146.02
1147.6
1149.06
1150.4
1151.62
1152.73
1153.74
1154.65
1155.47
1156.19
1156.83
1157.38
1157.85
1158.23
1158.54
1158.77
1158.92
1158.99
906.168
995.306
1032.04
1053.07
1067.56
1078.59
1087.5
1094.98
1101.41
1107.04
1112.04
1116.53
1120.58
1124.26
1127.62
1130.7
1133.52
1136.12
1138.51
1140.71
1142.74
1144.61
1146.34
1147.92
1149.38
1150.72
1151.94
1153.05
1154.06
1154.97
1155.79
1156.51
1157.15
1157.7
1158.17
1158.55
1158.86
1159.09
1159.24
1159.31
906.721
995.754
1032.42
1053.41
1067.88
1078.91
1087.81
1095.29
1101.72
1107.35
1112.35
1116.84
1120.89
1124.57
1127.94
1131.01
1133.84
1136.44
1138.83
1141.03
1143.06
1144.93
1146.66
1148.24
1149.7
1151.04
1152.26
1153.37
1154.38
1155.29
1156.11
1156.83
1157.47
1158.02
1158.49
1158.87
1159.18
1159.41
1159.56
1159.63
907.276
996.203
1032.79
1053.75
1068.21
1079.22
1088.13
1095.6
1102.03
1107.66
1112.67
1117.15
1121.21
1124.89
1128.25
1131.33
1134.16
1136.76
1139.15
1141.35
1143.38
1145.25
1146.98
1148.57
1150.02
1151.36
1152.58
1153.69
1154.7
1155.61
1156.43
1157.15
1157.79
1158.34
1158.81
1159.2
1159.5
1159.73
1159.88
1159.95
907.832
996.654
1033.17
1054.1
1068.53
1079.54
1088.44
1095.91
1102.34
1107.97
1112.98
1117.47
1121.52
1125.21
1128.57
1131.65
1134.48
1137.08
1139.48
1141.68
1143.71
1145.58
1147.3
1148.89
1150.35
1151.68
1152.9
1154.02
1155.03
1155.94
1156.75
1157.48
1158.11
1158.66
1159.13
1159.52
1159.83
1160.05
1160.2
1160.27
908.391
997.104
1033.55
1054.44
1068.86
1079.86
1088.75
1096.22
1102.65
1108.29
1113.3
1117.79
1121.84
1125.53
1128.89
1131.97
1134.8
1137.4
1139.8
1141.99
1144.03
1145.9
1147.63
1149.21
1150.67
1152.01
1153.23
1154.34
1155.35
1156.26
1157.08
1157.8
1158.44
1158.99
1159.46
1159.84
1160.15
1160.38
1160.53
1160.6
908.952
997.556
1033.93
1054.78
1069.19
1080.18
1089.07
1096.54
1102.97
1108.61
1113.61
1118.1
1122.16
1125.85
1129.21
1132.29
1135.12
1137.71
1140.09
1142.31
1144.35
1146.22
1147.95
1149.54
1151
1152.33
1153.55
1154.67
1155.68
1156.59
1157.4
1158.13
1158.76
1159.31
1159.78
1160.17
1160.48
1160.7
1160.85
1160.92
909.514
998.009
1034.3
1055.13
1069.52
1080.5
1089.39
1096.85
1103.28
1108.92
1113.93
1118.42
1122.48
1126.17
1129.54
1132.62
1135.44
1138.04
1140.43
1142.64
1144.68
1146.55
1148.28
1149.87
1151.32
1152.66
1153.88
1154.99
1156
1156.91
1157.73
1158.45
1159.09
1159.64
1160.11
1160.5
1160.8
1161.03
1161.18
1161.25
910.079
998.461
1034.68
1055.47
1069.85
1080.82
1089.7
1097.17
1103.6
1109.24
1114.25
1118.75
1122.81
1126.49
1129.86
1132.94
1135.77
1138.37
1140.77
1142.97
1145.01
1146.88
1148.61
1150.19
1151.65
1152.99
1154.21
1155.32
1156.33
1157.24
1158.06
1158.78
1159.42
1159.97
1160.44
1160.82
1161.13
1161.36
1161.51
1161.58
910.645
998.915
1035.06
1055.82
1070.17
1081.14
1090.02
1097.48
1103.92
1109.56
1114.58
1119.07
1123.13
1126.82
1130.19
1133.27
1136.1
1138.7
1141.1
1143.3
1145.34
1147.21
1148.94
1150.52
1151.98
1153.32
1154.54
1155.65
1156.66
1157.57
1158.39
1159.11
1159.75
1160.3
1160.77
1161.15
1161.46
1161.69
1161.84
1161.91
911.213
999.37
1035.44
1056.16
1070.5
1081.46
1090.34
1097.8
1104.23
1109.88
1114.91
1119.39
1123.45
1127.14
1130.51
1133.6
1136.43
1139.03
1141.43
1143.63
1145.67
1147.54
1149.27
1150.86
1152.31
1153.65
1154.87
1155.98
1156.99
1157.9
1158.72
1159.44
1160.08
1160.63
1161.1
1161.49
1161.79
1162.02
1162.17
1162.24
911.784
999.825
1035.82
1056.51
1070.84
1081.79
1090.66
1098.12
1104.55
1110.19
1115.22
1119.71
1123.78
1127.47
1130.84
1133.93
1136.76
1139.36
1141.76
1143.97
1146
1147.87
1149.6
1151.19
1152.65
1153.98
1155.2
1156.32
1157.32
1158.24
1159.05
1159.78
1160.41
1160.96
1161.43
1161.82
1162.13
1162.35
1162.5
1162.57
912.357
1000.28
1036.21
1056.86
1071.17
1082.11
1090.98
1098.44
1104.87
1110.51
1115.5
1120.03
1124.1
1127.8
1131.17
1134.26
1137.09
1139.7
1142.09
1144.3
1146.33
1148.21
1149.93
1151.52
1152.98
1154.31
1155.54
1156.65
1157.66
1158.57
1159.39
1160.11
1160.75
1161.3
1161.77
1162.15
1162.46
1162.69
1162.84
1162.91
912.931
1000.74
1036.59
1057.21
1071.5
1082.44
1091.3
1098.76
1105.2
1110.84
1115.86
1120.36
1124.43
1128.13
1131.5
1134.59
1137.42
1140.03
1142.43
1144.63
1146.67
1148.54
1150.27
1151.85
1153.31
1154.65
1155.87
1156.98
1157.99
1158.9
1159.72
1160.45
1161.08
1161.63
1162.1
1162.49
1162.8
1163.03
1163.17
1163.24
913.509
1001.2
1036.97
1057.55
1071.83
1082.76
1091.63
1099.09
1105.52
1111.17
1116.19
1120.69
1124.76
1128.46
1131.84
1134.92
1137.76
1140.36
1142.76
1144.97
1147
1148.88
1150.6
1152.19
1153.65
1154.98
1156.21
1157.32
1158.33
1159.24
1160.06
1160.78
1161.42
1161.97
1162.44
1162.83
1163.13
1163.36
1163.51
1163.58
914.088
1001.66
1037.35
1057.9
1072.16
1083.09
1091.95
1099.41
1105.85
1111.5
1116.52
1121.03
1125.1
1128.79
1132.17
1135.26
1138.09
1140.7
1143.1
1145.3
1147.34
1149.21
1150.94
1152.53
1153.98
1155.32
1156.54
1157.66
1158.67
1159.58
1160.39
1161.12
1161.76
1162.31
1162.78
1163.17
1163.47
1163.7
1163.85
1163.92
914.67
1002.12
1037.74
1058.25
1072.5
1083.41
1092.27
1099.73
1106.17
1111.82
1116.85
1121.36
1125.43
1129.13
1132.5
1135.59
1138.43
1141.04
1143.43
1145.64
1147.67
1149.55
1151.27
1152.86
1154.32
1155.66
1156.88
1157.99
1159.01
1159.92
1160.73
1161.46
1162.1
1162.65
1163.12
1163.51
1163.81
1164.04
1164.19
1164.26
915.255
1002.58
1038.12
1058.6
1072.83
1083.74
1092.6
1100.06
1106.5
1112.15
1117.18
1121.69
1125.76
1129.46
1132.83
1135.93
1138.76
1141.38
1143.77
1145.98
1148.01
1149.89
1151.61
1153.2
1154.66
1156
1157.22
1158.33
1159.34
1160.26
1161.07
1161.8
1162.44
1162.99
1163.46
1163.85
1164.16
1164.38
1164.53
1164.6
915.842
1003.04
1038.51
1058.95
1073.17
1084.07
1092.92
1100.38
1106.82
1112.47
1117.5
1122.03
1126.09
1129.79
1133.17
1136.26
1139.1
1141.72
1144.11
1146.31
1148.35
1150.22
1151.95
1153.54
1155
1156.34
1157.56
1158.67
1159.69
1160.6
1161.42
1162.14
1162.78
1163.33
1163.8
1164.19
1164.5
1164.73
1164.88
1164.95
916.431
1003.5
1038.89
1059.3
1073.5
1084.4
1093.25
1100.71
1107.15
1112.8
1117.83
1122.34
1126.42
1130.12
1133.5
1136.59
1139.43
1142.04
1144.44
1146.65
1148.69
1150.56
1152.29
1153.88
1155.34
1156.68
1157.9
1159.02
1160.03
1160.94
1161.76
1162.48
1163.12
1163.68
1164.15
1164.54
1164.84
1165.07
1165.22
1165.29
917.024
1003.96
1039.27
1059.65
1073.84
1084.73
1093.58
1101.04
1107.48
1113.13
1118.16
1122.65
1126.75
1130.46
1133.84
1136.93
1139.76
1142.35
1144.77
1146.99
1149.02
1150.9
1152.63
1154.22
1155.68
1157.02
1158.24
1159.36
1160.37
1161.28
1162.1
1162.83
1163.47
1164.02
1164.49
1164.88
1165.19
1165.42
1165.57
1165.64
917.62
1004.43
1039.66
1060.01
1074.17
1085.06
1093.91
1101.36
1107.81
1113.46
1118.5
1123.01
1127.09
1130.8
1134.18
1137.27
1140.1
1142.71
1145.11
1147.33
1149.37
1151.24
1152.97
1154.56
1156.02
1157.36
1158.59
1159.7
1160.71
1161.63
1162.45
1163.18
1163.82
1164.37
1164.84
1165.23
1165.54
1165.77
1165.92
1165.99
918.218
1004.89
1040.05
1060.36
1074.51
1085.39
1094.23
1101.69
1108.13
1113.79
1118.83
1123.36
1127.43
1131.13
1134.51
1137.61
1140.45
1143.05
1145.46
1147.67
1149.71
1151.59
1153.31
1154.9
1156.37
1157.71
1158.93
1160.05
1161.06
1161.97
1162.79
1163.52
1164.16
1164.72
1165.19
1165.58
1165.89
1166.12
1166.27
1166.34
918.82
1005.36
1040.43
1060.71
1074.85
1085.72
1094.56
1102.02
1108.46
1114.12
1119.16
1123.69
1127.76
1131.47
1134.85
1137.95
1140.79
1143.4
1145.8
1148.01
1150.05
1151.93
1153.66
1155.25
1156.71
1158.05
1159.28
1160.39
1161.41
1162.32
1163.14
1163.87
1164.51
1165.07
1165.54
1165.93
1166.24
1166.47
1166.62
1166.69
919.424
1005.82
1040.82
1061.06
1075.18
1086.05
1094.89
1102.35
1108.79
1114.45
1119.48
1123.98
1128.09
1131.8
1135.19
1138.29
1141.13
1143.74
1146.14
1148.35
1150.39
1152.27
1154
1155.59
1157.05
1158.4
1159.62
1160.74
1161.75
1162.67
1163.49
1164.22
1164.86
1165.42
1165.89
1166.28
1166.59
1166.82
1166.97
1167.04
920.031
1006.29
1041.21
1061.41
1075.52
1086.38
1095.22
1102.68
1109.12
1114.79
1119.82
1124.34
1128.43
1132.14
1135.53
1138.63
1141.47
1144.08
1146.48
1148.69
1150.73
1152.61
1154.34
1155.94
1157.4
1158.74
1159.97
1161.09
1162.1
1163.02
1163.84
1164.57
1165.21
1165.77
1166.24
1166.64
1166.95
1167.18
1167.33
1167.4
920.643
1006.76
1041.59
1061.76
1075.86
1086.71
1095.55
1103.01
1109.45
1115.12
1120.16
1124.68
1128.77
1132.48
1135.87
1138.97
1141.81
1144.42
1146.82
1149.04
1151.08
1152.96
1154.69
1156.28
1157.74
1159.09
1160.32
1161.44
1162.45
1163.37
1164.19
1164.92
1165.57
1166.13
1166.6
1166.99
1167.3
1167.53
1167.68
1167.75
921.257
1007.23
1041.98
1062.12
1076.19
1087.04
1095.87
1103.33
1109.78
1115.45
1120.49
1125.02
1129.11
1132.82
1136.21
1139.31
1142.15