/*--------------------------------*- C++ -*----------------------------------*\
| =========                 |                                                 |
| \\      /  F ield         | OpenFOAM: The Open Source CFD Toolbox           |
|  \\    /   O peration     | Version:  2.3.0                                 |
|   \\  /    A nd           | Web:      www.OpenFOAM.org                      |
|    \\/     M anipulation  |                                                 |
\*---------------------------------------------------------------------------*/
FoamFile
{
    version     2.0;
    format      ascii;
    class       surfaceScalarField;
    location    "9900/topAir";
    object      phi;
}
// * * * * * * * * * * * * * * * * * * * * * * * * * * * * * * * * * * * * * //

dimensions      [1 0 -1 0 0 0 0];

internalField   nonuniform List<scalar> 
7860
(
0.01431741
1.225111e-05
0.01430705
1.03699e-05
0.01429848
8.56801e-06
0.01428971
8.777341e-06
0.01428065
9.059973e-06
0.01427149
9.158132e-06
0.01426226
9.231554e-06
0.01425295
9.306289e-06
0.01424359
9.368396e-06
0.01423417
9.417492e-06
0.01422471
9.457236e-06
0.01421522
9.48964e-06
0.0142057
9.515943e-06
0.01419617
9.537246e-06
0.01418661
9.554453e-06
0.01417704
9.56827e-06
0.01416746
9.579255e-06
0.01415788
9.587857e-06
0.01414828
9.594436e-06
0.01413868
9.599288e-06
0.01412908
9.602653e-06
0.01411947
9.604732e-06
0.01410987
9.605691e-06
0.01410026
9.60567e-06
0.01409066
9.604786e-06
0.01408105
9.60314e-06
0.01407145
9.600818e-06
0.01406186
9.597894e-06
0.01405226
9.594431e-06
0.01404267
9.590485e-06
0.01403308
9.586104e-06
0.0140235
9.58133e-06
0.01401393
9.576201e-06
0.01400435
9.570748e-06
0.01399479
9.565e-06
0.01398523
9.558983e-06
0.01397568
9.552719e-06
0.01396613
9.546227e-06
0.01395659
9.539525e-06
0.01394706
9.532628e-06
0.01393753
9.525549e-06
0.01392802
9.518301e-06
0.0139185
9.510894e-06
0.013909
9.503336e-06
0.01389951
9.495636e-06
0.01389002
9.487798e-06
0.01388054
9.47983e-06
0.01387107
9.471734e-06
0.0138616
9.463515e-06
0.01385215
9.455173e-06
0.0138427
9.446711e-06
0.01383326
9.438129e-06
0.01382383
9.429425e-06
0.01381441
9.420598e-06
0.013805
9.411645e-06
0.0137956
9.402562e-06
0.0137862
9.393344e-06
0.01377682
9.383984e-06
0.01376745
9.374476e-06
0.01375808
9.364811e-06
0.01374873
9.354977e-06
0.01373938
9.344963e-06
0.01373005
9.334755e-06
0.01372072
9.324338e-06
0.01371141
9.313692e-06
0.0137021
9.302798e-06
0.01369281
9.291631e-06
0.01368353
9.280165e-06
0.01367426
9.268368e-06
0.01366501
9.256206e-06
0.01365576
9.243638e-06
0.01364653
9.230617e-06
0.01363732
9.217091e-06
0.01362811
9.202997e-06
0.01361893
9.188263e-06
0.01360975
9.172806e-06
0.0136006
9.156527e-06
0.01359146
9.139311e-06
0.01358234
9.12102e-06
0.01357323
9.101489e-06
0.01356415
9.080519e-06
0.0135551
9.057868e-06
0.01354606
9.033241e-06
0.01353706
9.006266e-06
0.01352808
8.97648e-06
0.01351914
8.943288e-06
0.01351023
8.90592e-06
0.01350137
8.863357e-06
0.01349255
8.814218e-06
0.0134838
8.756588e-06
0.01347511
8.687721e-06
0.0134665
8.603533e-06
0.01345801
8.497678e-06
0.01344965
8.359738e-06
0.01344148
8.171834e-06
0.01343358
7.900201e-06
0.01342609
7.483051e-06
0.01341932
6.771686e-06
0.01341377
5.547697e-06
2.797014e-06
0.01434106
1.713884e-06
0.01434479
6.63998e-06
0.01434611
7.250832e-06
0.01434743
7.460204e-06
0.0143486
7.894249e-06
0.01434954
8.214031e-06
0.01435034
8.435125e-06
0.01435103
8.613548e-06
0.01435164
8.759535e-06
0.01435218
8.877875e-06
0.01435266
8.9753e-06
0.01435309
9.056784e-06
0.01435348
9.125631e-06
0.01435384
9.184315e-06
0.01435416
9.234753e-06
0.01435445
9.278417e-06
0.01435471
9.316454e-06
0.01435495
9.349768e-06
0.01435516
9.379082e-06
0.01435536
9.404982e-06
0.01435553
9.427946e-06
0.01435569
9.448367e-06
0.01435582
9.466573e-06
0.01435595
9.482838e-06
0.01435605
9.497393e-06
0.01435615
9.510436e-06
0.01435623
9.522135e-06
0.01435629
9.532633e-06
0.01435634
9.542056e-06
0.01435638
9.550511e-06
0.01435641
9.558093e-06
0.01435643
9.564884e-06
0.01435643
9.570956e-06
0.01435643
9.576372e-06
0.01435641
9.581188e-06
0.01435638
9.585452e-06
0.01435635
9.589208e-06
0.0143563
9.592494e-06
0.01435624
9.595344e-06
0.01435618
9.597786e-06
0.0143561
9.599847e-06
0.01435602
9.601549e-06
0.01435593
9.602912e-06
0.01435583
9.603953e-06
0.01435572
9.604685e-06
0.0143556
9.605121e-06
0.01435548
9.60527e-06
0.01435534
9.60514e-06
0.0143552
9.604735e-06
0.01435505
9.60406e-06
0.0143549
9.603116e-06
0.01435473
9.601903e-06
0.01435456
9.600417e-06
0.01435438
9.598654e-06
0.0143542
9.596608e-06
0.01435401
9.59427e-06
0.01435381
9.591628e-06
0.0143536
9.588671e-06
0.01435339
9.58538e-06
0.01435318
9.581738e-06
0.01435295
9.577724e-06
0.01435272
9.57331e-06
0.01435249
9.56847e-06
0.01435225
9.563169e-06
0.01435201
9.55737e-06
0.01435176
9.55103e-06
0.01435151
9.544101e-06
0.01435125
9.536526e-06
0.01435099
9.528243e-06
0.01435073
9.519179e-06
0.01435046
9.509252e-06
0.01435019
9.498366e-06
0.01434993
9.486414e-06
0.01434966
9.473268e-06
0.01434938
9.458783e-06
0.01434911
9.44279e-06
0.01434885
9.425088e-06
0.01434858
9.405443e-06
0.01434832
9.383577e-06
0.01434806
9.359159e-06
0.01434781
9.331788e-06
0.01434757
9.300981e-06
0.01434733
9.266143e-06
0.01434711
9.226539e-06
0.01434691
9.181246e-06
0.01434672
9.129093e-06
0.01434656
9.068571e-06
0.01434642
8.997701e-06
0.01434632
8.91384e-06
0.01434627
8.813386e-06
0.01434626
8.691312e-06
0.01434633
8.540429e-06
0.01434647
8.350177e-06
0.01434673
8.104576e-06
0.01434712
7.77888e-06
0.01434769
7.333214e-06
0.01434847
6.704087e-06
0.01434946
5.778834e-06
0.01435061
4.399226e-06
2.172564e-06
0.01433393
2.35956e-06
0.01433593
4.635588e-06
0.01433748
5.70528e-06
0.01433865
6.292683e-06
0.01433968
6.863304e-06
0.01434059
7.307369e-06
0.0143414
7.627909e-06
0.01434213
7.880069e-06
0.01434281
8.085862e-06
0.01434343
8.254389e-06
0.01434401
8.394074e-06
0.01434456
8.511521e-06
0.01434507
8.611304e-06
0.01434556
8.696795e-06
0.01434602
8.770601e-06
0.01434646
8.834748e-06
0.01434689
8.890824e-06
0.0143473
8.940096e-06
0.01434769
8.983581e-06
0.01434808
9.022111e-06
0.01434845
9.056368e-06
0.01434881
9.086916e-06
0.01434916
9.114229e-06
0.01434951
9.138703e-06
0.01434984
9.160675e-06
0.01435017
9.180433e-06
0.0143505
9.19822e-06
0.01435081
9.21425e-06
0.01435113
9.228704e-06
0.01435144
9.241743e-06
0.01435174
9.253503e-06
0.01435204
9.264107e-06
0.01435234
9.273661e-06
0.01435263
9.282257e-06
0.01435292
9.289978e-06
0.01435321
9.296896e-06
0.0143535
9.303075e-06
0.01435378
9.308571e-06
0.01435406
9.313433e-06
0.01435434
9.317705e-06
0.01435462
9.321425e-06
0.0143549
9.324627e-06
0.01435517
9.327338e-06
0.01435545
9.329584e-06
0.01435572
9.331386e-06
0.01435599
9.332761e-06
0.01435627
9.333723e-06
0.01435654
9.334282e-06
0.01435681
9.334448e-06
0.01435708
9.334224e-06
0.01435735
9.333613e-06
0.01435761
9.332614e-06
0.01435788
9.331222e-06
0.01435815
9.329432e-06
0.01435842
9.327233e-06
0.01435869
9.324612e-06
0.01435896
9.321553e-06
0.01435923
9.318035e-06
0.0143595
9.314036e-06
0.01435978
9.309528e-06
0.01436005
9.304477e-06
0.01436032
9.298848e-06
0.0143606
9.292597e-06
0.01436088
9.285676e-06
0.01436116
9.27803e-06
0.01436144
9.269596e-06
0.01436172
9.260302e-06
0.01436201
9.250068e-06
0.0143623
9.2388e-06
0.01436259
9.226394e-06
0.01436289
9.212729e-06
0.01436319
9.197667e-06
0.01436349
9.181051e-06
0.0143638
9.162698e-06
0.01436412
9.142396e-06
0.01436444
9.119902e-06
0.01436477
9.094928e-06
0.01436511
9.067137e-06
0.01436546
9.036134e-06
0.01436582
9.001445e-06
0.01436619
8.962503e-06
0.01436657
8.918624e-06
0.01436696
8.868976e-06
0.01436738
8.812533e-06
0.01436781
8.748019e-06
0.01436827
8.673832e-06
0.01436875
8.587928e-06
0.01436926
8.487671e-06
0.0143698
8.369601e-06
0.01437039
8.229112e-06
0.01437102
8.05996e-06
0.0143717
7.853539e-06
0.01437246
7.59778e-06
0.01437329
7.275488e-06
0.0143742
6.86194e-06
0.01437521
6.321275e-06
0.01437632
5.602755e-06
0.01437746
4.635353e-06
0.01437852
3.336175e-06
1.636108e-06
0.01433638
1.59106e-06
0.01433736
3.66323e-06
0.01433825
4.816987e-06
0.01433906
5.480745e-06
0.01433986
6.064495e-06
0.01434062
6.546938e-06
0.01434133
6.919827e-06
0.01434199
7.220108e-06
0.01434261
7.469046e-06
0.01434319
7.676478e-06
0.01434373
7.850664e-06
0.01434424
7.998454e-06
0.01434473
8.124911e-06
0.01434519
8.233876e-06
0.01434563
8.328374e-06
0.01434606
8.410804e-06
0.01434647
8.483078e-06
0.01434686
8.546741e-06
0.01434724
8.603046e-06
0.01434761
8.653027e-06
0.01434797
8.697534e-06
0.01434832
8.737281e-06
0.01434866
8.772863e-06
0.01434899
8.804786e-06
0.01434932
8.833477e-06
0.01434964
8.859304e-06
0.01434995
8.88258e-06
0.01435026
8.903578e-06
0.01435057
8.922532e-06
0.01435087
8.939648e-06
0.01435117
8.955104e-06
0.01435147
8.969057e-06
0.01435176
8.981644e-06
0.01435205
8.992985e-06
0.01435233
9.003187e-06
0.01435262
9.012345e-06
0.0143529
9.020539e-06
0.01435318
9.027845e-06
0.01435346
9.034325e-06
0.01435374
9.040036e-06
0.01435401
9.045028e-06
0.01435429
9.049344e-06
0.01435456
9.053021e-06
0.01435484
9.056091e-06
0.01435511
9.058581e-06
0.01435538
9.060515e-06
0.01435565
9.06191e-06
0.01435592
9.062779e-06
0.0143562
9.063134e-06
0.01435647
9.062981e-06
0.01435674
9.062321e-06
0.01435701
9.061153e-06
0.01435728
9.059473e-06
0.01435755
9.057271e-06
0.01435783
9.054534e-06
0.0143581
9.051245e-06
0.01435837
9.047382e-06
0.01435865
9.042919e-06
0.01435892
9.037825e-06
0.0143592
9.032064e-06
0.01435948
9.025594e-06
0.01435976
9.018366e-06
0.01436004
9.010324e-06
0.01436033
9.001405e-06
0.01436061
8.991537e-06
0.0143609
8.980639e-06
0.01436119
8.968618e-06
0.01436149
8.955368e-06
0.01436179
8.94077e-06
0.01436209
8.924687e-06
0.01436239
8.906965e-06
0.0143627
8.887424e-06
0.01436302
8.865864e-06
0.01436334
8.842048e-06
0.01436367
8.815708e-06
0.014364
8.78653e-06
0.01436434
8.75415e-06
0.01436469
8.718143e-06
0.01436505
8.678005e-06
0.01436542
8.633143e-06
0.0143658
8.58285e-06
0.01436619
8.526275e-06
0.0143666
8.462391e-06
0.01436702
8.389943e-06
0.01436746
8.307389e-06
0.01436792
8.21281e-06
0.0143684
8.1038e-06
0.01436891
7.977304e-06
0.01436945
7.829405e-06
0.01437003
7.655024e-06
0.01437064
7.447508e-06
0.0143713
7.198061e-06
0.014372
6.894977e-06
0.01437275
6.522637e-06
0.01437355
6.060316e-06
0.01437439
5.480945e-06
0.01437525
4.750566e-06
0.01437605
3.830301e-06
0.01437671
2.681709e-06
1.306039e-06
0.01433615
1.642632e-06
0.01433673
3.08255e-06
0.01433752
4.029215e-06
0.01433829
4.713446e-06
0.01433904
5.319208e-06
0.01433975
5.833114e-06
0.01434042
6.247722e-06
0.01434105
6.588734e-06
0.01434165
6.87481e-06
0.01434221
7.116012e-06
0.01434274
7.320553e-06
0.01434324
7.495401e-06
0.01434372
7.645936e-06
0.01434418
7.776338e-06
0.01434462
7.889938e-06
0.01434504
7.989414e-06
0.01434544
8.076926e-06
0.01434584
8.154236e-06
0.01434622
8.222786e-06
0.01434658
8.283773e-06
0.01434694
8.338191e-06
0.01434729
8.386875e-06
0.01434764
8.430529e-06
0.01434797
8.469751e-06
0.0143483
8.505051e-06
0.01434862
8.536867e-06
0.01434894
8.565576e-06
0.01434925
8.591504e-06
0.01434956
8.614936e-06
0.01434986
8.63612e-06
0.01435016
8.65527e-06
0.01435046
8.672578e-06
0.01435075
8.68821e-06
0.01435104
8.702313e-06
0.01435133
8.715018e-06
0.01435161
8.726438e-06
0.0143519
8.736674e-06
0.01435218
8.745816e-06
0.01435246
8.753943e-06
0.01435274
8.761123e-06
0.01435302
8.767417e-06
0.01435329
8.772879e-06
0.01435357
8.777554e-06
0.01435384
8.781482e-06
0.01435412
8.784695e-06
0.01435439
8.787222e-06
0.01435466
8.789085e-06
0.01435494
8.7903e-06
0.01435521
8.790882e-06
0.01435548
8.790836e-06
0.01435575
8.790167e-06
0.01435602
8.788872e-06
0.0143563
8.786945e-06
0.01435657
8.784375e-06
0.01435684
8.781146e-06
0.01435712
8.777237e-06
0.01435739
8.772621e-06
0.01435767
8.767268e-06
0.01435794
8.761138e-06
0.01435822
8.754187e-06
0.0143585
8.746364e-06
0.01435878
8.73761e-06
0.01435906
8.727857e-06
0.01435935
8.717028e-06
0.01435963
8.705035e-06
0.01435992
8.691779e-06
0.01436021
8.677148e-06
0.01436051
8.661014e-06
0.01436081
8.643233e-06
0.01436111
8.623639e-06
0.01436141
8.602046e-06
0.01436172
8.57824e-06
0.01436204
8.551978e-06
0.01436235
8.52298e-06
0.01436268
8.490924e-06
0.01436301
8.455438e-06
0.01436335
8.416091e-06
0.01436369
8.37238e-06
0.01436405
8.323719e-06
0.01436441
8.269413e-06
0.01436479
8.208642e-06
0.01436517
8.14043e-06
0.01436557
8.063604e-06
0.01436598
7.97675e-06
0.01436641
7.878145e-06
0.01436686
7.76568e-06
0.01436733
7.636749e-06
0.01436782
7.488112e-06
0.01436833
7.315706e-06
0.01436887
7.11441e-06
0.01436944
6.877737e-06
0.01437004
6.597446e-06
0.01437067
6.263096e-06
0.01437133
5.861559e-06
0.01437202
5.376646e-06
0.01437271
4.789157e-06
0.01437338
4.077797e-06
0.01437399
3.223318e-06
0.01437446
2.212091e-06
1.069803e-06
0.01433721
1.226929e-06
0.01433773
2.566763e-06
0.01433831
3.457938e-06
0.01433889
4.12998e-06
0.01433948
4.731617e-06
0.01434007
5.250138e-06
0.01434063
5.680144e-06
0.01434118
6.041041e-06
0.01434171
6.348155e-06
0.01434221
6.610551e-06
0.0143427
6.835697e-06
0.01434316
7.03004e-06
0.01434361
7.198732e-06
0.01434404
7.345882e-06
0.01434446
7.47483e-06
0.01434486
7.58831e-06
0.01434525
7.688568e-06
0.01434562
7.777459e-06
0.01434599
7.856526e-06
0.01434634
7.927058e-06
0.01434669
7.99014e-06
0.01434703
8.046691e-06
0.01434736
8.09749e-06
0.01434769
8.143204e-06
0.01434801
8.184406e-06
0.01434833
8.221588e-06
0.01434864
8.255179e-06
0.01434894
8.285549e-06
0.01434924
8.313022e-06
0.01434954
8.337882e-06
0.01434984
8.360375e-06
0.01435013
8.380722e-06
0.01435042
8.399114e-06
0.0143507
8.415721e-06
0.01435099
8.430693e-06
0.01435127
8.444163e-06
0.01435155
8.456247e-06
0.01435183
8.46705e-06
0.01435211
8.476663e-06
0.01435238
8.485167e-06
0.01435266
8.492631e-06
0.01435293
8.499118e-06
0.0143532
8.504681e-06
0.01435348
8.509366e-06
0.01435375
8.513212e-06
0.01435402
8.51625e-06
0.01435429
8.518508e-06
0.01435456
8.520005e-06
0.01435483
8.520755e-06
0.0143551
8.520767e-06
0.01435537
8.520045e-06
0.01435564
8.518586e-06
0.01435591
8.516383e-06
0.01435618
8.513422e-06
0.01435645
8.509686e-06
0.01435672
8.505149e-06
0.014357
8.49978e-06
0.01435727
8.493542e-06
0.01435755
8.48639e-06
0.01435782
8.478272e-06
0.0143581
8.469128e-06
0.01435838
8.458889e-06
0.01435866
8.447476e-06
0.01435894
8.434799e-06
0.01435922
8.420756e-06
0.01435951
8.405233e-06
0.0143598
8.388098e-06
0.01436009
8.369204e-06
0.01436039
8.348383e-06
0.01436068
8.325445e-06
0.01436099
8.300177e-06
0.01436129
8.272331e-06
0.0143616
8.241631e-06
0.01436192
8.207755e-06
0.01436224
8.170339e-06
0.01436256
8.128961e-06
0.0143629
8.083136e-06
0.01436324
8.032299e-06
0.01436359
7.975795e-06
0.01436394
7.912856e-06
0.01436431
7.84258e-06
0.01436468
7.7639e-06
0.01436507
7.675551e-06
0.01436547
7.57602e-06
0.01436589
7.463491e-06
0.01436632
7.335773e-06
0.01436676
7.190206e-06
0.01436723
7.023549e-06
0.01436771
6.83184e-06
0.01436822
6.610226e-06
0.01436874
6.352766e-06
0.01436929
6.052221e-06
0.01436985
5.699857e-06
0.01437043
5.285343e-06
0.01437101
4.796856e-06
0.01437157
4.221704e-06
0.0143721
3.547607e-06
0.01437256
2.766411e-06
0.0143729
1.875698e-06
9.011962e-07
0.01433733
1.19548e-06
0.01433763
2.26674e-06
0.01433807
3.025474e-06
0.01433855
3.652787e-06
0.01433905
4.227124e-06
0.01433957
4.732173e-06
0.01434009
5.162757e-06
0.0143406
5.532349e-06
0.01434109
5.852149e-06
0.01434158
6.129294e-06
0.01434204
6.370007e-06
0.01434249
6.579887e-06
0.01434293
6.763596e-06
0.01434335
6.924982e-06
0.01434375
7.067256e-06
0.01434415
7.193109e-06
0.01434453
7.304788e-06
0.01434491
7.404184e-06
0.01434527
7.492889e-06
0.01434562
7.572249e-06
0.01434597
7.643409e-06
0.01434631
7.707346e-06
0.01434664
7.764897e-06
0.01434697
7.816783e-06
0.01434729
7.863623e-06
0.0143476
7.905958e-06
0.01434791
7.944256e-06
0.01434822
7.978926e-06
0.01434852
8.010327e-06
0.01434882
8.038772e-06
0.01434912
8.064538e-06
0.01434941
8.087868e-06
0.0143497
8.108979e-06
0.01434999
8.12806e-06
0.01435027
8.14528e-06
0.01435056
8.160788e-06
0.01435084
8.174717e-06
0.01435112
8.187183e-06
0.0143514
8.198289e-06
0.01435167
8.208128e-06
0.01435195
8.216779e-06
0.01435222
8.224311e-06
0.0143525
8.230786e-06
0.01435277
8.236256e-06
0.01435304
8.240764e-06
0.01435331
8.244347e-06
0.01435359
8.247035e-06
0.01435386
8.248852e-06
0.01435413
8.249812e-06
0.0143544
8.249926e-06
0.01435467
8.249199e-06
0.01435494
8.247627e-06
0.01435521
8.245202e-06
0.01435548
8.24191e-06
0.01435575
8.237728e-06
0.01435603
8.232629e-06
0.0143563
8.226578e-06
0.01435657
8.219533e-06
0.01435685
8.211442e-06
0.01435713
8.202247e-06
0.0143574
8.19188e-06
0.01435768
8.180262e-06
0.01435796
8.167306e-06
0.01435824
8.152909e-06
0.01435853
8.136957e-06
0.01435881
8.11932e-06
0.0143591
8.099852e-06
0.01435939
8.078387e-06
0.01435969
8.054739e-06
0.01435998
8.028695e-06
0.01436028
8.000017e-06
0.01436059
7.968432e-06
0.01436089
7.933633e-06
0.01436121
7.895267e-06
0.01436152
7.852934e-06
0.01436185
7.806173e-06
0.01436218
7.754456e-06
0.01436251
7.697174e-06
0.01436285
7.633622e-06
0.0143632
7.562981e-06
0.01436356
7.484298e-06
0.01436393
7.396455e-06
0.01436431
7.298137e-06
0.01436469
7.187796e-06
0.01436509
7.063596e-06
0.01436551
6.923356e-06
0.01436593
6.76448e-06
0.01436637
6.583868e-06
0.01436683
6.377824e-06
0.01436729
6.141953e-06
0.01436778
5.87105e-06
0.01436827
5.559027e-06
0.01436877
5.198884e-06
0.01436927
4.782818e-06
0.01436977
4.30255e-06
0.01437024
3.750102e-06
0.01437067
3.119002e-06
0.01437103
2.40715e-06
0.01437128
1.617361e-06
7.722385e-07
0.01433791
9.998991e-07
0.0143382
1.97824e-06
0.01433856
2.665285e-06
0.01433897
3.248297e-06
0.0143394
3.794748e-06
0.01433985
4.284161e-06
0.01434031
4.709763e-06
0.01434076
5.081257e-06
0.0143412
5.407002e-06
0.01434164
5.692596e-06
0.01434207
5.943212e-06
0.01434248
6.163673e-06
0.01434289
6.358129e-06
0.01434328
6.530102e-06
0.01434367
6.682595e-06
0.01434404
6.818174e-06
0.01434441
6.93902e-06
0.01434476
7.046993e-06
0.01434511
7.143681e-06
0.01434545
7.230444e-06
0.01434579
7.308448e-06
0.01434612
7.378698e-06
0.01434644
7.442063e-06
0.01434676
7.499295e-06
0.01434707
7.551047e-06
0.01434738
7.597891e-06
0.01434768
7.640324e-06
0.01434798
7.678784e-06
0.01434828
7.713654e-06
0.01434857
7.745274e-06
0.01434886
7.773942e-06
0.01434915
7.799922e-06
0.01434944
7.823449e-06
0.01434972
7.84473e-06
0.01435
7.863949e-06
0.01435028
7.881269e-06
0.01435056
7.896836e-06
0.01435083
7.910777e-06
0.01435111
7.923207e-06
0.01435138
7.934226e-06
0.01435165
7.943921e-06
0.01435193
7.95237e-06
0.0143522
7.95964e-06
0.01435247
7.965789e-06
0.01435274
7.970864e-06
0.01435301
7.974908e-06
0.01435328
7.977951e-06
0.01435354
7.98002e-06
0.01435381
7.981132e-06
0.01435408
7.981299e-06
0.01435435
7.980525e-06
0.01435462
7.978807e-06
0.01435489
7.976136e-06
0.01435516
7.972494e-06
0.01435543
7.967859e-06
0.0143557
7.962199e-06
0.01435597
7.955475e-06
0.01435624
7.94764e-06
0.01435651
7.938638e-06
0.01435679
7.928405e-06
0.01435706
7.916864e-06
0.01435734
7.903931e-06
0.01435762
7.889506e-06
0.0143579
7.873478e-06
0.01435818
7.855722e-06
0.01435846
7.836095e-06
0.01435875
7.814438e-06
0.01435903
7.790568e-06
0.01435932
7.764283e-06
0.01435962
7.735352e-06
0.01435991
7.703517e-06
0.01436021
7.668484e-06
0.01436052
7.629921e-06
0.01436083
7.58745e-06
0.01436114
7.540644e-06
0.01436145
7.489014e-06
0.01436178
7.432002e-06
0.0143621
7.368968e-06
0.01436244
7.299177e-06
0.01436278
7.221783e-06
0.01436313
7.135805e-06
0.01436349
7.040108e-06
0.01436385
6.933373e-06
0.01436422
6.814062e-06
0.01436461
6.680379e-06
0.014365
6.530227e-06
0.0143654
6.361154e-06
0.01436582
6.170296e-06
0.01436624
5.954325e-06
0.01436667
5.709393e-06
0.01436711
5.431101e-06
0.01436756
5.114505e-06
0.014368
4.754196e-06
0.01436844
4.344508e-06
0.01436886
3.879906e-06
0.01436926
3.355715e-06
0.01436961
2.769073e-06
0.01436989
2.12092e-06
0.01437009
1.415893e-06
6.721065e-07
0.01433815
9.355468e-07
0.01433835
1.778338e-06
0.01433864
2.385724e-06
0.01433896
2.923734e-06
0.01433932
3.435865e-06
0.01433971
3.900863e-06
0.01434011
4.312177e-06
0.01434051
4.676868e-06
0.01434092
5.000942e-06
0.01434132
5.288484e-06
0.01434172
5.543526e-06
0.01434211
5.770003e-06
0.0143425
5.971417e-06
0.01434288
6.150831e-06
0.01434325
6.310932e-06
0.01434361
6.454065e-06
0.01434397
6.582266e-06
0.01434432
6.697302e-06
0.01434466
6.800703e-06
0.014345
6.8938e-06
0.01434533
6.977747e-06
0.01434566
7.053549e-06
0.01434597
7.122083e-06
0.01434629
7.184115e-06
0.0143466
7.240315e-06
0.01434691
7.291272e-06
0.01434721
7.337504e-06
0.01434751
7.379467e-06
0.0143478
7.417564e-06
0.0143481
7.452152e-06
0.01434839
7.483546e-06
0.01434868
7.512028e-06
0.01434896
7.537846e-06
0.01434924
7.561222e-06
0.01434953
7.582352e-06
0.01434981
7.601413e-06
0.01435008
7.618559e-06
0.01435036
7.633929e-06
0.01435064
7.647646e-06
0.01435091
7.659818e-06
0.01435118
7.67054e-06
0.01435146
7.679896e-06
0.01435173
7.687958e-06
0.014352
7.694789e-06
0.01435227
7.700441e-06
0.01435254
7.704959e-06
0.01435281
7.708378e-06
0.01435308
7.710726e-06
0.01435335
7.712022e-06
0.01435362
7.712278e-06
0.01435388
7.711499e-06
0.01435415
7.709681e-06
0.01435442
7.706816e-06
0.01435469
7.702883e-06
0.01435496
7.697859e-06
0.01435523
7.691708e-06
0.0143555
7.684389e-06
0.01435578
7.67585e-06
0.01435605
7.666031e-06
0.01435632
7.654862e-06
0.0143566
7.642261e-06
0.01435687
7.628134e-06
0.01435715
7.612377e-06
0.01435743
7.594869e-06
0.01435771
7.575474e-06
0.01435799
7.55404e-06
0.01435827
7.530395e-06
0.01435856
7.504346e-06
0.01435885
7.475675e-06
0.01435914
7.444138e-06
0.01435943
7.409459e-06
0.01435973
7.371329e-06
0.01436003
7.329398e-06
0.01436034
7.283272e-06
0.01436064
7.232501e-06
0.01436096
7.176581e-06
0.01436127
7.114934e-06
0.0143616
7.046905e-06
0.01436192
6.971746e-06
0.01436226
6.888601e-06
0.0143626
6.796489e-06
0.01436294
6.694287e-06
0.01436329
6.580703e-06
0.01436365
6.45425e-06
0.01436402
6.313218e-06
0.01436439
6.155644e-06
0.01436478
5.979274e-06
0.01436517
5.781536e-06
0.01436556
5.559511e-06
0.01436596
5.309924e-06
0.01436636
5.029156e-06
0.01436676
4.713305e-06
0.01436716
4.358309e-06
0.01436754
3.960189e-06
0.01436791
3.515417e-06
0.01436824
3.021518e-06
0.01436853
2.477774e-06
0.01436877
1.886564e-06
0.01436893
1.252968e-06
5.91473e-07
0.01433852
8.258781e-07
0.01433871
1.593214e-06
0.01433896
2.143829e-06
0.01433924
2.638884e-06
0.01433956
3.117456e-06
0.01433991
3.558155e-06
0.01434027
3.95382e-06
0.01434063
4.309403e-06
0.014341
4.629097e-06
0.01434138
4.915734e-06
0.01434175
5.172369e-06
0.01434212
5.402157e-06
0.01434248
5.608017e-06
0.01434284
5.792583e-06
0.01434319
5.958228e-06
0.01434354
6.10707e-06
0.01434388
6.240985e-06
0.01434421
6.361629e-06
0.01434454
6.470456e-06
0.01434487
6.568747e-06
0.01434519
6.657628e-06
0.0143455
6.738087e-06
0.01434581
6.810995e-06
0.01434612
6.877119e-06
0.01434642
6.937135e-06
0.01434672
6.991641e-06
0.01434702
7.041165e-06
0.01434731
7.086176e-06
0.0143476
7.127089e-06
0.01434789
7.164275e-06
0.01434818
7.198061e-06
0.01434846
7.228741e-06
0.01434874
7.256574e-06
0.01434902
7.281795e-06
0.0143493
7.304609e-06
0.01434957
7.325203e-06
0.01434985
7.34374e-06
0.01435012
7.360368e-06
0.01435039
7.375216e-06
0.01435066
7.388399e-06
0.01435094
7.400019e-06
0.0143512
7.410165e-06
0.01435147
7.418915e-06
0.01435174
7.426334e-06
0.01435201
7.432479e-06
0.01435228
7.437397e-06
0.01435254
7.441127e-06
0.01435281
7.443698e-06
0.01435308
7.44513e-06
0.01435335
7.445436e-06
0.01435361
7.444622e-06
0.01435388
7.442685e-06
0.01435415
7.439612e-06
0.01435441
7.435385e-06
0.01435468
7.429976e-06
0.01435495
7.423349e-06
0.01435522
7.415459e-06
0.01435549
7.406251e-06
0.01435576
7.39566e-06
0.01435603
7.383612e-06
0.0143563
7.37002e-06
0.01435658
7.354784e-06
0.01435685
7.337793e-06
0.01435713
7.318918e-06
0.0143574
7.298017e-06
0.01435768
7.274928e-06
0.01435796
7.24947e-06
0.01435825
7.22144e-06
0.01435853
7.19061e-06
0.01435882
7.156724e-06
0.01435911
7.119496e-06
0.0143594
7.078604e-06
0.0143597
7.033686e-06
0.01436
6.984336e-06
0.0143603
6.930096e-06
0.0143606
6.870449e-06
0.01436091
6.804812e-06
0.01436123
6.732526e-06
0.01436155
6.652844e-06
0.01436187
6.56492e-06
0.0143622
6.467793e-06
0.01436253
6.360373e-06
0.01436287
6.241421e-06
0.01436322
6.109531e-06
0.01436357
5.963111e-06
0.01436392
5.800361e-06
0.01436428
5.619257e-06
0.01436465
5.417538e-06
0.01436501
5.192702e-06
0.01436538
4.942024e-06
0.01436575
4.662596e-06
0.01436611
4.351413e-06
0.01436646
4.005512e-06
0.0143668
3.622205e-06
0.01436712
3.199393e-06
0.0143674
2.736033e-06
0.01436765
2.232623e-06
0.01436784
1.692087e-06
0.01436798
1.119252e-06
5.255838e-07
0.01433877
7.639751e-07
0.01433892
1.448602e-06
0.01433912
1.945542e-06
0.01433936
2.402369e-06
0.01433963
2.848583e-06
0.01433992
3.263596e-06
0.01434024
3.640594e-06
0.01434056
3.983194e-06
0.0143409
4.294327e-06
0.01434124
4.575904e-06
0.01434158
4.830194e-06
0.01434192
5.059678e-06
0.01434226
5.266733e-06
0.0143426
5.453566e-06
0.01434294
5.622219e-06
0.01434327
5.774554e-06
0.0143436
5.912254e-06
0.01434392
6.036828e-06
0.01434424
6.149626e-06
0.01434456
6.251849e-06
0.01434487
6.344566e-06
0.01434518
6.428729e-06
0.01434549
6.505183e-06
0.01434579
6.574677e-06
0.01434609
6.637881e-06
0.01434639
6.695387e-06
0.01434668
6.747724e-06
0.01434697
6.795365e-06
0.01434726
6.838729e-06
0.01434754
6.878193e-06
0.01434783
6.914092e-06
0.01434811
6.946726e-06
0.01434839
6.976362e-06
0.01434867
7.003242e-06
0.01434894
7.02758e-06
0.01434922
7.049567e-06
0.01434949
7.069375e-06
0.01434977
7.087157e-06
0.01435004
7.103049e-06
0.01435031
7.11717e-06
0.01435058
7.129627e-06
0.01435085
7.140514e-06
0.01435112
7.149912e-06
0.01435139
7.157891e-06
0.01435166
7.164509e-06
0.01435192
7.169818e-06
0.01435219
7.173856e-06
0.01435246
7.176654e-06
0.01435272
7.178236e-06
0.01435299
7.178614e-06
0.01435326
7.177793e-06
0.01435352
7.17577e-06
0.01435379
7.172533e-06
0.01435406
7.168063e-06
0.01435433
7.162329e-06
0.01435459
7.155293e-06
0.01435486
7.146908e-06
0.01435513
7.137117e-06
0.0143554
7.12585e-06
0.01435567
7.113031e-06
0.01435594
7.098566e-06
0.01435622
7.082353e-06
0.01435649
7.064273e-06
0.01435676
7.044194e-06
0.01435704
7.021966e-06
0.01435732
6.99742e-06
0.0143576
6.97037e-06
0.01435788
6.940604e-06
0.01435816
6.907887e-06
0.01435845
6.871956e-06
0.01435873
6.832516e-06
0.01435902
6.78924e-06
0.01435931
6.741758e-06
0.01435961
6.689658e-06
0.01435991
6.63248e-06
0.01436021
6.569707e-06
0.01436051
6.500756e-06
0.01436082
6.424977e-06
0.01436113
6.341637e-06
0.01436144
6.249912e-06
0.01436176
6.148879e-06
0.01436209
6.037497e-06
0.01436241
5.914601e-06
0.01436274
5.778885e-06
0.01436308
5.628892e-06
0.01436341
5.463005e-06
0.01436375
5.279437e-06
0.0143641
5.076238e-06
0.01436444
4.851304e-06
0.01436478
4.602411e-06
0.01436511
4.327269e-06
0.01436544
4.023617e-06
0.01436576
3.689358e-06
0.01436606
3.322758e-06
0.01436633
2.922709e-06
0.01436658
2.489066e-06
0.01436679
2.022978e-06
0.01436695
1.527466e-06
0.01436707
1.006893e-06
4.704525e-07
0.01433905
6.917201e-07
0.01433918
1.317506e-06
0.01433936
1.771204e-06
0.01433957
2.192331e-06
0.01433981
2.60752e-06
0.01434008
2.997343e-06
0.01434036
3.355182e-06
0.01434066
3.683647e-06
0.01434097
3.984716e-06
0.01434129
4.259553e-06
0.01434161
4.509753e-06
0.01434193
4.737206e-06
0.01434226
4.943796e-06
0.01434258
5.131336e-06
0.0143429
5.30155e-06
0.01434322
5.456051e-06
0.01434353
5.596327e-06
0.01434384
5.723738e-06
0.01434415
5.839517e-06
0.01434446
5.94478e-06
0.01434476
6.040534e-06
0.01434507
6.127681e-06
0.01434536
6.207032e-06
0.01434566
6.279315e-06
0.01434595
6.345182e-06
0.01434624
6.405216e-06
0.01434653
6.459941e-06
0.01434681
6.509827e-06
0.0143471
6.555295e-06
0.01434738
6.596722e-06
0.01434766
6.634449e-06
0.01434794
6.668777e-06
0.01434821
6.699982e-06
0.01434849
6.728309e-06
0.01434876
6.753976e-06
0.01434903
6.777181e-06
0.0143493
6.798101e-06
0.01434957
6.816892e-06
0.01434984
6.833696e-06
0.01435011
6.848637e-06
0.01435038
6.861826e-06
0.01435065
6.873358e-06
0.01435091
6.88332e-06
0.01435118
6.891782e-06
0.01435144
6.898809e-06
0.01435171
6.904451e-06
0.01435198
6.908749e-06
0.01435224
6.911737e-06
0.0143525
6.913437e-06
0.01435277
6.913864e-06
0.01435303
6.913023e-06
0.0143533
6.91091e-06
0.01435356
6.907513e-06
0.01435383
6.90281e-06
0.01435409
6.896773e-06
0.01435436
6.889359e-06
0.01435463
6.880521e-06
0.01435489
6.870198e-06
0.01435516
6.858319e-06
0.01435543
6.844803e-06
0.0143557
6.829555e-06
0.01435597
6.812467e-06
0.01435624
6.793417e-06
0.01435651
6.772269e-06
0.01435678
6.748867e-06
0.01435706
6.72304e-06
0.01435733
6.694594e-06
0.01435761
6.663315e-06
0.01435789
6.628961e-06
0.01435817
6.591267e-06
0.01435845
6.549933e-06
0.01435874
6.504628e-06
0.01435902
6.454982e-06
0.01435931
6.400585e-06
0.01435961
6.340977e-06
0.0143599
6.275647e-06
0.0143602
6.204025e-06
0.0143605
6.125476e-06
0.0143608
6.039292e-06
0.0143611
5.944685e-06
0.01436141
5.840775e-06
0.01436172
5.726589e-06
0.01436204
5.601046e-06
0.01436235
5.462951e-06
0.01436267
5.310992e-06
0.01436299
5.143736e-06
0.01436331
4.959632e-06
0.01436363
4.757025e-06
0.01436394
4.534173e-06
0.01436426
4.289293e-06
0.01436456
4.020616e-06
0.01436486
3.726481e-06
0.01436515
3.405457e-06
0.01436541
3.056507e-06
0.01436566
2.679189e-06
0.01436587
2.273904e-06
0.01436605
1.842106e-06
0.01436619
1.386685e-06
0.01436629
9.114645e-07
4.238368e-07
0.01433927
6.389397e-07
0.01433938
1.207493e-06
0.01433953
1.621964e-06
0.01433971
2.011478e-06
0.01433993
2.398153e-06
0.01434016
2.763815e-06
0.01434041
3.102314e-06
0.01434068
3.415598e-06
0.01434096
3.704979e-06
0.01434125
3.971098e-06
0.01434154
4.215052e-06
0.01434184
4.438268e-06
0.01434214
4.642228e-06
0.01434245
4.828406e-06
0.01434275
4.998243e-06
0.01434305
5.15312e-06
0.01434335
5.294335e-06
0.01434366
5.423096e-06
0.01434395
5.540516e-06
0.01434425
5.647615e-06
0.01434455
5.745324e-06
0.01434484
5.834488e-06
0.01434513
5.915873e-06
0.01434542
5.990173e-06
0.01434571
6.058015e-06
0.01434599
6.119963e-06
0.01434627
6.176528e-06
0.01434656
6.22817e-06
0.01434684
6.275306e-06
0.01434711
6.318308e-06
0.01434739