/*--------------------------------*- C++ -*----------------------------------*\
| =========                 |                                                 |
| \\      /  F ield         | OpenFOAM: The Open Source CFD Toolbox           |
|  \\    /   O peration     | Version:  2.3.0                                 |
|   \\  /    A nd           | Web:      www.OpenFOAM.org                      |
|    \\/     M anipulation  |                                                 |
\*---------------------------------------------------------------------------*/
FoamFile
{
    version     2.0;
    format      ascii;
    class       volVectorField;
    location    "9900/topAir";
    object      U;
}
// * * * * * * * * * * * * * * * * * * * * * * * * * * * * * * * * * * * * * //

dimensions      [0 1 -1 0 0 0 0];

internalField   nonuniform List<vector> 
4000
(
(18.17359 0.008448414 0)
(13.61696 0.008911488 0)
(11.76926 0.00763613 0)
(12.2557 0.007417203 0)
(12.44097 0.007466584 0)
(12.38642 0.007478504 0)
(12.36509 0.007494943 0)
(12.36828 0.00752701 0)
(12.36773 0.007561829 0)
(12.36461 0.007594448 0)
(12.36185 0.007624438 0)
(12.35931 0.007651633 0)
(12.35669 0.007675941 0)
(12.35402 0.007697498 0)
(12.35133 0.007716534 0)
(12.34862 0.007733287 0)
(12.34589 0.007747983 0)
(12.34315 0.007760834 0)
(12.34039 0.007772029 0)
(12.33762 0.007781736 0)
(12.33484 0.007790103 0)
(12.33206 0.007797262 0)
(12.32926 0.007803329 0)
(12.32645 0.007808404 0)
(12.32364 0.007812579 0)
(12.32083 0.007815932 0)
(12.318 0.007818535 0)
(12.31518 0.007820451 0)
(12.31235 0.007821735 0)
(12.30951 0.007822438 0)
(12.30667 0.007822606 0)
(12.30383 0.007822278 0)
(12.30098 0.007821491 0)
(12.29814 0.007820279 0)
(12.29529 0.007818671 0)
(12.29243 0.007816695 0)
(12.28958 0.007814374 0)
(12.28672 0.007811731 0)
(12.28387 0.007808787 0)
(12.28101 0.007805561 0)
(12.27815 0.007802068 0)
(12.27529 0.007798325 0)
(12.27243 0.007794346 0)
(12.26956 0.007790143 0)
(12.2667 0.007785728 0)
(12.26384 0.007781111 0)
(12.26098 0.007776303 0)
(12.25811 0.007771313 0)
(12.25525 0.007766146 0)
(12.25238 0.007760812 0)
(12.24952 0.007755316 0)
(12.24666 0.007749664 0)
(12.24379 0.00774386 0)
(12.24093 0.007737909 0)
(12.23807 0.007731814 0)
(12.23521 0.007725577 0)
(12.23235 0.0077192 0)
(12.22949 0.007712686 0)
(12.22663 0.007706033 0)
(12.22378 0.007699242 0)
(12.22092 0.007692313 0)
(12.21807 0.007685242 0)
(12.21522 0.007678027 0)
(12.21237 0.007670664 0)
(12.20952 0.007663148 0)
(12.20667 0.007655473 0)
(12.20383 0.007647631 0)
(12.20099 0.007639614 0)
(12.19816 0.00763141 0)
(12.19532 0.007623006 0)
(12.1925 0.007614388 0)
(12.18967 0.007605538 0)
(12.18685 0.007596434 0)
(12.18404 0.007587052 0)
(12.18123 0.007577364 0)
(12.17843 0.007567335 0)
(12.17563 0.007556924 0)
(12.17285 0.007546084 0)
(12.17007 0.007534757 0)
(12.1673 0.007522873 0)
(12.16455 0.007510349 0)
(12.1618 0.007497082 0)
(12.15908 0.007482944 0)
(12.15636 0.007467778 0)
(12.15367 0.007451382 0)
(12.151 0.0074335 0)
(12.14835 0.007413797 0)
(12.14573 0.007391825 0)
(12.14315 0.007366975 0)
(12.14061 0.00733839 0)
(12.13811 0.007304818 0)
(12.13568 0.007264347 0)
(12.13333 0.007213896 0)
(12.13108 0.00714814 0)
(12.12896 0.00705739 0)
(12.12704 0.006922001 0)
(12.12541 0.006703561 0)
(12.12421 0.00630323 0)
(12.12399 0.005563371 0)
(12.1245 0.003756448 0)
(18.18666 0.006994833 0)
(13.63102 0.008790248 0)
(11.78999 0.00802032 0)
(12.2791 0.007995057 0)
(12.46698 0.008252223 0)
(12.41574 0.00840362 0)
(12.39761 0.008500364 0)
(12.40386 0.008584489 0)
(12.40637 0.008653237 0)
(12.40632 0.00870625 0)
(12.40662 0.008747453 0)
(12.40714 0.00877977 0)
(12.40758 0.008805055 0)
(12.40796 0.008824765 0)
(12.40833 0.008840061 0)
(12.40867 0.008851833 0)
(12.40899 0.008860767 0)
(12.40929 0.008867395 0)
(12.40958 0.008872138 0)
(12.40986 0.008875328 0)
(12.41012 0.008877232 0)
(12.41037 0.008878062 0)
(12.41061 0.008877993 0)
(12.41084 0.008877166 0)
(12.41106 0.008875699 0)
(12.41127 0.008873688 0)
(12.41148 0.008871215 0)
(12.41168 0.008868345 0)
(12.41187 0.008865136 0)
(12.41205 0.008861636 0)
(12.41223 0.008857886 0)
(12.4124 0.008853919 0)
(12.41257 0.008849765 0)
(12.41274 0.008845448 0)
(12.41289 0.008840991 0)
(12.41305 0.00883641 0)
(12.4132 0.008831722 0)
(12.41334 0.008826938 0)
(12.41349 0.008822071 0)
(12.41362 0.008817128 0)
(12.41376 0.008812116 0)
(12.41389 0.008807043 0)
(12.41402 0.008801911 0)
(12.41414 0.008796724 0)
(12.41427 0.008791485 0)
(12.41439 0.008786194 0)
(12.4145 0.008780851 0)
(12.41462 0.008775455 0)
(12.41473 0.008770004 0)
(12.41484 0.008764495 0)
(12.41495 0.008758924 0)
(12.41505 0.008753286 0)
(12.41515 0.008747576 0)
(12.41526 0.008741785 0)
(12.41536 0.008735906 0)
(12.41545 0.00872993 0)
(12.41555 0.008723846 0)
(12.41565 0.008717642 0)
(12.41574 0.008711305 0)
(12.41583 0.008704819 0)
(12.41593 0.008698167 0)
(12.41602 0.008691331 0)
(12.41611 0.00868429 0)
(12.4162 0.008677018 0)
(12.41629 0.00866949 0)
(12.41638 0.008661676 0)
(12.41647 0.008653542 0)
(12.41656 0.008645049 0)
(12.41665 0.008636154 0)
(12.41675 0.00862681 0)
(12.41684 0.008616959 0)
(12.41694 0.008606538 0)
(12.41704 0.008595476 0)
(12.41714 0.008583687 0)
(12.41725 0.008571075 0)
(12.41736 0.008557527 0)
(12.41747 0.008542912 0)
(12.41759 0.008527073 0)
(12.41772 0.008509828 0)
(12.41785 0.008490955 0)
(12.41799 0.008470192 0)
(12.41814 0.008447215 0)
(12.41831 0.008421632 0)
(12.41848 0.008392952 0)
(12.41867 0.00836056 0)
(12.41888 0.008323671 0)
(12.41911 0.008281268 0)
(12.41937 0.008232009 0)
(12.41965 0.008174089 0)
(12.41998 0.008105013 0)
(12.42034 0.008021247 0)
(12.42075 0.007917616 0)
(12.42123 0.007786275 0)
(12.4218 0.007614812 0)
(12.42246 0.007382858 0)
(12.42325 0.007054553 0)
(12.4242 0.006567659 0)
(12.42532 0.005789393 0)
(12.42655 0.004522766 0)
(12.42784 0.002028851 0)
(18.18072 0.0002217213 0)
(13.625 0.002928235 0)
(11.78215 0.00415101 0)
(12.27138 0.00481132 0)
(12.45931 0.005387152 0)
(12.40793 0.005807933 0)
(12.38974 0.006107107 0)
(12.39598 0.006340034 0)
(12.3985 0.006527726 0)
(12.39847 0.006680595 0)
(12.3988 0.006807543 0)
(12.39935 0.006914948 0)
(12.39983 0.007007067 0)
(12.40026 0.007086963 0)
(12.40067 0.007156938 0)
(12.40107 0.00721874 0)
(12.40144 0.007273715 0)
(12.40181 0.007322921 0)
(12.40216 0.007367203 0)
(12.4025 0.007407245 0)
(12.40283 0.007443605 0)
(12.40315 0.007476749 0)
(12.40346 0.007507062 0)
(12.40377 0.007534871 0)
(12.40406 0.007560454 0)
(12.40436 0.007584046 0)
(12.40464 0.007605853 0)
(12.40493 0.007626051 0)
(12.4052 0.007644792 0)
(12.40548 0.007662213 0)
(12.40575 0.007678429 0)
(12.40601 0.007693545 0)
(12.40628 0.007707652 0)
(12.40654 0.007720831 0)
(12.40679 0.007733155 0)
(12.40705 0.007744686 0)
(12.4073 0.007755481 0)
(12.40756 0.007765592 0)
(12.40781 0.007775063 0)
(12.40806 0.007783935 0)
(12.4083 0.007792242 0)
(12.40855 0.007800017 0)
(12.4088 0.007807287 0)
(12.40904 0.007814076 0)
(12.40928 0.007820407 0)
(12.40953 0.007826297 0)
(12.40977 0.007831762 0)
(12.41001 0.007836815 0)
(12.41025 0.007841467 0)
(12.41049 0.007845724 0)
(12.41073 0.007849594 0)
(12.41098 0.007853079 0)
(12.41122 0.007856181 0)
(12.41146 0.007858898 0)
(12.4117 0.007861225 0)
(12.41194 0.007863158 0)
(12.41218 0.007864686 0)
(12.41243 0.007865798 0)
(12.41267 0.007866481 0)
(12.41292 0.007866714 0)
(12.41316 0.007866479 0)
(12.41341 0.00786575 0)
(12.41366 0.007864497 0)
(12.41391 0.007862688 0)
(12.41416 0.007860283 0)
(12.41441 0.007857239 0)
(12.41467 0.007853505 0)
(12.41493 0.007849023 0)
(12.41519 0.007843726 0)
(12.41545 0.007837539 0)
(12.41572 0.007830374 0)
(12.41599 0.007822131 0)
(12.41627 0.007812694 0)
(12.41655 0.00780193 0)
(12.41683 0.007789684 0)
(12.41712 0.007775774 0)
(12.41742 0.007759989 0)
(12.41772 0.00774208 0)
(12.41803 0.00772175 0)
(12.41835 0.007698647 0)
(12.41868 0.007672348 0)
(12.41902 0.007642337 0)
(12.41937 0.007607985 0)
(12.41974 0.007568516 0)
(12.42012 0.007522957 0)
(12.42052 0.007470078 0)
(12.42094 0.007408299 0)
(12.42139 0.00733556 0)
(12.42186 0.007249133 0)
(12.42236 0.007145326 0)
(12.4229 0.007019057 0)
(12.42349 0.006863171 0)
(12.42413 0.006667388 0)
(12.42483 0.006416632 0)
(12.4256 0.0060885 0)
(12.42645 0.005649199 0)
(12.42738 0.00504898 0)
(12.42838 0.004214089 0)
(12.42936 0.003054764 0)
(12.43029 0.001477133 0)
(18.18313 0.002248532 0)
(13.62703 0.004426727 0)
(11.78301 0.005406276 0)
(12.27176 0.005905817 0)
(12.45954 0.00635549 0)
(12.40802 0.006717964 0)
(12.38971 0.006987819 0)
(12.39588 0.007201265 0)
(12.39835 0.007376302 0)
(12.39828 0.007520371 0)
(12.39857 0.007639822 0)
(12.39909 0.007739862 0)
(12.39954 0.007824261 0)
(12.39995 0.007895859 0)
(12.40034 0.007956899 0)
(12.40072 0.008009158 0)
(12.40108 0.008054057 0)
(12.40143 0.008092743 0)
(12.40177 0.008126149 0)
(12.40209 0.008155044 0)
(12.40241 0.008180061 0)
(12.40272 0.008201728 0)
(12.40302 0.008220488 0)
(12.40332 0.008236714 0)
(12.4036 0.00825072 0)
(12.40389 0.008262777 0)
(12.40416 0.008273114 0)
(12.40444 0.008281929 0)
(12.40471 0.008289391 0)
(12.40497 0.00829565 0)
(12.40523 0.008300832 0)
(12.40549 0.008305049 0)
(12.40575 0.008308398 0)
(12.406 0.008310965 0)
(12.40626 0.008312823 0)
(12.40651 0.008314037 0)
(12.40675 0.008314665 0)
(12.407 0.008314756 0)
(12.40725 0.008314353 0)
(12.40749 0.008313495 0)
(12.40773 0.008312214 0)
(12.40797 0.008310538 0)
(12.40821 0.008308491 0)
(12.40845 0.008306094 0)
(12.40869 0.008303362 0)
(12.40893 0.00830031 0)
(12.40917 0.008296946 0)
(12.40941 0.00829328 0)
(12.40964 0.008289314 0)
(12.40988 0.00828505 0)
(12.41012 0.008280488 0)
(12.41036 0.008275623 0)
(12.41059 0.008270449 0)
(12.41083 0.008264955 0)
(12.41107 0.00825913 0)
(12.41131 0.008252958 0)
(12.41155 0.00824642 0)
(12.41179 0.008239495 0)
(12.41203 0.008232156 0)
(12.41227 0.008224374 0)
(12.41251 0.008216114 0)
(12.41276 0.008207338 0)
(12.41301 0.008198001 0)
(12.41325 0.008188054 0)
(12.4135 0.00817744 0)
(12.41376 0.008166094 0)
(12.41401 0.008153945 0)
(12.41427 0.008140909 0)
(12.41452 0.008126895 0)
(12.41479 0.008111795 0)
(12.41505 0.00809549 0)
(12.41532 0.008077842 0)
(12.4156 0.008058692 0)
(12.41587 0.00803786 0)
(12.41616 0.008015135 0)
(12.41644 0.007990275 0)
(12.41674 0.007962997 0)
(12.41704 0.007932967 0)
(12.41735 0.007899795 0)
(12.41767 0.007863017 0)
(12.41799 0.007822076 0)
(12.41833 0.007776304 0)
(12.41868 0.007724889 0)
(12.41904 0.007666836 0)
(12.41941 0.007600913 0)
(12.41981 0.007525577 0)
(12.42022 0.00743888 0)
(12.42065 0.007338322 0)
(12.42111 0.007220661 0)
(12.42159 0.00708163 0)
(12.42211 0.006915542 0)
(12.42266 0.006714711 0)
(12.42325 0.006468629 0)
(12.42388 0.006162801 0)
(12.42456 0.005777176 0)
(12.42527 0.005284098 0)
(12.42601 0.004646561 0)
(12.42675 0.003817173 0)
(12.42739 0.002744286 0)
(12.42794 0.001402875 0)
(18.18309 0.001191041 0)
(13.62679 0.002453288 0)
(11.78237 0.003238635 0)
(12.27106 0.003793483 0)
(12.45885 0.004307547 0)
(12.40729 0.004746903 0)
(12.38894 0.005099946 0)
(12.39508 0.005390474 0)
(12.39753 0.005634408 0)
(12.39744 0.005840042 0)
(12.39772 0.00601449 0)
(12.39823 0.006163835 0)
(12.39868 0.006292745 0)
(12.39908 0.006404826 0)
(12.39946 0.006502937 0)
(12.39984 0.006589359 0)
(12.4002 0.006665919 0)
(12.40055 0.006734092 0)
(12.40088 0.00679508 0)
(12.40121 0.006849871 0)
(12.40153 0.006899281 0)
(12.40184 0.006943991 0)
(12.40214 0.006984576 0)
(12.40243 0.007021518 0)
(12.40272 0.00705523 0)
(12.40301 0.007086064 0)
(12.40329 0.007114323 0)
(12.40356 0.007140271 0)
(12.40383 0.007164135 0)
(12.4041 0.007186113 0)
(12.40436 0.00720638 0)
(12.40462 0.007225089 0)
(12.40488 0.007242373 0)
(12.40514 0.007258351 0)
(12.40539 0.007273128 0)
(12.40564 0.007286797 0)
(12.40589 0.007299441 0)
(12.40614 0.007311131 0)
(12.40638 0.007321932 0)
(12.40663 0.007331902 0)
(12.40687 0.007341089 0)
(12.40711 0.007349539 0)
(12.40735 0.007357289 0)
(12.40759 0.007364372 0)
(12.40783 0.007370817 0)
(12.40807 0.007376648 0)
(12.40831 0.007381884 0)
(12.40855 0.007386541 0)
(12.40879 0.00739063 0)
(12.40903 0.007394159 0)
(12.40926 0.007397133 0)
(12.4095 0.007399552 0)
(12.40974 0.007401411 0)
(12.40998 0.007402706 0)
(12.41022 0.007403423 0)
(12.41046 0.007403548 0)
(12.4107 0.007403063 0)
(12.41094 0.007401942 0)
(12.41118 0.007400158 0)
(12.41142 0.007397676 0)
(12.41167 0.007394458 0)
(12.41191 0.007390457 0)
(12.41216 0.007385622 0)
(12.4124 0.007379893 0)
(12.41265 0.007373201 0)
(12.41291 0.007365468 0)
(12.41316 0.007356608 0)
(12.41342 0.007346518 0)
(12.41367 0.007335086 0)
(12.41394 0.007322182 0)
(12.4142 0.007307657 0)
(12.41447 0.007291342 0)
(12.41474 0.007273044 0)
(12.41502 0.007252539 0)
(12.4153 0.007229571 0)
(12.41558 0.007203842 0)
(12.41588 0.007175005 0)
(12.41618 0.007142657 0)
(12.41648 0.007106322 0)
(12.41679 0.00706544 0)
(12.41712 0.007019342 0)
(12.41745 0.00696723 0)
(12.41779 0.006908142 0)
(12.41814 0.00684091 0)
(12.41851 0.006764101 0)
(12.41889 0.006675948 0)
(12.41929 0.006574249 0)
(12.4197 0.006456235 0)
(12.42014 0.006318392 0)
(12.4206 0.006156228 0)
(12.42108 0.005963953 0)
(12.42159 0.005734069 0)
(12.42213 0.005456854 0)
(12.42269 0.005119756 0)
(12.42327 0.004706811 0)
(12.42388 0.004198366 0)
(12.42448 0.003571642 0)
(12.42505 0.002804351 0)
(12.42552 0.001878956 0)
(12.42591 0.0008164493 0)
(18.18408 0.001321279 0)
(13.62783 0.002620282 0)
(11.78316 0.003494045 0)
(12.27164 0.004142993 0)
(12.4593 0.00470658 0)
(12.40762 0.00517919 0)
(12.38916 0.005561497 0)
(12.39522 0.005875918 0)
(12.39761 0.006139014 0)
(12.39746 0.006360485 0)
(12.3977 0.006548043 0)
(12.39818 0.006708074 0)
(12.39859 0.006845516 0)
(12.39897 0.00696421 0)
(12.39934 0.007067219 0)
(12.39969 0.007157007 0)
(12.40004 0.00723557 0)
(12.40037 0.007304539 0)
(12.40069 0.00736526 0)
(12.40101 0.007418848 0)
(12.40131 0.007466239 0)
(12.40161 0.007508217 0)
(12.40191 0.00754545 0)
(12.4022 0.007578503 0)
(12.40248 0.007607863 0)
(12.40276 0.007633946 0)
(12.40303 0.007657113 0)
(12.4033 0.007677676 0)
(12.40356 0.007695906 0)
(12.40383 0.007712041 0)
(12.40408 0.007726288 0)
(12.40434 0.007738829 0)
(12.40459 0.007749825 0)
(12.40485 0.007759415 0)
(12.4051 0.007767725 0)
(12.40534 0.007774864 0)
(12.40559 0.007780928 0)
(12.40583 0.007786003 0)
(12.40608 0.007790164 0)
(12.40632 0.007793477 0)
(12.40656 0.007795998 0)
(12.4068 0.007797779 0)
(12.40704 0.007798863 0)
(12.40728 0.007799287 0)
(12.40751 0.007799082 0)
(12.40775 0.007798275 0)
(12.40799 0.007796885 0)
(12.40823 0.00779493 0)
(12.40846 0.007792419 0)
(12.4087 0.007789361 0)
(12.40893 0.007785757 0)
(12.40917 0.007781606 0)
(12.40941 0.0077769 0)
(12.40964 0.007771629 0)
(12.40988 0.007765777 0)
(12.41012 0.007759324 0)
(12.41036 0.007752245 0)
(12.4106 0.007744508 0)
(12.41084 0.007736079 0)
(12.41108 0.007726913 0)
(12.41132 0.007716962 0)
(12.41156 0.007706171 0)
(12.41181 0.007694475 0)
(12.41205 0.007681801 0)
(12.4123 0.007668067 0)
(12.41255 0.007653178 0)
(12.4128 0.00763703 0)
(12.41306 0.007619503 0)
(12.41331 0.007600459 0)
(12.41357 0.007579746 0)
(12.41383 0.007557189 0)
(12.4141 0.007532588 0)
(12.41437 0.007505715 0)
(12.41464 0.007476311 0)
(12.41492 0.007444076 0)
(12.4152 0.007408665 0)
(12.41549 0.00736968 0)
(12.41578 0.007326657 0)
(12.41608 0.007279054 0)
(12.41639 0.007226235 0)
(12.41671 0.007167451 0)
(12.41703 0.007101811 0)
(12.41736 0.007028252 0)
(12.41771 0.006945498 0)
(12.41806 0.006852005 0)
(12.41843 0.006745895 0)
(12.41881 0.006624869 0)
(12.41921 0.006486096 0)
(12.41962 0.00632607 0)
(12.42005 0.006140437 0)
(12.4205 0.005923772 0)
(12.42096 0.005669337 0)
(12.42145 0.005368803 0)
(12.42194 0.00501203 0)
(12.42245 0.004586986 0)
(12.42295 0.00408012 0)
(12.42343 0.003477389 0)
(12.42388 0.002767768 0)
(12.42422 0.001945368 0)
(12.4245 0.001033376 0)
(18.18431 0.0009945506 0)
(13.62795 0.001967872 0)
(11.78299 0.002623374 0)
(12.27135 0.003140013 0)
(12.45896 0.003612728 0)
(12.40722 0.004027733 0)
(12.38871 0.0043794 0)
(12.39473 0.004680217 0)
(12.39709 0.004940165 0)
(12.39692 0.005165227 0)
(12.39714 0.00536059 0)
(12.3976 0.005530925 0)
(12.39801 0.005680095 0)
(12.39837 0.005811266 0)
(12.39873 0.005927077 0)
(12.39908 0.006029727 0)
(12.39942 0.006121051 0)
(12.39975 0.006202582 0)
(12.40007 0.006275611 0)
(12.40038 0.006341223 0)
(12.40069 0.006400337 0)
(12.40099 0.006453736 0)
(12.40128 0.006502088 0)
(12.40157 0.006545964 0)
(12.40185 0.006585856 0)
(12.40213 0.006622192 0)
(12.4024 0.006655339 0)
(12.40267 0.00668562 0)
(12.40294 0.006713315 0)
(12.4032 0.00673867 0)
(12.40346 0.006761902 0)
(12.40372 0.0067832 0)
(12.40397 0.006802731 0)
(12.40423 0.006820645 0)
(12.40448 0.006837072 0)
(12.40473 0.006852129 0)
(12.40497 0.006865916 0)
(12.40522 0.006878527 0)
(12.40546 0.00689004 0)
(12.40571 0.006900525 0)
(12.40595 0.006910046 0)
(12.40619 0.006918656 0)
(12.40643 0.006926401 0)
(12.40667 0.006933323 0)
(12.40691 0.006939454 0)
(12.40714 0.006944822 0)
(12.40738 0.006949451 0)
(12.40762 0.006953358 0)
(12.40786 0.006956554 0)
(12.40809 0.006959047 0)
(12.40833 0.006960839 0)
(12.40857 0.006961927 0)
(12.4088 0.006962304 0)
(12.40904 0.006961956 0)
(12.40928 0.006960866 0)
(12.40952 0.006959011 0)
(12.40976 0.006956362 0)
(12.41 0.006952883 0)
(12.41024 0.006948534 0)
(12.41048 0.006943265 0)
(12.41072 0.006937022 0)
(12.41096 0.00692974 0)
(12.41121 0.006921346 0)
(12.41145 0.006911758 0)
(12.4117 0.006900882 0)
(12.41195 0.006888611 0)
(12.4122 0.006874824 0)
(12.41245 0.006859387 0)
(12.41271 0.006842146 0)
(12.41297 0.006822925 0)
(12.41323 0.006801528 0)
(12.41349 0.006777731 0)
(12.41376 0.006751278 0)
(12.41403 0.006721878 0)
(12.4143 0.006689197 0)
(12.41458 0.006652852 0)
(12.41487 0.006612403 0)
(12.41516 0.006567338 0)
(12.41545 0.006517066 0)
(12.41575 0.006460895 0)
(12.41606 0.006398017 0)
(12.41638 0.00632748 0)
(12.4167 0.006248159 0)
(12.41704 0.006158719 0)
(12.41738 0.006057566 0)
(12.41774 0.005942792 0)
(12.4181 0.005812102 0)
(12.41848 0.00566273 0)
(12.41887 0.005491336 0)
(12.41927 0.005293888 0)
(12.41968 0.005065538 0)
(12.42011 0.004800504 0)
(12.42054 0.004491994 0)
(12.42098 0.004132231 0)
(12.42142 0.003712695 0)
(12.42184 0.003224795 0)
(12.42224 0.002661033 0)
(12.42259 0.002017916 0)
(12.42286 0.001296816 0)
(12.42307 0.0005194826 0)
(18.18489 0.0009726898 0)
(13.62852 0.001882544 0)
(11.78345 0.002529948 0)
(12.27174 0.003081987 0)
(12.4593 0.003596285 0)
(12.40749 0.004053388 0)
(12.38893 0.004447544 0)
(12.3949 0.004788673 0)
(12.39721 0.005085347 0)
(12.397 0.005343417 0)
(12.39718 0.005568209 0)
(12.39761 0.0057646 0)
(12.39799 0.005936724 0)
(12.39833 0.00608804 0)
(12.39867 0.006221465 0)
(12.399 0.006339454 0)
(12.39932 0.006444078 0)
(12.39964 0.006537083 0)
(12.39994 0.006619946 0)
(12.40024 0.006693924 0)
(12.40054 0.006760089 0)
(12.40083 0.006819358 0)
(12.40111 0.00687252 0)
(12.40139 0.006920256 0)
(12.40167 0.006963157 0)
(12.40194 0.007001733 0)
(12.40221 0.007036434 0)
(12.40247 0.00706765 0)
(12.40273 0.007095724 0)
(12.40299 0.007120959 0)
(12.40324 0.00714362 0)
(12.4035 0.007163943 0)
(12.40375 0.007182137 0)
(12.404 0.007198384 0)
(12.40424 0.00721285 0)
(12.40449 0.007225678 0)
(12.40473 0.007236998 0)
(12.40497 0.007246924 0)
(12.40521 0.007255557 0)
(12.40545 0.007262985 0)
(12.40569 0.007269288 0)
(12.40593 0.007274533 0)
(12.40617 0.007278782 0)
(12.40641 0.007282085 0)
(12.40664 0.007284487 0)
(12.40688 0.007286024 0)
(12.40711 0.007286727 0)
(12.40735 0.007286618 0)
(12.40759 0.007285716 0)
(12.40782 0.007284032 0)
(12.40806 0.007281571 0)
(12.40829 0.007278334 0)
(12.40853 0.007274313 0)
(12.40876 0.007269497 0)
(12.409 0.007263868 0)
(12.40923 0.007257401 0)
(12.40947 0.007250066 0)
(12.40971 0.007241824 0)
(12.40995 0.007232631 0)
(12.41019 0.007222433 0)
(12.41043 0.00721117 0)
(12.41067 0.007198771 0)
(12.41091 0.007185156 0)
(12.41115 0.007170232 0)
(12.4114 0.007153897 0)
(12.41164 0.007136032 0)
(12.41189 0.007116506 0)
(12.41214 0.007095168 0)
(12.4124 0.00707185 0)
(12.41265 0.00704636 0)
(12.41291 0.007018482 0)
(12.41317 0.006987971 0)
(12.41343 0.006954551 0)
(12.4137 0.006917904 0)
(12.41397 0.00687767 0)
(12.41425 0.006833439 0)
(12.41453 0.006784738 0)
(12.41481 0.006731025 0)
(12.4151 0.006671674 0)
(12.41539 0.006605962 0)
(12.4157 0.006533049 0)
(12.416 0.006451953 0)
(12.41632 0.006361532 0)
(12.41664 0.006260441 0)
(12.41697 0.006147101 0)
(12.41731 0.006019653 0)
(12.41765 0.005875901 0)
(12.41801 0.005713256 0)
(12.41838 0.005528667 0)
(12.41875 0.005318562 0)
(12.41913 0.005078789 0)
(12.41952 0.004804593 0)
(12.4199 0.004490649 0)
(12.42029 0.004131218 0)
(12.42067 0.003720472 0)
(12.42103 0.003253166 0)
(12.42135 0.002725576 0)
(12.42164 0.002137561 0)
(12.42185 0.00149268 0)
(12.42201 0.0008085081 0)
(18.1852 0.0008193656 0)
(13.62877 0.001584508 0)
(11.78354 0.002123904 0)
(12.27175 0.002589466 0)
(12.45926 0.003027681 0)
(12.4074 0.00342117 0)
(12.38877 0.003765167 0)
(12.3947 0.004067264 0)
(12.39697 0.004333689 0)
(12.39673 0.004568566 0)
(12.39689 0.004775767 0)
(12.3973 0.004958936 0)
(12.39766 0.005121235 0)
(12.39799 0.005265373 0)
(12.39831 0.005393686 0)
(12.39863 0.005508187 0)
(12.39895 0.005610602 0)
(12.39926 0.005702417 0)
(12.39956 0.005784908 0)
(12.39985 0.005859175 0)
(12.40015 0.005926167 0)
(12.40043 0.005986706 0)
(12.40071 0.006041503 0)
(12.40099 0.006091179 0)
(12.40126 0.006136274 0)
(12.40153 0.006177258 0)
(12.4018 0.006214546 0)
(12.40206 0.006248499 0)
(12.40232 0.006279439 0)
(12.40258 0.006307645 0)
(12.40283 0.006333367 0)
(12.40309 0.006356824 0)
(12.40334 0.006378212 0)
(12.40359 0.006397704 0)
(12.40383 0.006415451 0)
(12.40408 0.00643159 0)
(12.40432 0.006446242 0)
(12.40457 0.006459513 0)
(12.40481 0.006471496 0)
(12.40505 0.006482275 0)
(12.40529 0.006491922 0)
(12.40553 0.006500501 0)
(12.40576 0.006508066 0)
(12.406 0.006514664 0)
(12.40624 0.006520334 0)
(12.40647 0.006525107 0)
(12.40671 0.00652901 0)
(12.40695 0.006532062 0)
(12.40718 0.006534275 0)
(12.40742 0.006535657 0)
(12.40765 0.006536207 0)
(12.40789 0.006535921 0)
(12.40812 0.006534788 0)
(12.40836 0.006532791 0)
(12.4086 0.006529906 0)
(12.40883 0.006526102 0)
(12.40907 0.006521343 0)
(12.40931 0.006515585 0)
(12.40954 0.006508775 0)
(12.40978 0.006500854 0)
(12.41002 0.006491752 0)
(12.41026 0.00648139 0)
(12.41051 0.006469679 0)
(12.41075 0.006456517 0)
(12.41099 0.00644179 0)
(12.41124 0.006425369 0)
(12.41149 0.00640711 0)
(12.41174 0.006386848 0)
(12.41199 0.006364402 0)
(12.41224 0.006339563 0)
(12.4125 0.0063121 0)
(12.41275 0.006281751 0)
(12.41302 0.006248218 0)
(12.41328 0.006211166 0)
(12.41355 0.006170214 0)
(12.41382 0.006124929 0)
(12.41409 0.006074819 0)
(12.41437 0.006019319 0)
(12.41466 0.005957785 0)
(12.41494 0.005889476 0)
(12.41524 0.00581354 0)
(12.41554 0.005728995 0)
(12.41584 0.005634704 0)
(12.41615 0.005529352 0)
(12.41647 0.005411415 0)
(12.41679 0.005279129 0)
(12.41712 0.005130449 0)
(12.41746 0.004963016 0)
(12.4178 0.004774123 0)
(12.41815 0.004560689 0)
(12.4185 0.004319253 0)
(12.41885 0.004046014 0)
(12.4192 0.003736925 0)
(12.41954 0.003387896 0)
(12.41987 0.002995143 0)
(12.42017 0.002555767 0)
(12.42045 0.002068473 0)
(12.42069 0.001534982 0)
(12.42086 0.0009597586 0)
(12.42099 0.0003568752 0)
(18.18559 0.0007682173 0)
(13.62914 0.001470102 0)
(11.78383 0.001976028 0)
(12.272 0.0024321 0)
(12.45949 0.0028725 0)
(12.40759 0.00327742 0)
(12.38893 0.003640313 0)
(12.39482 0.003965776 0)
(12.39706 0.004257739 0)
(12.3968 0.004518908 0)
(12.39693 0.004752198 0)
(12.39731 0.004960611 0)
(12.39765 0.005146916 0)
(12.39796 0.005313604 0)
(12.39827 0.005462911 0)
(12.39857 0.005596825 0)
(12.39887 0.005717098 0)
(12.39917 0.005825268 0)
(12.39946 0.005922686 0)
(12.39974 0.006010533 0)
(12.40003 0.006089843 0)
(12.4003 0.006161525 0)
(12.40058 0.006226373 0)
(12.40085 0.006285088 0)
(12.40111 0.006338284 0)
(12.40138 0.006386506 0)
(12.40164 0.006430233 0)
(12.40189 0.006469889 0)
(12.40215 0.006505851 0)
(12.4024 0.006538454 0)
(12.40265 0.006567994 0)
(12.4029 0.006594736 0)
(12.40315 0.006618916 0)
(12.40339 0.006640746 0)
(12.40364 0.006660411 0)
(12.40388 0.006678081 0)
(12.40412 0.006693904 0)
(12.40436 0.006708014 0)
(12.4046 0.006720529 0)
(12.40484 0.006731554 0)
(12.40507 0.006741182 0)
(12.40531 0.006749495 0)
(12.40555 0.006756564 0)
(12.40578 0.006762451 0)
(12.40602 0.006767209 0)
(12.40625 0.006770882 0)
(12.40648 0.006773507 0)
(12.40672 0.006775113 0)
(12.40695 0.006775722 0)
(12.40718 0.006775349 0)
(12.40742 0.006774 0)
(12.40765 0.006771677 0)
(12.40789 0.006768373 0)
(12.40812 0.006764076 0)
(12.40835 0.006758763 0)
(12.40859 0.006752408 0)
(12.40882 0.006744975 0)
(12.40906 0.006736421 0)
(12.40929 0.006726692 0)
(12.40953 0.006715728 0)
(12.40977 0.006703458 0)
(12.41001 0.0066898 0)
(12.41025 0.006674661 0)
(12.41049 0.006657935 0)
(12.41073 0.006639503 0)
(12.41097 0.006619229 0)
(12.41122 0.006596963 0)
(12.41147 0.006572532 0)
(12.41171 0.006545746 0)
(12.41196 0.006516388 0)
(12.41222 0.006484216 0)
(12.41247 0.006448956 0)
(12.41273 0.006410301 0)
(12.41299 0.006367904 0)
(12.41325 0.006321372 0)
(12.41352 0.006270263 0)
(12.41379 0.006214074 0)
(12.41406 0.006152235 0)
(12.41434 0.006084098 0)
(12.41462 0.006008925 0)
(12.4149 0.005925873 0)
(12.41519 0.005833983 0)
(12.41548 0.005732156 0)
(12.41578 0.005619138 0)
(12.41609 0.005493499 0)
(12.41639 0.005353606 0)
(12.41671 0.005197609 0)
(12.41702 0.005023417 0)
(12.41734 0.004828689 0)
(12.41766 0.004610841 0)
(12.41798 0.004367069 0)
(12.4183 0.004094418 0)
(12.41861 0.003789902 0)
(12.41892 0.00345071 0)
(12.4192 0.003074512 0)
(12.41947 0.002659914 0)
(12.4197 0.002206959 0)
(12.4199 0.001718064 0)
(12.42004 0.001197586 0)
(12.42015 0.0006566374 0)
(18.18588 0.0006813408 0)
(13.62938 0.001300791 0)
(11.78399 0.001745708 0)
(12.27211 0.002149891 0)
(12.45957 0.002541609 0)
(12.40763 0.002902641 0)
(12.38892 0.003227365 0)
(12.39478 0.003519735 0)
(12.39699 0.003782997 0)
(12.39669 0.004019355 0)
(12.39679 0.004231232 0)
(12.39716 0.004421149 0)
(12.39747 0.004591447 0)
(12.39776 0.004744248 0)
(12.39806 0.004881474 0)
(12.39835 0.005004844 0)
(12.39864 0.005115888 0)
(12.39892 0.005215959 0)
(12.3992 0.005306253 0)
(12.39948 0.005387821 0)
(12.39976 0.005461592 0)
(12.40003 0.005528384 0)
(12.4003 0.005588916 0)
(12.40056 0.005643824 0)
(12.40083 0.005693671 0)
(12.40109 0.005738952 0)
(12.40134 0.005780107 0)
(12.4016 0.005817527 0)
(12.40185 0.005851556 0)
(12.4021 0.005882502 0)
(12.40235 0.005910638 0)
(12.4026 0.005936208 0)
(12.40285 0.005959429 0)
(12.40309 0.005980493 0)
(12.40333 0.005999571 0)
(12.40357 0.006016818 0)
(12.40382 0.006032368 0)
(12.40405 0.006046343 0)
(12.40429 0.006058849 0)
(12.40453 0.006069981 0)
(12.40477 0.006079821 0)
(12.405 0.006088441 0)
(12.40524 0.006095904 0)
(12.40547 0.006102263 0)
(12.40571 0.006107562 0)
(12.40594 0.006111838 0)
(12.40618 0.00611512 0)
(12.40641 0.00611743 0)
(12.40664 0.006118782 0)
(12.40688 0.006119183 0)
(12.40711 0.006118634 0)
(12.40735 0.006117129 0)
(12.40758 0.006114654 0)
(12.40781 0.006111189 0)
(12.40805 0.006106706 0)
(12.40828 0.006101172 0)
(12.40852 0.006094542 0)
(12.40875 0.006086766 0)
(12.40899 0.006077784 0)
(12.40922 0.006067527 0)
(12.40946 0.006055917 0)
(12.4097 0.006042863 0)
(12.40994 0.006028263 0)
(12.41018 0.006012005 0)
(12.41042 0.005993957 0)
(12.41066 0.005973978 0)
(12.4109 0.005951904 0)
(12.41115 0.005927555 0)
(12.41139 0.00590073 0)
(12.41164 0.005871202 0)
(12.41189 0.005838718 0)
(12.41214 0.005802994 0)
(12.4124 0.005763714 0)
(12.41266 0.005720521 0)
(12.41291 0.005673015 0)
(12.41318 0.005620747 0)
(12.41344 0.005563211 0)
(12.41371 0.005499838 0)
(12.41398 0.005429984 0)
(12.41425 0.005352925 0)
(12.41453 0.005267842 0)
(12.41481 0.00517381 0)
(12.41509 0.005069785 0)
(12.41538 0.004954593 0)
(12.41567 0.00482691 0)
(12.41596 0.004685256 0)
(12.41626 0.004527982 0)
(12.41656 0.004353268 0)
(12.41685 0.004159128 0)
(12.41715 0.003943431 0)
(12.41745 0.003703947 0)
(12.41774 0.003438429 0)
(12.41802 0.00314473 0)
(12.41829 0.002820998 0)
(12.41854 0.002465921 0)
(12.41877 0.002079077 0)
(12.41898 0.001661274 0)
(12.41914 0.001215162 0)
(12.41926 0.0007447585 0)
(12.41935 0.0002589143 0)
(18.18618 0.000631073 0)
(13.62966 0.001198397 0)
(11.7842 0.001609893 0)
(12.2723 0.001992151 0)
(12.45974 0.002368662 0)
(12.40777 0.002721747 0)
(12.38905 0.00304555 0)
(12.39488 0.003342553 0)
(12.39706 0.003614615 0)
(12.39674 0.00386285 0)
(12.39683 0.00408875 0)
(12.39717 0.004294064 0)
(12.39747 0.004480526 0)
(12.39775 0.004649796 0)
(12.39803 0.004803446 0)
(12.39831 0.004942945 0)
(12.39859 0.005069641 0)
(12.39886 0.005184766 0)
(12.39913 0.005289433 0)
(12.3994 0.005384648 0)
(12.39967 0.005471317 0)
(12.39993 0.005550251 0)
(12.40019 0.005622177 0)
(12.40045 0.005687748 0)
(12.40071 0.005747546 0)
(12.40096 0.005802096 0)
(12.40122 0.005851865 0)
(12.40147 0.005897273 0)
(12.40172 0.005938698 0)
(12.40196 0.005976475 0)
(12.40221 0.00601091 0)
(12.40245 0.006042274 0)
(12.40269 0.006070812 0)
(12.40294 0.006096745 0)
(12.40318 0.006120268 0)
(12.40341 0.00614156 0)
(12.40365 0.006160779 0)
(12.40389 0.006178067 0)
(12.40412 0.006193552 0)
(12.40436 0.006207347 0)
(12.40459 0.006219552 0)
(12.40483 0.006230255 0)
(12.40506 0.006239534 0)
(12.4053 0.006247457 0)
(12.40553 0.006254081 0)
(12.40576 0.006259456 0)
(12.40599 0.006263621 0)
(12.40622 0.006266608 0)
(12.40646 0.00626844 0)
(12.40669 0.006269134 0)
(12.40692 0.006268699 0)
(12.40715 0.006267133 0)
(12.40738 0.006264431 0)
(12.40762 0.006260577 0)
(12.40785 0.006255548 0)
(12.40808 0.006249314 0)
(12.40831 0.006241835 0)
(12.40855 0.006233062 0)
(12.40878 0.006222938 0)
(12.40901 0.006211395 0)
(12.40925 0.006198356 0)
(12.40949 0.00618373 0)
(12.40972 0.006167415 0)
(12.40996 0.006149296 0)
(12.4102 0.006129244 0)
(12.41044 0.006107112 0)
(12.41068 0.006082736 0)
(12.41092 0.006055934 0)
(12.41116 0.006026501 0)
(12.41141 0.005994208 0)
(12.41165 0.005958801 0)
(12.4119 0.005919993 0)
(12.41215 0.005877466 0)
(12.4124 0.005830864 0)
(12.41266 0.005779791 0)