/*--------------------------------*- C++ -*----------------------------------*\
| =========                 |                                                 |
| \\      /  F ield         | OpenFOAM: The Open Source CFD Toolbox           |
|  \\    /   O peration     | Version:  2.3.0                                 |
|   \\  /    A nd           | Web:      www.OpenFOAM.org                      |
|    \\/     M anipulation  |                                                 |
\*---------------------------------------------------------------------------*/
FoamFile
{
    version     2.0;
    format      ascii;
    class       surfaceScalarField;
    location    "9700/bottomAir";
    object      phi;
}
// * * * * * * * * * * * * * * * * * * * * * * * * * * * * * * * * * * * * * //

dimensions      [1 0 -1 0 0 0 0];

internalField   nonuniform List<scalar> 
7860
(
0.00562308
-1.202826e-06
0.005623426
-3.446358e-07
0.005623509
-8.24777e-08
0.005623614
-1.040936e-07
0.005623687
-7.305938e-08
0.005623731
-4.350533e-08
0.005623765
-3.382158e-08
0.005623795
-2.974401e-08
0.005623822
-2.699762e-08
0.005623847
-2.574787e-08
0.005623873
-2.55386e-08
0.005623899
-2.58512e-08
0.005623925
-2.64609e-08
0.005623952
-2.725638e-08
0.00562398
-2.816007e-08
0.005624009
-2.91192e-08
0.005624039
-3.010109e-08
0.00562407
-3.108396e-08
0.005624102
-3.205309e-08
0.005624135
-3.299853e-08
0.005624169
-3.391341e-08
0.005624204
-3.479337e-08
0.00562424
-3.563537e-08
0.005624276
-3.643786e-08
0.005624313
-3.719982e-08
0.005624351
-3.792119e-08
0.005624389
-3.860208e-08
0.005624429
-3.924319e-08
0.005624468
-3.984527e-08
0.005624509
-4.040943e-08
0.00562455
-4.093673e-08
0.005624591
-4.142848e-08
0.005624633
-4.188586e-08
0.005624675
-4.23102e-08
0.005624718
-4.270273e-08
0.005624761
-4.306471e-08
0.005624804
-4.339733e-08
0.005624848
-4.37017e-08
0.005624892
-4.397893e-08
0.005624936
-4.422998e-08
0.005624981
-4.445582e-08
0.005625025
-4.465723e-08
0.00562507
-4.483502e-08
0.005625115
-4.49898e-08
0.00562516
-4.51222e-08
0.005625205
-4.523263e-08
0.005625251
-4.532155e-08
0.005625296
-4.538918e-08
0.005625341
-4.543578e-08
0.005625387
-4.546136e-08
0.005625432
-4.546602e-08
0.005625478
-4.544956e-08
0.005625523
-4.541187e-08
0.005625568
-4.535256e-08
0.005625614
-4.527133e-08
0.005625659
-4.516758e-08
0.005625704
-4.504082e-08
0.005625749
-4.489023e-08
0.005625793
-4.471513e-08
0.005625838
-4.45145e-08
0.005625882
-4.428746e-08
0.005625926
-4.403279e-08
0.00562597
-4.374941e-08
0.005626013
-4.343592e-08
0.005626056
-4.309103e-08
0.005626099
-4.271316e-08
0.005626141
-4.230087e-08
0.005626183
-4.185241e-08
0.005626225
-4.136618e-08
0.005626265
-4.08403e-08
0.005626306
-4.027306e-08
0.005626345
-3.966249e-08
0.005626384
-3.900681e-08
0.005626423
-3.830403e-08
0.00562646
-3.755238e-08
0.005626497
-3.674989e-08
0.005626533
-3.589488e-08
0.005626568
-3.498555e-08
0.005626602
-3.402042e-08
0.005626635
-3.299791e-08
0.005626667
-3.191687e-08
0.005626697
-3.077614e-08
0.005626727
-2.957501e-08
0.005626755
-2.831287e-08
0.005626782
-2.698963e-08
0.005626808
-2.560534e-08
0.005626832
-2.416069e-08
0.005626855
-2.265656e-08
0.005626876
-2.109454e-08
0.005626895
-1.947648e-08
0.005626913
-1.780499e-08
0.005626929
-1.608305e-08
0.005626943
-1.431448e-08
0.005626956
-1.250377e-08
0.005626967
-1.065672e-08
0.005626975
-8.781068e-09
0.005626982
-6.888182e-09
0.005626987
-5.000318e-09
0.00562699
-3.148306e-09
-1.469008e-09
0.005622108
-6.497247e-07
0.005622109
-3.444521e-07
0.005622166
-1.386747e-07
0.005622176
-1.135151e-07
0.005622195
-9.151132e-08
0.005622219
-6.784368e-08
0.005622243
-5.707651e-08
0.005622266
-5.278747e-08
0.00562229
-5.067314e-08
0.005622314
-5.01179e-08
0.005622339
-5.069339e-08
0.005622365
-5.192438e-08
0.005622392
-5.353646e-08
0.00562242
-5.537987e-08
0.005622449
-5.735246e-08
0.005622479
-5.93839e-08
0.005622511
-6.142688e-08
0.005622543
-6.344923e-08
0.005622576
-6.542873e-08
0.005622611
-6.734993e-08
0.005622646
-6.920248e-08
0.005622682
-7.097935e-08
0.005622719
-7.267635e-08
0.005622757
-7.429096e-08
0.005622795
-7.582232e-08
0.005622835
-7.727045e-08
0.005622874
-7.863633e-08
0.005622915
-7.992138e-08
0.005622956
-8.11276e-08
0.005622998
-8.225718e-08
0.00562304
-8.331258e-08
0.005623083
-8.429634e-08
0.005623127
-8.521109e-08
0.00562317
-8.605945e-08
0.005623214
-8.684401e-08
0.005623259
-8.756729e-08
0.005623304
-8.823171e-08
0.005623349
-8.88396e-08
0.005623394
-8.93931e-08
0.00562344
-8.989426e-08
0.005623486
-9.03449e-08
0.005623532
-9.074677e-08
0.005623578
-9.110134e-08
0.005623624
-9.140999e-08
0.005623671
-9.167382e-08
0.005623717
-9.189386e-08
0.005623764
-9.207081e-08
0.005623811
-9.220535e-08
0.005623858
-9.229776e-08
0.005623905
-9.234834e-08
0.005623952
-9.2357e-08
0.005623998
-9.232362e-08
0.005624045
-9.224773e-08
0.005624092
-9.212881e-08
0.005624139
-9.196598e-08
0.005624185
-9.175834e-08
0.005624232
-9.15046e-08
0.005624278
-9.120345e-08
0.005624324
-9.08532e-08
0.00562437
-9.045214e-08
0.005624416
-8.999817e-08
0.005624461
-8.948918e-08
0.005624506
-8.892269e-08
0.005624551
-8.829621e-08
0.005624596
-8.760685e-08
0.00562464
-8.685177e-08
0.005624684
-8.602774e-08
0.005624727
-8.513158e-08
0.00562477
-8.415977e-08
0.005624812
-8.310885e-08
0.005624854
-8.197507e-08
0.005624895
-8.07548e-08
0.005624935
-7.944415e-08
0.005624975
-7.803941e-08
0.005625014
-7.653671e-08
0.005625052
-7.493242e-08
0.005625089
-7.322285e-08
0.005625126
-7.140464e-08
0.005625161
-6.947448e-08
0.005625196
-6.742954e-08
0.005625229
-6.526715e-08
0.005625261
-6.298526e-08
0.005625292
-6.058212e-08
0.005625322
-5.805675e-08
0.00562535
-5.540863e-08
0.005625377
-5.263816e-08
0.005625403
-4.974635e-08
0.005625427
-4.673526e-08
0.005625449
-4.36077e-08
0.00562547
-4.036765e-08
0.00562549
-3.701994e-08
0.005625507
-3.357067e-08
0.005625523
-3.002693e-08
0.005625537
-2.639716e-08
0.005625549
-2.269102e-08
0.005625559
-1.891973e-08
0.005625567
-1.509614e-08
0.005625573
-1.123544e-08
0.005625577
-7.354189e-09
-3.470696e-09
0.00562238
-3.577142e-07
0.005622275
-2.386621e-07
0.005622271
-1.347405e-07
0.005622274
-1.154901e-07
0.005622286
-1.028196e-07
0.005622306
-8.790839e-08
0.005622329
-7.949134e-08
0.005622352
-7.590913e-08
0.005622376
-7.456104e-08
0.0056224
-7.473897e-08
0.005622426
-7.606265e-08
0.005622452
-7.813038e-08
0.005622479
-8.066157e-08
0.005622507
-8.347852e-08
0.005622536
-8.645711e-08
0.005622566
-8.950807e-08
0.005622597
-9.256864e-08
0.005622629
-9.559453e-08
0.005622662
-9.855445e-08
0.005622696
-1.014265e-07
0.005622731
-1.041954e-07
0.005622767
-1.068512e-07
0.005622804
-1.093874e-07
0.005622841
-1.118006e-07
0.005622879
-1.140892e-07
0.005622918
-1.162535e-07
0.005622958
-1.182947e-07
0.005622998
-1.202152e-07
0.005623039
-1.220178e-07
0.00562308
-1.237059e-07
0.005623122
-1.25283e-07
0.005623165
-1.26753e-07
0.005623208
-1.281199e-07
0.005623251
-1.293876e-07
0.005623294
-1.305599e-07
0.005623339
-1.316406e-07
0.005623383
-1.326334e-07
0.005623428
-1.335418e-07
0.005623472
-1.343688e-07
0.005623518
-1.351177e-07
0.005623563
-1.357912e-07
0.005623609
-1.363917e-07
0.005623654
-1.369217e-07
0.0056237
-1.37383e-07
0.005623747
-1.377774e-07
0.005623793
-1.381064e-07
0.005623839
-1.383712e-07
0.005623885
-1.385725e-07
0.005623932
-1.387109e-07
0.005623978
-1.387869e-07
0.005624025
-1.388003e-07
0.005624071
-1.387508e-07
0.005624117
-1.386379e-07
0.005624164
-1.384607e-07
0.00562421
-1.382179e-07
0.005624256
-1.379081e-07
0.005624302
-1.375295e-07
0.005624348
-1.370799e-07
0.005624394
-1.365571e-07
0.005624439
-1.359582e-07
0.005624484
-1.352803e-07
0.005624529
-1.3452e-07
0.005624574
-1.336738e-07
0.005624619
-1.327377e-07
0.005624663
-1.317076e-07
0.005624706
-1.305791e-07
0.00562475
-1.293474e-07
0.005624792
-1.280076e-07
0.005624835
-1.265546e-07
0.005624877
-1.249829e-07
0.005624918
-1.232871e-07
0.005624959
-1.214616e-07
0.005624999
-1.195005e-07
0.005625038
-1.173983e-07
0.005625077
-1.15149e-07
0.005625115
-1.127472e-07
0.005625152
-1.101873e-07
0.005625188
-1.07464e-07
0.005625223
-1.045726e-07
0.005625257
-1.015084e-07
0.00562529
-9.826762e-08
0.005625322
-9.484684e-08
0.005625352
-9.124354e-08
0.005625382
-8.745599e-08
0.00562541
-8.348348e-08
0.005625436
-7.932636e-08
0.005625462
-7.498622e-08
0.005625485
-7.046591e-08
0.005625507
-6.576973e-08
0.005625528
-6.090342e-08
0.005625547
-5.587431e-08
0.005625564
-5.069133e-08
0.005625579
-4.536509e-08
0.005625593
-3.990789e-08
0.005625604
-3.43338e-08
0.005625614
-2.865863e-08
0.005625622
-2.289976e-08
0.005625628
-1.707572e-08
0.005625632
-1.120352e-08
-5.292905e-09
0.005622471
-2.00453e-07
0.005622408
-1.754536e-07
0.005622406
-1.315901e-07
0.00562241
-1.189296e-07
0.005622418
-1.107408e-07
0.005622432
-1.018697e-07
0.00562245
-9.663285e-08
0.005622469
-9.488035e-08
0.005622489
-9.516456e-08
0.005622511
-9.683165e-08
0.005622535
-9.951921e-08
0.005622559
-1.02893e-07
0.005622585
-1.066968e-07
0.005622613
-1.107548e-07
0.005622641
-1.149413e-07
0.005622671
-1.191649e-07
0.005622701
-1.233596e-07
0.005622733
-1.274782e-07
0.005622766
-1.314872e-07
0.0056228
-1.353628e-07
0.005622835
-1.39089e-07
0.005622871
-1.426552e-07
0.005622907
-1.460551e-07
0.005622945
-1.492855e-07
0.005622983
-1.523458e-07
0.005623022
-1.552369e-07
0.005623061
-1.579616e-07
0.005623102
-1.605233e-07
0.005623142
-1.629263e-07
0.005623184
-1.651754e-07
0.005623226
-1.672758e-07
0.005623268
-1.692329e-07
0.005623311
-1.71052e-07
0.005623354
-1.727385e-07
0.005623398
-1.742978e-07
0.005623442
-1.757349e-07
0.005623487
-1.770549e-07
0.005623531
-1.782623e-07
0.005623576
-1.793616e-07
0.005623621
-1.803568e-07
0.005623667
-1.812518e-07
0.005623712
-1.820499e-07
0.005623758
-1.827541e-07
0.005623804
-1.833673e-07
0.00562385
-1.838916e-07
0.005623897
-1.84329e-07
0.005623943
-1.846811e-07
0.005623989
-1.84949e-07
0.005624036
-1.851336e-07
0.005624082
-1.852352e-07
0.005624128
-1.852538e-07
0.005624175
-1.851891e-07
0.005624221
-1.850402e-07
0.005624268
-1.84806e-07
0.005624314
-1.844849e-07
0.00562436
-1.840748e-07
0.005624406
-1.835735e-07
0.005624452
-1.82978e-07
0.005624498
-1.822852e-07
0.005624543
-1.814915e-07
0.005624588
-1.805929e-07
0.005624633
-1.795849e-07
0.005624678
-1.784628e-07
0.005624723
-1.772213e-07
0.005624767
-1.758549e-07
0.005624811
-1.743576e-07
0.005624854
-1.727231e-07
0.005624897
-1.709449e-07
0.005624939
-1.690159e-07
0.005624981
-1.66929e-07
0.005625023
-1.646768e-07
0.005625063
-1.622517e-07
0.005625104
-1.59646e-07
0.005625143
-1.568519e-07
0.005625182
-1.538618e-07
0.00562522
-1.506678e-07
0.005625257
-1.472628e-07
0.005625293
-1.436394e-07
0.005625328
-1.397911e-07
0.005625362
-1.357117e-07
0.005625395
-1.313958e-07
0.005625427
-1.268388e-07
0.005625458
-1.22037e-07
0.005625488
-1.169881e-07
0.005625516
-1.116908e-07
0.005625543
-1.061456e-07
0.005625568
-1.003543e-07
0.005625592
-9.432065e-08
0.005625614
-8.805016e-08
0.005625635
-8.155043e-08
0.005625654
-7.483107e-08
0.005625671
-6.790388e-08
0.005625686
-6.078279e-08
0.0056257
-5.34839e-08
0.005625712
-4.602542e-08
0.005625721
-3.842755e-08
0.005625729
-3.071212e-08
0.005625735
-2.290258e-08
0.005625739
-1.502141e-08
-7.099077e-09
0.00562254
-1.305022e-07
0.005622499
-1.331938e-07
0.005622485
-1.168474e-07
0.00562248
-1.135897e-07
0.005622482
-1.12285e-07
0.005622491
-1.10383e-07
0.005622505
-1.100357e-07
0.005622521
-1.115892e-07
0.005622541
-1.144449e-07
0.005622562
-1.182212e-07
0.005622585
-1.22689e-07
0.00562261
-1.276338e-07
0.005622636
-1.328736e-07
0.005622663
-1.38271e-07
0.005622692
-1.437222e-07
0.005622722
-1.491484e-07
0.005622753
-1.544901e-07
0.005622785
-1.597036e-07
0.005622818
-1.647571e-07
0.005622853
-1.696277e-07
0.005622888
-1.743001e-07
0.005622924
-1.787643e-07
0.005622961
-1.830147e-07
0.005622998
-1.870489e-07
0.005623037
-1.908673e-07
0.005623076
-1.944722e-07
0.005623116
-1.978674e-07
0.005623156
-2.01058e-07
0.005623197
-2.040495e-07
0.005623239
-2.068485e-07
0.005623281
-2.094615e-07
0.005623324
-2.118954e-07
0.005623367
-2.141572e-07
0.00562341
-2.162536e-07
0.005623454
-2.181915e-07
0.005623498
-2.199774e-07
0.005623543
-2.216173e-07
0.005623588
-2.231173e-07
0.005623633
-2.244828e-07
0.005623678
-2.25719e-07
0.005623724
-2.268305e-07
0.005623769
-2.278217e-07
0.005623815
-2.286964e-07
0.005623861
-2.29458e-07
0.005623908
-2.301092e-07
0.005623954
-2.306527e-07
0.005624
-2.310903e-07
0.005624047
-2.314235e-07
0.005624093
-2.316532e-07
0.00562414
-2.3178e-07
0.005624186
-2.318038e-07
0.005624233
-2.317243e-07
0.005624279
-2.315403e-07
0.005624326
-2.312504e-07
0.005624372
-2.308526e-07
0.005624418
-2.303444e-07
0.005624464
-2.297229e-07
0.00562451
-2.289845e-07
0.005624556
-2.281253e-07
0.005624602
-2.271407e-07
0.005624647
-2.260256e-07
0.005624692
-2.247747e-07
0.005624737
-2.233817e-07
0.005624782
-2.218403e-07
0.005624826
-2.201434e-07
0.00562487
-2.182835e-07
0.005624914
-2.162528e-07
0.005624957
-2.140429e-07
0.005624999
-2.11645e-07
0.005625042
-2.090502e-07
0.005625083
-2.062491e-07
0.005625124
-2.03232e-07
0.005625164
-1.999893e-07
0.005625204
-1.965111e-07
0.005625243
-1.927875e-07
0.005625281
-1.888088e-07
0.005625318
-1.845656e-07
0.005625355
-1.800487e-07
0.00562539
-1.752495e-07
0.005625425
-1.701602e-07
0.005625458
-1.647736e-07
0.00562549
-1.590838e-07
0.005625521
-1.530859e-07
0.005625551
-1.467766e-07
0.00562558
-1.401542e-07
0.005625607
-1.332188e-07
0.005625632
-1.259726e-07
0.005625656
-1.184199e-07
0.005625679
-1.105675e-07
0.0056257
-1.024246e-07
0.005625719
-9.400325e-08
0.005625736
-8.531794e-08
0.005625752
-7.638604e-08
0.005625766
-6.722757e-08
0.005625777
-5.786515e-08
0.005625787
-4.832382e-08
0.005625795
-3.863058e-08
0.005625801
-2.881451e-08
0.005625805
-1.890345e-08
-8.937177e-09
0.005622546
-8.660197e-08
0.005622519
-1.05032e-07
0.005622509
-1.066548e-07
0.005622508
-1.116557e-07
0.005622513
-1.162487e-07
0.005622522
-1.197058e-07
0.005622536
-1.234487e-07
0.005622552
-1.280245e-07
0.005622571
-1.333188e-07
0.005622592
-1.391705e-07
0.005622615
-1.454528e-07
0.005622639
-1.520317e-07
0.005622665
-1.587784e-07
0.005622692
-1.655851e-07
0.005622721
-1.723652e-07
0.005622751
-1.790502e-07
0.005622782
-1.85587e-07
0.005622814
-1.919354e-07
0.005622847
-1.98066e-07
0.005622881
-2.039579e-07
0.005622917
-2.095972e-07
0.005622953
-2.149753e-07
0.00562299
-2.200881e-07
0.005623027
-2.249347e-07
0.005623066
-2.295171e-07
0.005623105
-2.338393e-07
0.005623145
-2.379068e-07
0.005623186
-2.417264e-07
0.005623227
-2.453055e-07
0.005623269
-2.486524e-07
0.005623311
-2.517753e-07
0.005623354
-2.54683e-07
0.005623397
-2.573839e-07
0.005623441
-2.598866e-07
0.005623485
-2.621993e-07
0.005623529
-2.643299e-07
0.005623574
-2.66286e-07
0.005623619
-2.680748e-07
0.005623664
-2.697031e-07
0.005623709
-2.711769e-07
0.005623755
-2.72502e-07
0.005623801
-2.736837e-07
0.005623847
-2.747264e-07
0.005623893
-2.756344e-07
0.005623939
-2.76411e-07
0.005623985
-2.770592e-07
0.005624032
-2.775814e-07
0.005624078
-2.779793e-07
0.005624125
-2.782542e-07
0.005624172
-2.784065e-07
0.005624218
-2.784364e-07
0.005624265
-2.783433e-07
0.005624311
-2.781259e-07
0.005624358
-2.777826e-07
0.005624404
-2.773108e-07
0.005624451
-2.767078e-07
0.005624497
-2.759698e-07
0.005624543
-2.750926e-07
0.005624589
-2.740716e-07
0.005624635
-2.729012e-07
0.00562468
-2.715754e-07
0.005624726
-2.700875e-07
0.005624771
-2.684304e-07
0.005624815
-2.665962e-07
0.00562486
-2.645763e-07
0.005624904
-2.623619e-07
0.005624948
-2.599433e-07
0.005624991
-2.573106e-07
0.005625034
-2.54453e-07
0.005625076
-2.513598e-07
0.005625118
-2.480194e-07
0.005625159
-2.444203e-07
0.005625199
-2.405505e-07
0.005625239
-2.36398e-07
0.005625278
-2.319508e-07
0.005625317
-2.27197e-07
0.005625354
-2.221248e-07
0.005625391
-2.167231e-07
0.005625427
-2.109811e-07
0.005625461
-2.04889e-07
0.005625495
-1.98438e-07
0.005625528
-1.916203e-07
0.005625559
-1.844298e-07
0.005625589
-1.76862e-07
0.005625618
-1.689145e-07
0.005625645
-1.60587e-07
0.005625671
-1.518817e-07
0.005625695
-1.428035e-07
0.005625718
-1.333602e-07
0.005625739
-1.235626e-07
0.005625759
-1.13425e-07
0.005625776
-1.029646e-07
0.005625792
-9.220218e-08
0.005625806
-8.116186e-08
0.005625818
-6.987079e-08
0.005625828
-5.835916e-08
0.005625836
-4.66596e-08
0.005625842
-3.480767e-08
0.005625846
-2.283778e-08
-1.080127e-08
0.005622556
-6.643597e-08
0.005622541
-9.009269e-08
0.005622535
-9.988223e-08
0.005622535
-1.102357e-07
0.005622538
-1.194728e-07
0.005622546
-1.274385e-07
0.005622558
-1.350791e-07
0.005622573
-1.428871e-07
0.005622591
-1.509346e-07
0.005622611
-1.591808e-07
0.005622633
-1.675697e-07
0.005622657
-1.760294e-07
0.005622682
-1.844805e-07
0.005622709
-1.928497e-07
0.005622738
-2.010748e-07
0.005622768
-2.091047e-07
0.005622799
-2.168987e-07
0.005622832
-2.244258e-07
0.005622865
-2.316633e-07
0.0056229
-2.385953e-07
0.005622935
-2.45212e-07
0.005622972
-2.515083e-07
0.005623009
-2.574831e-07
0.005623047
-2.631383e-07
0.005623086
-2.684784e-07
0.005623126
-2.735097e-07
0.005623166
-2.7824e-07
0.005623207
-2.826784e-07
0.005623248
-2.868344e-07
0.00562329
-2.907181e-07
0.005623333
-2.943401e-07
0.005623376
-2.977107e-07
0.005623419
-3.008403e-07
0.005623463
-3.037391e-07
0.005623507
-3.064169e-07
0.005623552
-3.088832e-07
0.005623597
-3.111469e-07
0.005623642
-3.132166e-07
0.005623687
-3.151002e-07
0.005623733
-3.16805e-07
0.005623779
-3.183377e-07
0.005623825
-3.197043e-07
0.005623871
-3.209104e-07
0.005623917
-3.219606e-07
0.005623963
-3.228591e-07
0.00562401
-3.236092e-07
0.005624057
-3.242139e-07
0.005624103
-3.24675e-07
0.00562415
-3.24994e-07
0.005624197
-3.251717e-07
0.005624243
-3.25208e-07
0.00562429
-3.251022e-07
0.005624337
-3.24853e-07
0.005624384
-3.244584e-07
0.00562443
-3.239156e-07
0.005624477
-3.23221e-07
0.005624523
-3.223706e-07
0.005624569
-3.213594e-07
0.005624615
-3.201819e-07
0.005624661
-3.188316e-07
0.005624707
-3.173016e-07
0.005624753
-3.15584e-07
0.005624798
-3.136705e-07
0.005624843
-3.115517e-07
0.005624887
-3.092178e-07
0.005624932
-3.066583e-07
0.005624975
-3.038619e-07
0.005625019
-3.008167e-07
0.005625062
-2.975103e-07
0.005625105
-2.939297e-07
0.005625147
-2.900616e-07
0.005625188
-2.858921e-07
0.005625229
-2.814071e-07
0.005625269
-2.765922e-07
0.005625309
-2.714331e-07
0.005625347
-2.659155e-07
0.005625385
-2.600255e-07
0.005625422
-2.537493e-07
0.005625458
-2.470742e-07
0.005625493
-2.399879e-07
0.005625527
-2.324797e-07
0.00562556
-2.245401e-07
0.005625592
-2.161611e-07
0.005625623
-2.073371e-07
0.005625652
-1.980645e-07
0.005625679
-1.883424e-07
0.005625706
-1.781729e-07
0.00562573
-1.675611e-07
0.005625754
-1.565157e-07
0.005625775
-1.450492e-07
0.005625795
-1.331776e-07
0.005625813
-1.209213e-07
0.005625829
-1.083044e-07
0.005625843
-9.535504e-08
0.005625855
-8.21053e-08
0.005625866
-6.859076e-08
0.005625874
-5.48501e-08
0.00562588
-4.092547e-08
0.005625884
-2.68579e-08
-1.270811e-08
0.005622548
-5.355614e-08
0.00562254
-8.092588e-08
0.005622537
-9.628958e-08
0.005622538
-1.108806e-07
0.005622544
-1.24244e-07
0.005622553
-1.362129e-07
0.005622565
-1.474073e-07
0.005622581
-1.582721e-07
0.005622599
-1.689729e-07
0.005622619
-1.795525e-07
0.005622641
-1.900152e-07
0.005622666
-2.003403e-07
0.005622692
-2.104895e-07
0.005622719
-2.2042e-07
0.005622748
-2.300911e-07
0.005622778
-2.394675e-07
0.00562281
-2.4852e-07
0.005622843
-2.57226e-07
0.005622876
-2.655691e-07
0.005622911
-2.735386e-07
0.005622947
-2.811288e-07
0.005622984
-2.88338e-07
0.005623022
-2.951684e-07
0.00562306
-3.016247e-07
0.005623099
-3.077141e-07
0.005623139
-3.134455e-07
0.00562318
-3.188293e-07
0.005623221
-3.238766e-07
0.005623262
-3.285995e-07
0.005623305
-3.330102e-07
0.005623347
-3.371211e-07
0.005623391
-3.409448e-07
0.005623434
-3.444935e-07
0.005623478
-3.477792e-07
0.005623523
-3.508132e-07
0.005623567
-3.536068e-07
0.005623612
-3.561702e-07
0.005623658
-3.585134e-07
0.005623703
-3.606454e-07
0.005623749
-3.625748e-07
0.005623795
-3.643093e-07
0.005623841
-3.658558e-07
0.005623887
-3.672206e-07
0.005623934
-3.684092e-07
0.00562398
-3.694263e-07
0.005624027
-3.702758e-07
0.005624073
-3.709609e-07
0.00562412
-3.71484e-07
0.005624167
-3.718466e-07
0.005624214
-3.720496e-07
0.005624261
-3.72093e-07
0.005624308
-3.71976e-07
0.005624355
-3.716972e-07
0.005624401
-3.712541e-07
0.005624448
-3.706437e-07
0.005624495
-3.698619e-07
0.005624541
-3.68904e-07
0.005624588
-3.677644e-07
0.005624634
-3.664367e-07
0.00562468
-3.649137e-07
0.005624726
-3.631873e-07
0.005624771
-3.612487e-07
0.005624817
-3.590879e-07
0.005624862
-3.566947e-07
0.005624907
-3.540574e-07
0.005624951
-3.511641e-07
0.005624995
-3.480018e-07
0.005625039
-3.445567e-07
0.005625082
-3.408146e-07
0.005625125
-3.367604e-07
0.005625167
-3.323785e-07
0.005625209
-3.276529e-07
0.00562525
-3.22567e-07
0.005625291
-3.171043e-07
0.005625331
-3.112478e-07
0.00562537
-3.049807e-07
0.005625408
-2.982865e-07
0.005625445
-2.911491e-07
0.005625482
-2.835529e-07
0.005625517
-2.754837e-07
0.005625552
-2.66928e-07
0.005625585
-2.578744e-07
0.005625617
-2.48313e-07
0.005625648
-2.382364e-07
0.005625678
-2.276398e-07
0.005625706
-2.165214e-07
0.005625733
-2.048827e-07
0.005625758
-1.92729e-07
0.005625781
-1.800696e-07
0.005625803
-1.669183e-07
0.005625823
-1.532931e-07
0.005625842
-1.392171e-07
0.005625858
-1.24718e-07
0.005625872
-1.098283e-07
0.005625885
-9.458494e-08
0.005625895
-7.90295e-08
0.005625904
-6.320718e-08
0.00562591
-4.716765e-08
0.005625914
-3.095942e-08
-1.465548e-08
0.005622543
-4.788859e-08
0.00562254
-7.736054e-08
0.00562254
-9.600382e-08
0.005622544
-1.136763e-07
0.00562255
-1.30313e-07
0.00562256
-1.45573e-07
0.005622572
-1.598523e-07
0.005622588
-1.73533e-07
0.005622605
-1.867944e-07
0.005622626
-1.99703e-07
0.005622648
-2.122871e-07
0.005622672
-2.245509e-07
0.005622698
-2.364797e-07
0.005622725
-2.480505e-07
0.005622755
-2.592389e-07
0.005622785
-2.700229e-07
0.005622817
-2.80384e-07
0.00562285
-2.903085e-07
0.005622884
-2.997874e-07
0.005622919
-3.088161e-07
0.005622955
-3.173942e-07
0.005622993
-3.25525e-07
0.005623031
-3.332146e-07
0.005623069
-3.404717e-07
0.005623109
-3.47307e-07
0.005623149
-3.537327e-07
0.00562319
-3.59762e-07
0.005623231
-3.654092e-07
0.005623274
-3.706888e-07
0.005623316
-3.756157e-07
0.005623359
-3.802046e-07
0.005623403
-3.844703e-07
0.005623446
-3.884271e-07
0.005623491
-3.920887e-07
0.005623535
-3.954687e-07
0.00562358
-3.985795e-07
0.005623626
-4.014332e-07
0.005623671
-4.04041e-07
0.005623717
-4.064134e-07
0.005623763
-4.085599e-07
0.005623809
-4.104894e-07
0.005623855
-4.122098e-07
0.005623902
-4.137281e-07
0.005623948
-4.150506e-07
0.005623995
-4.161825e-07
0.005624042
-4.171284e-07
0.005624089
-4.178917e-07
0.005624136
-4.184752e-07
0.005624183
-4.188807e-07
0.00562423
-4.191091e-07
0.005624277
-4.191605e-07
0.005624324
-4.19034e-07
0.005624371
-4.187279e-07
0.005624418
-4.182396e-07
0.005624465
-4.175655e-07
0.005624512
-4.167012e-07
0.005624558
-4.156415e-07
0.005624605
-4.143799e-07
0.005624651
-4.129093e-07
0.005624698
-4.112215e-07
0.005624744
-4.093076e-07
0.00562479
-4.071574e-07
0.005624835
-4.047599e-07
0.005624881
-4.021034e-07
0.005624926
-3.991748e-07
0.005624971
-3.959604e-07
0.005625015
-3.924456e-07
0.005625059
-3.886149e-07
0.005625103
-3.844517e-07
0.005625146
-3.799391e-07
0.005625189
-3.750593e-07
0.005625231
-3.697937e-07
0.005625272
-3.641235e-07
0.005625313
-3.580293e-07
0.005625353
-3.514918e-07
0.005625393
-3.444914e-07
0.005625432
-3.370087e-07
0.005625469
-3.29025e-07
0.005625506
-3.205219e-07
0.005625542
-3.114823e-07
0.005625577
-3.018903e-07
0.005625611
-2.917319e-07
0.005625644
-2.809951e-07
0.005625675
-2.696703e-07
0.005625705
-2.57751e-07
0.005625734
-2.452342e-07
0.005625761
-2.321206e-07
0.005625787
-2.184152e-07
0.005625811
-2.041277e-07
0.005625833
-1.892729e-07
0.005625854
-1.738709e-07
0.005625873
-1.579473e-07
0.00562589
-1.415333e-07
0.005625904
-1.246659e-07
0.005625917
-1.073874e-07
0.005625928
-8.974556e-08
0.005625936
-7.179243e-08
0.005625943
-5.358547e-08
0.005625947
-3.518092e-08
-1.666266e-08
0.005622532
-4.482605e-08
0.005622532
-7.64607e-08
0.005622534
-9.776763e-08
0.005622539
-1.180264e-07
0.005622547
-1.375752e-07
0.005622557
-1.558444e-07
0.005622571
-1.730187e-07
0.005622587
-1.894104e-07
0.005622605
-2.05181e-07
0.005622626
-2.203969e-07
0.005622649
-2.350969e-07
0.005622673
-2.493015e-07
0.0056227
-2.630139e-07
0.005622728
-2.762279e-07
0.005622757
-2.889339e-07
0.005622788
-3.011226e-07
0.005622821
-3.127864e-07
0.005622854
-3.239205e-07
0.005622889
-3.345236e-07
0.005622925
-3.445979e-07
0.005622961
-3.541487e-07
0.005622999
-3.631844e-07
0.005623037
-3.717156e-07
0.005623077
-3.797551e-07
0.005623117
-3.873175e-07
0.005623157
-3.944185e-07
0.005623199
-4.010745e-07
0.00562324
-4.073029e-07
0.005623283
-4.131209e-07
0.005623326
-4.185462e-07
0.005623369
-4.235958e-07
0.005623413
-4.282869e-07
0.005623457
-4.326359e-07
0.005623501
-4.366585e-07
0.005623546
-4.4037e-07
0.005623592
-4.437848e-07
0.005623637
-4.469163e-07
0.005623683
-4.497773e-07
0.005623729
-4.523793e-07
0.005623775
-4.547333e-07
0.005623821
-4.568491e-07
0.005623868
-4.587356e-07
0.005623914
-4.604005e-07
0.005623961
-4.618509e-07
0.005624008
-4.630927e-07
0.005624055
-4.641308e-07
0.005624102
-4.649693e-07
0.005624149
-4.65611e-07
0.005624196
-4.660581e-07
0.005624243
-4.663116e-07
0.005624291
-4.663715e-07
0.005624338
-4.662369e-07
0.005624385
-4.659059e-07
0.005624432
-4.653757e-07
0.005624479
-4.646423e-07
0.005624526
-4.637009e-07
0.005624573
-4.625454e-07
0.00562462
-4.61169e-07
0.005624666
-4.595636e-07
0.005624713
-4.577203e-07
0.005624759
-4.556289e-07
0.005624805
-4.532782e-07
0.005624851
-4.506561e-07
0.005624897
-4.477493e-07
0.005624942
-4.445433e-07
0.005624987
-4.410228e-07
0.005625032
-4.371713e-07
0.005625076
-4.329714e-07
0.00562512
-4.284046e-07
0.005625164
-4.234517e-07
0.005625207
-4.180925e-07
0.005625249
-4.123062e-07
0.005625291
-4.060711e-07
0.005625332
-3.993654e-07
0.005625373
-3.921667e-07
0.005625413
-3.844525e-07
0.005625452
-3.762006e-07
0.005625491
-3.67389e-07
0.005625528
-3.579964e-07
0.005625565
-3.480026e-07
0.0056256
-3.373888e-07
0.005625634
-3.26138e-07
0.005625668
-3.142354e-07
0.0056257
-3.016692e-07
0.00562573
-2.884307e-07
0.00562576
-2.74515e-07
0.005625787
-2.599218e-07
0.005625814
-2.446553e-07
0.005625838
-2.287254e-07
0.005625861
-2.121476e-07
0.005625882
-1.949437e-07
0.005625901
-1.771417e-07
0.005625919
-1.587767e-07
0.005625934
-1.3989e-07
0.005625947
-1.205298e-07
0.005625958
-1.007502e-07
0.005625967
-8.061113e-08
0.005625973
-6.017878e-08
0.005625978
-3.951821e-08
-1.872752e-08
0.005622521
-4.432116e-08
0.005622523
-7.803073e-08
0.005622528
-1.015403e-07
0.005622535
-1.240989e-07
0.005622544
-1.462508e-07
0.005622555
-1.672148e-07
0.00562257
-1.870223e-07
0.005622586
-2.059331e-07
0.005622605
-2.240829e-07
0.005622626
-2.415255e-07
0.005622649
-2.582981e-07
0.005622674
-2.744265e-07
0.005622701
-2.899227e-07
0.00562273
-3.047899e-07
0.00562276
-3.190281e-07
0.005622791
-3.326371e-07
0.005622824
-3.456179e-07
0.005622858
-3.579733e-07
0.005622893
-3.697091e-07
0.005622929
-3.80834e-07
0.005622966
-3.91359e-07
0.005623004
-4.012977e-07
0.005623043
-4.10666e-07
0.005623083
-4.194811e-07
0.005623123
-4.277617e-07
0.005623164
-4.355275e-07
0.005623206
-4.427986e-07
0.005623248
-4.495955e-07
0.005623291
-4.559389e-07
0.005623334
-4.618491e-07
0.005623378
-4.673461e-07
0.005623422
-4.724492e-07
0.005623467
-4.771774e-07
0.005623512
-4.815484e-07
0.005623557
-4.855795e-07
0.005623602
-4.892867e-07
0.005623648
-4.926853e-07
0.005623694
-4.957893e-07
0.00562374
-4.986118e-07
0.005623786
-5.011648e-07
0.005623833
-5.034593e-07
0.00562388
-5.05505e-07
0.005623927
-5.073107e-07
0.005623974
-5.08884e-07
0.005624021
-5.102315e-07
0.005624068
-5.113587e-07
0.005624115
-5.122699e-07
0.005624163
-5.129684e-07
0.00562421
-5.134565e-07
0.005624257
-5.137354e-07
0.005624305
-5.138051e-07
0.005624352
-5.136647e-07
0.0056244
-5.13312e-07
0.005624447
-5.12744e-07
0.005624494
-5.119563e-07
0.005624541
-5.109437e-07
0.005624589
-5.096995e-07
0.005624636
-5.082162e-07
0.005624683
-5.064851e-07
0.005624729
-5.044961e-07
0.005624776
-5.022383e-07
0.005624822
-4.996992e-07
0.005624869
-4.968655e-07
0.005624914
-4.937224e-07
0.00562496
-4.902541e-07
0.005625006
-4.864436e-07
0.005625051
-4.822724e-07
0.005625095
-4.777214e-07
0.00562514
-4.727699e-07
0.005625184
-4.673964e-07
0.005625227
-4.615783e-07
0.00562527
-4.552922e-07
0.005625313
-4.485137e-07
0.005625354
-4.412181e-07
0.005625396
-4.3338e-07
0.005625436
-4.249738e-07
0.005625476
-4.159739e-07
0.005625515
-4.06355e-07
0.005625553
-3.960924e-07
0.00562559
-3.851625e-07
0.005625626
-3.735431e-07
0.005625661
-3.612137e-07
0.005625695
-3.481566e-07
0.005625728
-3.343568e-07
0.005625759
-3.198031e-07
0.005625789
-3.044884e-07
0.005625818
-2.884104e-07
0.005625845
-2.715724e-07
0.00562587
-2.539839e-07
0.005625893
-2.356607e-07
0.005625915
-2.166261e-07
0.005625935
-1.969106e-07
0.005625953
-1.765526e-07
0.005625968
-1.555984e-07
0.005625982
-1.341018e-07
0.005625993
-1.121243e-07
0.005626002
-8.973373e-08
0.005626009
-6.700565e-08
0.005626014
-4.401444e-08
-2.087159e-08
0.005622508
-4.497213e-08
0.005622512
-8.101012e-08
0.005622518
-1.066523e-07
0.005622526
-1.313918e-07
0.005622536
-1.560018e-07
0.005622549
-1.795218e-07
0.005622564
-2.018543e-07
0.005622581
-2.232119e-07
0.0056226
-2.436992e-07
0.005622622
-2.633486e-07
0.005622646
-2.821878e-07
0.005622672
-3.002419e-07
0.005622699
-3.175261e-07
0.005622729
-3.340501e-07
0.005622759
-3.498216e-07
0.005622792
-3.648485e-07
0.005622825
-3.791396e-07
0.00562286
-3.927059e-07
0.005622895
-4.055604e-07
0.005622932
-4.177185e-07
0.00562297
-4.291977e-07
0.005623009
-4.400177e-07
0.005623048
-4.501996e-07
0.005623088
-4.597656e-07
0.005623129
-4.687392e-07
0.005623171
-4.771443e-07
0.005623213
-4.85005e-07
0.005623256
-4.923454e-07
0.005623299
-4.991895e-07
0.005623343
-5.055606e-07
0.005623387
-5.114818e-07
0.005623431
-5.169748e-07
0.005623476
-5.22061e-07
0.005623521
-5.267605e-07
0.005623567
-5.310923e-07